# vtk DataFile Version 3.0
LAPLACIEN  2D
ASCII
DATASET UNSTRUCTURED_GRID
 POINTS        1616  float
  0.45880792999999997       0.87913892999999999        0.0000000000000000     
  0.40372658000000000       0.18243693000000000        0.0000000000000000     
  0.52563972999999997       0.19039755999999999        0.0000000000000000     
  0.45642953000000003       0.24226190000000000        0.0000000000000000     
  0.51984098000000001       0.24548566999999999        0.0000000000000000     
  0.21212766999999999       0.18957676000000001        0.0000000000000000     
  0.28573643999999998       0.48586826999999999        0.0000000000000000     
  0.49667887999999999       0.82979849000000006        0.0000000000000000     
  0.22848407000000001       0.23366793000000000        0.0000000000000000     
  0.27860389000000002       0.86069733000000004        0.0000000000000000     
  0.36563702999999997       0.80971340999999997        0.0000000000000000     
  0.28045499000000002       0.80393031999999998        0.0000000000000000     
  0.40374228000000001       0.78127665000000002        0.0000000000000000     
  0.56160891999999996       0.55341227999999998        0.0000000000000000     
  0.37210935000000001       0.26787699999999998        0.0000000000000000     
  0.49899838000000002       0.57286409999999999        0.0000000000000000     
  0.41023869000000002       0.33464665999999998        0.0000000000000000     
  0.33484156999999998       0.29151022999999998        0.0000000000000000     
  0.46758665999999999       0.58262307999999996        0.0000000000000000     
  0.43303693999999998       0.36569945999999998        0.0000000000000000     
  0.25741280000000000       0.61805882999999995        0.0000000000000000     
  0.28853707000000001       0.59423020000000004        0.0000000000000000     
  0.67837254000000002       0.45038665999999999        0.0000000000000000     
  0.42159046000000000       0.50697913999999999        0.0000000000000000     
  0.60276470999999998       0.73940291000000002        0.0000000000000000     
  0.30758273000000003       0.77844542000000005        0.0000000000000000     
  0.45367541000000000       0.31842187000000000        0.0000000000000000     
  0.36974101999999998       0.35807864000000000        0.0000000000000000     
  0.26919625000000003       0.65312176000000000        0.0000000000000000     
  0.61908110999999999       0.42741791000000001        0.0000000000000000     
  0.54442267000000000       0.74200747000000000        0.0000000000000000     
  0.58930464999999999       0.41588288000000001        0.0000000000000000     
  0.51511633000000001       0.74331579000000003        0.0000000000000000     
  0.12878382999999999       0.33122940000000001        0.0000000000000000     
  0.15534365000000000       0.71749246000000000        0.0000000000000000     
  0.64877724999999997       0.30161799000000000        0.0000000000000000     
  0.58853643000000000       0.28101930000000003        0.0000000000000000     
  0.56390348000000001       0.30132482999999999        0.0000000000000000     
  0.29605991999999998       0.44474459999999999        0.0000000000000000     
  0.29900669000000002       0.52983276000000001        0.0000000000000000     
  0.55954318999999997       0.48654808999999999        0.0000000000000000     
  0.42341458999999998       0.38785072999999998        0.0000000000000000     
  0.45806291999999998       0.35892998999999998        0.0000000000000000     
  0.47820750000000001       0.31147424000000001        0.0000000000000000     
  0.36344222999999998       0.38139388000000002        0.0000000000000000     
  0.17186508000000000       0.28159534000000003        0.0000000000000000     
  0.18029876000000000       0.33292397000000001        0.0000000000000000     
  0.20696366999999999       0.71822465999999996        0.0000000000000000     
  0.61326404999999995       0.34468346000000000        0.0000000000000000     
  0.29887186999999998       0.42337377999999998        0.0000000000000000     
  0.33271837999999998       0.44383096000000000        0.0000000000000000     
  0.31835012000000001       0.54267131999999996        0.0000000000000000     
  0.54882964999999995       0.45462609999999998        0.0000000000000000     
  0.20448143999999999       0.28717446000000002        0.0000000000000000     
  0.20634120000000000       0.33378063000000002        0.0000000000000000     
  0.23301781999999999       0.71859421999999995        0.0000000000000000     
  0.58606499999999995       0.35199907000000002        0.0000000000000000     
  0.20841100000000001       0.45369578999999999        0.0000000000000000     
  0.24778198000000001       0.77708496000000005        0.0000000000000000     
  0.30748062999999998       0.61002621000000001        0.0000000000000000     
  0.23337332000000000       0.41981835000000001        0.0000000000000000     
  0.25985113999999998       0.75924943000000000        0.0000000000000000     
  0.24610213000000000       0.40254353999999998        0.0000000000000000     
  0.37350351999999998       0.50127178999999999        0.0000000000000000     
  0.43235204999999999       0.78236391000000005        0.0000000000000000     
  0.30749858000000002       0.28582627999999999        0.0000000000000000     
  0.30336816000000000       0.64635111000000001        0.0000000000000000     
  0.31418906000000002       0.43625961000000002        0.0000000000000000     
  0.27223414000000001       0.78063022000000004        0.0000000000000000     
  0.22829299000000000       0.75089561000000005        0.0000000000000000     
  0.26580239000000000       0.42989294000000000        0.0000000000000000     
  0.37369119000000001       0.51975733999999996        0.0000000000000000     
  0.39681665999999999       0.51027884000000001        0.0000000000000000     
  0.32086795000000001       0.65137668999999998        0.0000000000000000     
  0.31757218999999998       0.62987181000000003        0.0000000000000000     
  0.32959777000000001       0.42500900000000003        0.0000000000000000     
  0.24663835000000001       0.74537787000000000        0.0000000000000000     
  0.26354222999999999       0.41075105000000001        0.0000000000000000     
  0.28343712999999998       0.43221330000000002        0.0000000000000000     
  0.34682245000000000       0.43182289000000001        0.0000000000000000     
  0.35306810000000000       0.45344571000000000        0.0000000000000000     
  0.57327218000000002       0.15829040000000000        0.0000000000000000     
  0.51473097999999995       0.12621746000000000        0.0000000000000000     
  0.72829681999999996       0.40151571000000003        0.0000000000000000     
  0.42703184999999999       0.53501600999999999        0.0000000000000000     
  0.32612607999999998       0.75472421999999995        0.0000000000000000     
   9.9814849999999997E-002  0.28081352999999998        0.0000000000000000     
  0.13945825000000001       0.78732252999999996        0.0000000000000000     
  0.44199519999999998       0.38275643999999998        0.0000000000000000     
  0.40132215999999998       0.36508836000000000        0.0000000000000000     
  0.43963142999999999       0.34043466999999999        0.0000000000000000     
  0.47160058999999999       0.33493045999999999        0.0000000000000000     
  0.45615203999999998       0.28038164999999998        0.0000000000000000     
  0.34321279999999998       0.35314412000000001        0.0000000000000000     
  0.29178279000000001       0.56170810000000004        0.0000000000000000     
  0.49833080000000002       0.48416767999999999        0.0000000000000000     
  0.46386271000000001       0.46452802999999998        0.0000000000000000     
  0.44722043000000000       0.45300645000000000        0.0000000000000000     
  0.46562803000000003       0.44419790999999997        0.0000000000000000     
  0.43925322000000000       0.48229485999999999        0.0000000000000000     
  0.49117628000000002       0.45665803999999999        0.0000000000000000     
  0.43435156000000003       0.46523363000000001        0.0000000000000000     
  0.19405754000000000       0.31093060000000000        0.0000000000000000     
  0.22069087000000001       0.66905079000000001        0.0000000000000000     
  0.30776597999999999       0.59042684000000001        0.0000000000000000     
  0.29541507000000000       0.57849362000000004        0.0000000000000000     
  0.28335474999999999       0.61970232999999997        0.0000000000000000     
  0.29935165000000002       0.62852803999999995        0.0000000000000000     
  0.28459435999999999       0.64121777000000002        0.0000000000000000     
  0.26698675999999999       0.63435282999999998        0.0000000000000000     
  0.24031983000000001       0.64700659000000005        0.0000000000000000     
  0.33118850000000000       0.50233682999999996        0.0000000000000000     
  0.35257061000000001       0.51072803000000000        0.0000000000000000     
  0.29038973000000001       0.78732479000000000        0.0000000000000000     
  0.28737915000000003       0.76752330999999996        0.0000000000000000     
  0.21978159000000000       0.73315437000000006        0.0000000000000000     
  0.18119734000000001       0.76257752999999995        0.0000000000000000     
  0.20353571000000001       0.75186065999999996        0.0000000000000000     
  0.39122694000000002       0.49007234000000000        0.0000000000000000     
  0.59140473999999998       0.13507609000000001        0.0000000000000000     
  0.53156702000000000        9.7663528999999999E-002   0.0000000000000000     
  0.76346223999999996       0.39657278000000001        0.0000000000000000     
  0.41119013999999998       0.52354409999999996        0.0000000000000000     
   7.2558165999999993E-002  0.26885883999999999        0.0000000000000000     
  0.10497347000000000       0.79895936000000001        0.0000000000000000     
[...]
 CELL_DATA        2963
 SCALARS Endothelial_cells float
 LOOKUP_TABLE default
    0.65901292470650130184E+00
    0.55320684923126450805E+00
    0.38848381885290833582E+00
    0.48454527742102571075E+00
    0.44443000194938858671E+00
    0.67331933808661381669E+00
    0.47182975284666694993E+00
    0.41600598125959381557E+00
    0.60731236197459659287E+00
    0.23156364266761353399E+00
    0.53958890164782147281E+00
    0.35169803329971749406E+00
    0.35395215419991171713E+00
    0.46087393145156674290E+00
    0.60779116600126004144E+00
    0.34637858154001188726E+00
    0.23506937159530030823E+00
    0.45648055097270945346E+00
    0.76252800361240791194E+00
    0.33296575926554144997E+00
    0.44835408386511060863E+00
    0.23608756218062298959E+00
    0.23694722210235188986E+00
    0.39361446265243926756E+00
    0.30855645406569792710E+00
    0.91475281889917847700E+00
    0.32390468869302213584E+00
    0.75191791584218514721E+00
    0.40435004335892116289E+00
    0.28085748343730043697E+00
    0.43071105237620893602E+00
    0.48861931500274580209E+00
    0.40977123852886415678E+00
    0.29643113082198774277E+00
    0.34369888870695575189E+00
    0.30033128902145950212E+00
    0.36315477075139324104E+00
    0.28398339101521963279E+00
    0.29866096318092788531E+00
    0.39999752414638178877E+00
    0.28752629487871872449E+00
    0.44025226490782115585E+00
    0.39053016297537396229E+00
    0.28779124727353533331E+00
    0.54233126780935070332E+00
    0.25728085646286197319E+00
    0.30152685449106958471E+00
    0.55927857635892075372E+00
    0.27859596050701879166E+00
    0.56679457611460326572E+00
    0.26694346044109668048E+00
    0.24315249118602341727E+00
    0.25624074027734888848E+00
    0.24758926461718813727E+00
    0.36144255313787942985E+00
    0.36468298541431470872E+00
    0.28189325403589243768E+00
    0.25146437005620048133E+00
    0.23722433550125995860E+00
    0.36962353612347237375E+00
    0.24289879892232074665E+00
    0.53746270194299827772E+00
    0.53943834565894221988E+00
    0.46849144935361336506E+00
    0.39996466935199276316E+00
    0.24977287476956544499E+00
    0.33113787714728842859E+00
    0.24023713015759401435E+00
    0.39995568112263785165E+00
    0.43972411665484445464E+00
    0.29335920684677141423E+00
    0.24673799603660920288E+00
    0.29214512782524815204E+00
    0.30919436390769389211E+00
    0.23204788386234670439E+00
    0.23198083034661168278E+00
    0.23358278539622423509E+00
    0.23372910884922903918E+00
    0.25819028384090381145E+00
    0.25383610104717185818E+00
    0.47703395739495174643E+00
    0.26357771782872191357E+00
    0.24011754028065618316E+00
    0.23057654496227436569E+00
    0.27475556250007948655E+00
    0.50424848860347193380E+00
    0.74015410813068138740E+00
    0.40026340400192617075E+00
    0.32047629074776617930E+00
    0.70355747256102418863E+00
    0.33877488649622961026E+00
    0.26533459454358521157E+00
    0.23656381241945692584E+00
    0.24885945758587199594E+00
    0.29406946954769369595E+00
    0.27273588869603965223E+00
    0.23406708528854205942E+00
    0.33345775479204275982E+00
    0.26929181298442217418E+00
    0.33837703446149353104E+00
    0.29940586827566478823E+00
    0.33109750095523027280E+00
    0.26453454024073386197E+00
    0.34127219783820106347E+00
    0.39998342012189064265E+00
    0.54166598791631137555E+00
    0.36189887516182517313E+00
    0.76922297496925373661E+00
    0.26127714630231430037E+00
    0.36539707566659573867E+00
    0.44990238593415421420E+00
    0.33140780277487558170E+00
    0.31508239923025466167E+00
    0.35809833107960253873E+00
    0.47605439818962747012E+00
    0.33909221113850973595E+00
    0.66622252895147160423E+00
    0.58170157565414337686E+00
    0.23060185102346603125E+00
    0.23755246058357643024E+00
    0.32982629825389186973E+00
    0.49287136028572731128E+00
    0.24249078768311244092E+00
    0.29505715911133056917E+00
    0.25261808139135888407E+00
    0.31381739665102109660E+00
    0.73090225006434761390E+00
    0.25396933474718119683E+00
    0.45570694846179488069E+00
    0.23734011678416175317E+00
    0.26148046014900694356E+00
    0.25640023936369621405E+00
    0.40002235561868371150E+00
    0.25943210512694986347E+00
    0.37425433013759129564E+00
    0.23904282480873073613E+00
    0.24024060110694295256E+00
    0.58414586818240155086E+00
    0.41375264233670444591E+00
    0.43518324505651118095E+00
    0.23612658780412032478E+00
    0.27889074394251339717E+00
    0.40006672590656627841E+00
    0.24033120936479757113E+00
    0.24592265184611969420E+00
    0.27459062455472227349E+00
    0.50260873409385919963E+00
    0.26558599506888791453E+00
    0.35821124634130252495E+00
    0.30713627052553466035E+00
    0.40515996299694612137E+00
    0.39999515535896790208E+00
    0.24615940049807594203E+00
    0.27976274577623033712E+00
    0.27087319721997266120E+00
    0.25670681961291580420E+00
    0.24934957757910400367E+00
    0.27405636896252416612E+00
    0.27427888997429578088E+00
    0.27129301613522416314E+00
    0.27380375717894273047E+00
    0.29757593312321295453E+00
    0.28997937609619545141E+00
    0.32251608748300936158E+00
    0.34288274297805304558E+00
    0.25259534594405114172E+00
    0.24821157715357508589E+00
    0.25162798025480132003E+00
    0.23133317204435419057E+00
    0.25834142530397091742E+00
    0.23072662004426686133E+00
    0.27845057065504963401E+00
    0.27103761369980267082E+00
    0.27369498008401743627E+00
    0.25775359121880314639E+00
    0.25123775926968772154E+00
    0.40812885367759976774E+00
    0.33981559031593738807E+00
    0.57133050563394605081E+00
    0.24195648967178548516E+00
    0.23139755523027730200E+00
    0.29179853517163184540E+00
    0.30498032029787286445E+00
    0.34737273046061600823E+00
    0.26074583391905048479E+00
    0.26355818078446502373E+00
    0.39999738288590008795E+00
    0.83115844660081272810E+00
    0.24360300351399205576E+00
    0.28719749188602233803E+00
    0.48984278479494586245E+00
    0.39999436754676165329E+00
    0.71305023330433725537E+00
    0.24001689327351444225E+00
    0.34234575591003885142E+00
    0.24681981073317224573E+00
    0.38118545938738324086E+00
    0.26180051413944183114E+00
    0.32089788049089507105E+00
    0.24913953190842164087E+00
    0.29751945972495019710E+00
    0.28384518696040178520E+00
    0.40828988270029159535E+00
    0.27019637948957425655E+00
    0.24616447958238643623E+00
    0.24188431289895900855E+00
    0.27839733020595663904E+00
    0.24132977854645443205E+00
    0.39972795542251815526E+00
    0.24104043333766905777E+00
    0.24902561971251477302E+00
    0.23759395446625611314E+00
    0.24374530687705675547E+00
    0.54450895168990265383E+00
    0.59000060687229571865E+00
    0.36298925259830205903E+00
    0.30146292905182398014E+00
    0.36773829241835692683E+00
    0.40000053423567655253E+00
    0.24731335134523985131E+00
    0.52248919637119384252E+00
    0.58785562507167099522E+00
    0.59879331286211889829E+00
    0.23808253104264565092E+00
    0.24234349891957193690E+00
    0.51118749686922404507E+00
    0.49266564566005999204E+00
    0.26306493272544817508E+00
    0.26236159596818875439E+00
    0.32722866643442460877E+00
    0.25441903529238263371E+00
    0.31100214833675748904E+00
    0.35743299010816009798E+00
    0.39998831304866550029E+00
    0.32397700644807875259E+00
    0.33886911012065695781E+00
    0.68212971161295521405E+00
    0.39991052115274677847E+00
    0.25174642552892723124E+00
    0.39989007226125206085E+00
    0.24693283324657250288E+00
    0.27923943797151962176E+00
    0.40005117464160477869E+00
    0.39994319325347493788E+00
    0.23262697486889341580E+00
    0.96368020491683403783E+00
    0.34005134930340247257E+00
    0.24399891377878837884E+00
    0.87242145228560130654E+00
    0.34524292239734838406E+00
    0.23022435365051238665E+00
    0.36499088289129255624E+00
    0.84455652831389371737E+00
    0.39993756259973856082E+00
    0.26860265612519990119E+00
    0.31207517609539348058E+00
    0.27235002989841744503E+00
    0.75299047600767055055E+00
    0.23098705756998699767E+00
    0.32991450337895766864E+00
    0.23044982146670389689E+00
    0.23069719369039737300E+00
    0.23063046930374916932E+00
    0.27577070444357210111E+00
    0.23353026226175729874E+00
    0.24799097699886521462E+00
    0.29550608212969120547E+00
    0.23088081680841096577E+00
    0.28344300916000064738E+00
    0.23764084068152593887E+00
    0.35286765798986746701E+00
    0.33494985070117561099E+00
    0.23120273185485981648E+00
    0.27278480248340647440E+00
    0.27204703373416905254E+00
    0.43961502447481687339E+00
    0.28281480194997682398E+00
    0.35398675202044493915E+00
    0.23960520451769976025E+00
    0.26509297899096606610E+00
    0.55589706285882278802E+00
    0.24751524726954202138E+00
    0.39999712793119618359E+00
    0.30531837457060556629E+00
    0.26407953359298097507E+00
    0.24492288609137016775E+00
    0.40006921225825614608E+00
    0.26673450314613755818E+00
    0.88581683099357988453E+00
    0.31151426469253867824E+00
    0.31662377787231477111E+00
    0.31516920334281722793E+00
    0.30975541352128954653E+00
    0.41701112140521162663E+00
    0.29110273698919164609E+00
    0.39998881931268348566E+00
    0.25671091925026273683E+00
    0.28499131824466039653E+00
    0.44239392316556447327E+00
    0.29284687061775660499E+00
    0.29191359627904167606E+00
    0.29038622168739330887E+00
    0.32105484470572387412E+00
    0.56335906618706121929E+00
    0.41591482989714972929E+00
    0.24523323548703687691E+00
    0.25992607578397680657E+00
    0.27984963043199034827E+00
    0.24564277603034379016E+00
    0.40002370030647022014E+00
    0.23613508529739593578E+00
    0.27932204886764083751E+00
    0.40001994460155754219E+00
    0.27630004689665099704E+00
    0.38662892033376772272E+00
    0.54992086395317563152E+00
    0.27019858294608167792E+00
    0.58006470538608811971E+00
    0.43110233188627450351E+00
    0.34711412173684769167E+00
    0.34022432361973847792E+00
    0.31740158200450430126E+00
    0.34762412788116725526E+00
    0.32583670085752375334E+00
    0.59698295457387895446E+00
    0.33827471954611337823E+00
    0.40062589557448941013E+00
    0.39994817172546920370E+00
    0.42122150854814366383E+00
    0.67479673753269531211E+00
    0.24004000252031854057E+00
    0.24874266679353584930E+00
    0.54211747130072995837E+00
    0.49698642675180054740E+00
    0.27530235806522035391E+00
    0.28422333005874961254E+00
    0.25453738614413112806E+00
    0.33156003528363336974E+00
    0.46545298857267203285E+00
    0.33909193767662720864E+00
    0.33778492102127705143E+00
    0.51760888379085023825E+00
    0.80245573826048388622E+00
    0.34123876916978634899E+00
    0.23043693246986696188E+00
    0.26857892175574910043E+00
    0.25693054877085691468E+00
    0.33933206501930140986E+00
    0.31299462698333424537E+00
    0.62669352415597379125E+00
    0.58269948190258957776E+00
    0.42094339634134608774E+00
    0.40838482236188716756E+00
    0.25451163870772841591E+00
    0.24673047869801770227E+00
    0.24506633766768975979E+00
    0.25730011212798054032E+00
    0.25465561938974007328E+00
    0.26089434256857513272E+00
    0.27477951895092200818E+00
    0.26086304924914216485E+00
    0.26578368843301553026E+00
    0.29847515787939615794E+00
    0.27419951276648141247E+00
    0.24967301586712506434E+00
    0.26670151661742491633E+00
    0.26714088135270025459E+00
    0.26096887534916390905E+00
    0.51614311749491825765E+00
    0.23448393138195089414E+00
    0.24348806975275508191E+00
    0.23679173507022574507E+00
    0.23934779434535244369E+00
    0.23858490639090751406E+00
    0.24998092467425836460E+00
    0.41046844170447799316E+00
    0.24347485000647806075E+00
    0.23279324755670699476E+00
    0.24725727234013566980E+00
    0.26135218934664561363E+00
    0.23876456341390739357E+00
    0.23345160564749112275E+00
    0.38443224380709495325E+00
    0.35041154042259398116E+00
    0.35994110252280586693E+00
    0.30455533522576644367E+00
    0.25574182917887239297E+00
    0.25084257725206532408E+00
    0.26848835477820692796E+00
    0.25200910707575457925E+00
    0.25939326667883372268E+00
    0.26914810859359489248E+00
    0.26830692169364933619E+00
    0.26274661158674911254E+00
    0.27337945442417482811E+00
    0.28188655654114014304E+00
    0.31102070956126759427E+00
    0.27780768683523371365E+00
    0.63179909833036640432E+00
    0.29107956788606825782E+00
    0.24271304534641113815E+00
    0.23722520245145442552E+00
    0.23206498535029401742E+00
    0.23384333432792345220E+00
    0.36428399959233759287E+00
    0.35870726788819934372E+00
    0.34607793346766169140E+00
    0.31960837547717252383E+00
    0.35390464783028618978E+00
    0.38304010842874186560E+00
    0.39780120698639093169E+00
    0.52133852051069529132E+00
    0.39292074556799178042E+00
    0.46716071244894596948E+00
    0.23050144128657823472E+00
    0.23060840028165663362E+00
    0.70531940199365383837E+00
    0.23557740617474229317E+00
    0.52477531143131261882E+00
    0.58599056659795512036E+00
    0.45411287844456993401E+00
    0.85284174964899039928E+00
    0.80490962931190845886E+00
    0.23246406624578777600E+00
    0.23145346045627210319E+00
    0.69878556653468770765E+00
    0.31122022194527870775E+00
    0.67341541341984190172E+00
    0.65340587163626540068E+00
    0.54609139118129679247E+00
    0.25444912248645140673E+00
    0.25170211297077893509E+00
    0.24449443830793535226E+00
    0.25100780825192214873E+00
    0.25689430722051942446E+00
    0.25028989045792221502E+00
    0.24562290945372805551E+00
    0.23995845599725268427E+00
    0.24107722039819637350E+00
    0.23954796231559957742E+00
    0.24376140786583774811E+00
    0.24275651726605335101E+00
    0.26291288469546164608E+00
    0.27707737043311886360E+00
    0.26747659924693145683E+00
    0.26403338929224384746E+00
    0.26565014379005358336E+00
    0.26731643906367036356E+00
    0.27168857656999167993E+00
    0.29157690538480857123E+00
    0.26855983521387516433E+00
    0.30595674671650274767E+00
    0.29840068844848349761E+00
    0.31140302862521940241E+00
    0.24714841725056077570E+00
    0.25193836809087744033E+00
    0.24294704582237625079E+00
    0.25733199366831321919E+00
    0.24735027579339288750E+00
    0.24981579387919689017E+00
    0.40001378682112875840E+00
    0.40058338316116859357E+00
    0.46887749018061325446E+00
    0.42843881006515127652E+00
    0.40491964868173768721E+00
    0.47435493485136964731E+00
    0.37926511507366778009E+00
    0.39858860330135575945E+00
    0.33473883163246398453E+00
    0.33110941218751421822E+00
    0.40915585784795927005E+00
    0.31759883000407068687E+00
    0.27944337914301320414E+00
    0.27630379213503347691E+00
    0.31606156220630066134E+00
    0.40000173672451588835E+00
    0.29730551490533663195E+00
    0.28588808156818307227E+00
    0.29666155714436187596E+00
    0.25887681635990195117E+00
    0.28584078176879235134E+00
    0.27906620896766420881E+00
    0.24514048008167682591E+00
    0.23535057376532669826E+00
    0.25060457167655386668E+00
    0.24770158321192725648E+00
    0.23786789408094408116E+00
    0.23454293203521275890E+00
    0.23961993562737554653E+00
    0.24575433288267212184E+00
    0.24284487797938728026E+00
    0.24131242402155705928E+00
    0.31443771705959150387E+00
    0.31989046892416972412E+00
    0.42222329113635531650E+00
    0.42139200792112080363E+00
    0.40076479719407409608E+00
    0.39999997270336529187E+00
    0.23156707817140775862E+00
    0.23273294094591645553E+00
    0.57244411351624102657E+00
    0.58137624999306569684E+00
    0.52917819612312255728E+00
    0.91678842829490925226E+00
    0.80440889461052467180E+00
    0.73583361637527855414E+00
    0.74110751757227455450E+00
    0.66912730331652348070E+00
    0.25677221984090442541E+00
    0.28557434032815387503E+00
    0.27213836355195680783E+00
    0.29059953253431181075E+00
    0.40014577157742597935E+00
    0.40022758330066354748E+00
    0.48794567944597244669E+00
    0.52839112464566539984E+00
    0.39999900940028765284E+00
    0.40074761905573180742E+00
    0.35244150543580793356E+00
    0.34144825463133826604E+00
    0.33462066164793835554E+00
    0.31924639720385783459E+00
    0.34356519775369326331E+00
    0.31704785717794586875E+00
    0.27813651351596174743E+00
    0.26642242899018764302E+00
    0.29646021640871200731E+00
    0.27348500189928487414E+00
    0.28057009463444776420E+00
    0.25165771993739372014E+00
    0.26893658136473330700E+00
    0.26054591972212348683E+00
    0.23356283424124102410E+00
    0.23804262607144258124E+00
    0.23498002704683265685E+00
    0.23939102268266918006E+00
    0.23529454066918301103E+00
    0.23326464621411208133E+00
    0.24885447162003238031E+00
    0.23906770975817559499E+00
    0.25411338353470563911E+00
    0.24849556162103192403E+00
    0.25945428733607678318E+00
    0.29112389124691867570E+00
    0.25720389700822632317E+00
    0.25457943873702970627E+00
    0.25828554906162520810E+00
    0.26291013991336847910E+00
    0.46216411848913019345E+00
    0.46040773187352834750E+00
    0.40468995019599041107E+00
    0.74693775317466493124E+00
    0.53929297977452361756E+00
    0.47708929319625381638E+00
    0.42894710245055217568E+00
    0.50691934815159478411E+00
    0.49450449246460026487E+00
    0.46336828942018803978E+00
    0.38020883155926410435E+00
    0.41040469829268316770E+00
    0.44258286594065265884E+00
    0.40181310076200654757E+00
    0.25395117329418004370E+00
    0.26971234442823954769E+00
    0.27576543764958283411E+00
    0.28019845370733864609E+00
    0.27659945714542183426E+00
    0.30248346858761582245E+00
    0.29173569033228941016E+00
    0.27798818045216744377E+00
    0.40543035634094148900E+00
    0.51211593337875460641E+00
    0.28714770482570495247E+00
    0.32400545248759193839E+00
    0.30130168930575773611E+00
    0.29274699915722401933E+00
    0.32017270079144988237E+00
    0.38367660588472130012E+00
    0.34684459351158436480E+00
    0.30819806075841282844E+00
    0.24979962223745677541E+00
    0.29522270178817672237E+00
    0.27676815893962464221E+00
    0.29980879938474191970E+00
    0.29550663972522328571E+00
    0.28016434529772643591E+00
    0.30574985860949793759E+00
    0.31891679786705873223E+00
    0.26708296265534603453E+00
    0.26484823686529479492E+00
    0.27503499672110509611E+00
    0.26054923256129519649E+00
    0.29163687354681488983E+00
    0.26535066121229849978E+00
    0.25784360335856604252E+00
    0.25284345136930330700E+00
    0.26027943603475744982E+00
    0.25715615520509316205E+00
    0.23835532396597483573E+00
    0.23519431002774437989E+00
    0.23210593936964951656E+00
    0.23439690482957920015E+00
    0.23104842167475725390E+00
    0.23138523171377184395E+00
    0.23964220836766489398E+00
    0.24411568150570292501E+00
    0.55223888968864554005E+00
    0.63573313610136883423E+00
    0.25235610631907190449E+00
    0.26175656677205244582E+00
    0.30841891147700900566E+00
    0.28960196914534352963E+00
    0.40000381222024489203E+00
    0.29197204092884543325E+00
    0.29516578263161785678E+00
    0.26752161334217705591E+00
    0.32337188405999339746E+00
    0.30405398348920281704E+00
    0.48711804573867828472E+00
    0.43831002076210362484E+00
    0.28707540387160690454E+00
    0.29984544897884957138E+00
    0.57566452248730837216E+00
    0.50162853547111141417E+00
    0.69401751958248514285E+00
    0.59593429165670608327E+00
    0.54166762508084276284E+00
    0.44320725967036356252E+00
    0.27919095733382059965E+00
    0.30715394145960700500E+00
    0.27067866150500830003E+00
    0.28241301613101948975E+00
    0.28194196279891919898E+00
    0.28085560636122414158E+00
    0.29944964052467687443E+00
    0.28948529552151708311E+00
    0.27913669942285651571E+00
    0.31070375084807005939E+00
    0.26033551583134767471E+00
    0.28340604144732789438E+00
    0.29079385122063527991E+00
    0.32462489511515618679E+00