# vtk DataFile Version 3.0
LAPLACIEN  2D
ASCII
DATASET UNSTRUCTURED_GRID
 POINTS        1616  float
  0.45880792999999997       0.87913892999999999        0.0000000000000000     
  0.40372658000000000       0.18243693000000000        0.0000000000000000     
  0.52563972999999997       0.19039755999999999        0.0000000000000000     
  0.45642953000000003       0.24226190000000000        0.0000000000000000     
  0.51984098000000001       0.24548566999999999        0.0000000000000000     
  0.21212766999999999       0.18957676000000001        0.0000000000000000     
  0.28573643999999998       0.48586826999999999        0.0000000000000000     
  0.49667887999999999       0.82979849000000006        0.0000000000000000     
  0.22848407000000001       0.23366793000000000        0.0000000000000000     
  0.27860389000000002       0.86069733000000004        0.0000000000000000     
  0.36563702999999997       0.80971340999999997        0.0000000000000000     
  0.28045499000000002       0.80393031999999998        0.0000000000000000     
  0.40374228000000001       0.78127665000000002        0.0000000000000000     
  0.56160891999999996       0.55341227999999998        0.0000000000000000     
  0.37210935000000001       0.26787699999999998        0.0000000000000000     
  0.49899838000000002       0.57286409999999999        0.0000000000000000     
  0.41023869000000002       0.33464665999999998        0.0000000000000000     
  0.33484156999999998       0.29151022999999998        0.0000000000000000     
  0.46758665999999999       0.58262307999999996        0.0000000000000000     
  0.43303693999999998       0.36569945999999998        0.0000000000000000     
  0.25741280000000000       0.61805882999999995        0.0000000000000000     
  0.28853707000000001       0.59423020000000004        0.0000000000000000     
  0.67837254000000002       0.45038665999999999        0.0000000000000000     
  0.42159046000000000       0.50697913999999999        0.0000000000000000     
  0.60276470999999998       0.73940291000000002        0.0000000000000000     
  0.30758273000000003       0.77844542000000005        0.0000000000000000     
  0.45367541000000000       0.31842187000000000        0.0000000000000000     
  0.36974101999999998       0.35807864000000000        0.0000000000000000     
  0.26919625000000003       0.65312176000000000        0.0000000000000000     
  0.61908110999999999       0.42741791000000001        0.0000000000000000     
  0.54442267000000000       0.74200747000000000        0.0000000000000000     
  0.58930464999999999       0.41588288000000001        0.0000000000000000     
  0.51511633000000001       0.74331579000000003        0.0000000000000000     
  0.12878382999999999       0.33122940000000001        0.0000000000000000     
  0.15534365000000000       0.71749246000000000        0.0000000000000000     
  0.64877724999999997       0.30161799000000000        0.0000000000000000     
  0.58853643000000000       0.28101930000000003        0.0000000000000000     
  0.56390348000000001       0.30132482999999999        0.0000000000000000     
  0.29605991999999998       0.44474459999999999        0.0000000000000000     
  0.29900669000000002       0.52983276000000001        0.0000000000000000     
  0.55954318999999997       0.48654808999999999        0.0000000000000000     
  0.42341458999999998       0.38785072999999998        0.0000000000000000     
  0.45806291999999998       0.35892998999999998        0.0000000000000000     
  0.47820750000000001       0.31147424000000001        0.0000000000000000     
  0.36344222999999998       0.38139388000000002        0.0000000000000000     
  0.17186508000000000       0.28159534000000003        0.0000000000000000     
  0.18029876000000000       0.33292397000000001        0.0000000000000000     
  0.20696366999999999       0.71822465999999996        0.0000000000000000     
  0.61326404999999995       0.34468346000000000        0.0000000000000000     
  0.29887186999999998       0.42337377999999998        0.0000000000000000     
  0.33271837999999998       0.44383096000000000        0.0000000000000000     
  0.31835012000000001       0.54267131999999996        0.0000000000000000     
  0.54882964999999995       0.45462609999999998        0.0000000000000000     
  0.20448143999999999       0.28717446000000002        0.0000000000000000     
  0.20634120000000000       0.33378063000000002        0.0000000000000000     
  0.23301781999999999       0.71859421999999995        0.0000000000000000     
  0.58606499999999995       0.35199907000000002        0.0000000000000000     
  0.20841100000000001       0.45369578999999999        0.0000000000000000     
  0.24778198000000001       0.77708496000000005        0.0000000000000000     
  0.30748062999999998       0.61002621000000001        0.0000000000000000     
  0.23337332000000000       0.41981835000000001        0.0000000000000000     
  0.25985113999999998       0.75924943000000000        0.0000000000000000     
  0.24610213000000000       0.40254353999999998        0.0000000000000000     
  0.37350351999999998       0.50127178999999999        0.0000000000000000     
  0.43235204999999999       0.78236391000000005        0.0000000000000000     
  0.30749858000000002       0.28582627999999999        0.0000000000000000     
  0.30336816000000000       0.64635111000000001        0.0000000000000000     
  0.31418906000000002       0.43625961000000002        0.0000000000000000     
  0.27223414000000001       0.78063022000000004        0.0000000000000000     
  0.22829299000000000       0.75089561000000005        0.0000000000000000     
  0.26580239000000000       0.42989294000000000        0.0000000000000000     
  0.37369119000000001       0.51975733999999996        0.0000000000000000     
  0.39681665999999999       0.51027884000000001        0.0000000000000000     
  0.32086795000000001       0.65137668999999998        0.0000000000000000     
  0.31757218999999998       0.62987181000000003        0.0000000000000000     
  0.32959777000000001       0.42500900000000003        0.0000000000000000     
  0.24663835000000001       0.74537787000000000        0.0000000000000000     
  0.26354222999999999       0.41075105000000001        0.0000000000000000     
  0.28343712999999998       0.43221330000000002        0.0000000000000000     
  0.34682245000000000       0.43182289000000001        0.0000000000000000     
  0.35306810000000000       0.45344571000000000        0.0000000000000000     
  0.57327218000000002       0.15829040000000000        0.0000000000000000     
  0.51473097999999995       0.12621746000000000        0.0000000000000000     
  0.72829681999999996       0.40151571000000003        0.0000000000000000     
  0.42703184999999999       0.53501600999999999        0.0000000000000000     
  0.32612607999999998       0.75472421999999995        0.0000000000000000     
   9.9814849999999997E-002  0.28081352999999998        0.0000000000000000     
  0.13945825000000001       0.78732252999999996        0.0000000000000000     
  0.44199519999999998       0.38275643999999998        0.0000000000000000     
  0.40132215999999998       0.36508836000000000        0.0000000000000000     
  0.43963142999999999       0.34043466999999999        0.0000000000000000     
  0.47160058999999999       0.33493045999999999        0.0000000000000000     
  0.45615203999999998       0.28038164999999998        0.0000000000000000     
  0.34321279999999998       0.35314412000000001        0.0000000000000000     
  0.29178279000000001       0.56170810000000004        0.0000000000000000     
  0.49833080000000002       0.48416767999999999        0.0000000000000000     
  0.46386271000000001       0.46452802999999998        0.0000000000000000     
  0.44722043000000000       0.45300645000000000        0.0000000000000000     
  0.46562803000000003       0.44419790999999997        0.0000000000000000     
  0.43925322000000000       0.48229485999999999        0.0000000000000000     
  0.49117628000000002       0.45665803999999999        0.0000000000000000     
  0.43435156000000003       0.46523363000000001        0.0000000000000000     
  0.19405754000000000       0.31093060000000000        0.0000000000000000     
  0.22069087000000001       0.66905079000000001        0.0000000000000000     
  0.30776597999999999       0.59042684000000001        0.0000000000000000     
  0.29541507000000000       0.57849362000000004        0.0000000000000000     
  0.28335474999999999       0.61970232999999997        0.0000000000000000     
  0.29935165000000002       0.62852803999999995        0.0000000000000000     
  0.28459435999999999       0.64121777000000002        0.0000000000000000     
  0.26698675999999999       0.63435282999999998        0.0000000000000000     
  0.24031983000000001       0.64700659000000005        0.0000000000000000     
  0.33118850000000000       0.50233682999999996        0.0000000000000000     
  0.35257061000000001       0.51072803000000000        0.0000000000000000     
  0.29038973000000001       0.78732479000000000        0.0000000000000000     
  0.28737915000000003       0.76752330999999996        0.0000000000000000     
  0.21978159000000000       0.73315437000000006        0.0000000000000000     
  0.18119734000000001       0.76257752999999995        0.0000000000000000     
  0.20353571000000001       0.75186065999999996        0.0000000000000000     
  0.39122694000000002       0.49007234000000000        0.0000000000000000     
  0.59140473999999998       0.13507609000000001        0.0000000000000000     
  0.53156702000000000        9.7663528999999999E-002   0.0000000000000000     
  0.76346223999999996       0.39657278000000001        0.0000000000000000     
  0.41119013999999998       0.52354409999999996        0.0000000000000000     
   7.2558165999999993E-002  0.26885883999999999        0.0000000000000000     
  0.10497347000000000       0.79895936000000001        0.0000000000000000     
[...]
 CELL_DATA        2963
 SCALARS Endothelial_cells float
 LOOKUP_TABLE default
    0.66336560907759090089E+00
    0.55386774851841458212E+00
    0.38648260806039319570E+00
    0.48367289246694722404E+00
    0.44450571766817059682E+00
    0.67363327137233675046E+00
    0.47111748186180335551E+00
    0.41586735146338144054E+00
    0.61069460878858128350E+00
    0.23148887299427328701E+00
    0.53966386373033792268E+00
    0.35031208652949880067E+00
    0.35360958560592009592E+00
    0.46081906301631125888E+00
    0.61023909307839463434E+00
    0.34566152234530533871E+00
    0.23499681732681362845E+00
    0.45670389068059324966E+00
    0.76698184368967414759E+00
    0.33241640552455181679E+00
    0.44848447264616070340E+00
    0.23600948556712184057E+00
    0.23689039854790577833E+00
    0.39237351581267265743E+00
    0.30795663186286292845E+00
    0.91975893078578330186E+00
    0.32386264887342164354E+00
    0.75752082522447683477E+00
    0.40348511927863106585E+00
    0.28087727553380692491E+00
    0.43643154768398867427E+00
    0.48820432673830327364E+00
    0.40981543534428860331E+00
    0.29633226741694457251E+00
    0.34347198349333213363E+00
    0.30035186299096755524E+00
    0.36290603838196999753E+00
    0.28366212631116144438E+00
    0.29862620437080095170E+00
    0.39990819725884718672E+00
    0.28750760118609763882E+00
    0.44002933055777199156E+00
    0.38300540293121093649E+00
    0.28813843022221602430E+00
    0.54206307631933470237E+00
    0.25711677437256535983E+00
    0.30121863014559308036E+00
    0.55987980775452583782E+00
    0.27891688338868397823E+00
    0.56669351806703738283E+00
    0.26671565739756514235E+00
    0.24299905194213289317E+00
    0.25627908459391118834E+00
    0.24750943209753248353E+00
    0.36114980652461353694E+00
    0.34958257359027739009E+00
    0.28193128498562253226E+00
    0.25132869788135864253E+00
    0.23714844093323109164E+00
    0.36915393082539865732E+00
    0.24277394529804707801E+00
    0.53736880145857490731E+00
    0.53901903816070118047E+00
    0.46798350654589027098E+00
    0.39999986497104000893E+00
    0.24975915526594186233E+00
    0.33058183230225141047E+00
    0.24010437625885433510E+00
    0.39987140859060898990E+00
    0.43945801267900613807E+00
    0.29330047300176120828E+00
    0.24668431426957906916E+00
    0.29211957933584903335E+00
    0.30900130148518861750E+00
    0.23197841702884894333E+00
    0.23191538342146200691E+00
    0.23353148898299080916E+00
    0.23359110874732838536E+00
    0.25812250630383570815E+00
    0.25401791597044121040E+00
    0.47649535308304069581E+00
    0.26330450294130458566E+00
    0.24005273848632141531E+00
    0.23055288287441272344E+00
    0.27453706441073660871E+00
    0.50481515657380615636E+00
    0.74101435977406571176E+00
    0.40007393275488517537E+00
    0.31939016795602087617E+00
    0.70445291990218639189E+00
    0.33850799338700682251E+00
    0.26534912010678679550E+00
    0.23642464588744910303E+00
    0.24856461634556825668E+00
    0.29409130357671042777E+00
    0.27267108155482039367E+00
    0.23399346863427764043E+00
    0.33263337029266026867E+00
    0.26914636212662823578E+00
    0.33751612307588013673E+00
    0.29916170401947989044E+00
    0.33116641808053176588E+00
    0.26446031250042445482E+00
    0.34077682533316788760E+00
    0.40004294733680817453E+00
    0.54118015710065825452E+00
    0.36131830256004998647E+00
    0.77411610367470140570E+00
    0.26119430599778975521E+00
    0.36482019519440161970E+00
    0.45012575338858717977E+00
    0.33074012110748551851E+00
    0.31503904817993283460E+00
    0.35804695330335845060E+00
    0.47557844543287186578E+00
    0.33887862134430413175E+00
    0.66595246565478516398E+00
    0.58088928279877016791E+00
    0.23055242747711374163E+00
    0.23738717416141330574E+00
    0.32970514730453853725E+00
    0.49263511159481343515E+00
    0.24231792366044949127E+00
    0.29486604635088980997E+00
    0.25260059351371294545E+00
    0.31354449804555811765E+00
    0.73204729601689433327E+00
    0.25396696536649709941E+00
    0.46459652940594853288E+00
    0.23729843645906331662E+00
    0.26121539543993815835E+00
    0.25625358053704139216E+00
    0.40013570901318012973E+00
    0.25906683831946852870E+00
    0.36411277753259257972E+00
    0.23890736774151061228E+00
    0.24014954069397667635E+00
    0.58939395964902974168E+00
    0.41336476482933726118E+00
    0.44328458937261572270E+00
    0.23601752859789992822E+00
    0.27884714124137027769E+00
    0.39987490984002271865E+00
    0.24011727541807534325E+00
    0.24580350761936164972E+00
    0.27458496058344405988E+00
    0.50252842760126481547E+00
    0.26549434137888644480E+00
    0.35801631320675686432E+00
    0.30680021778522126308E+00
    0.40449180256517119902E+00
    0.40008802972923551700E+00
    0.24607997836583914153E+00
    0.27995406573667630523E+00
    0.27032196250641271629E+00
    0.25663700300171610191E+00
    0.24928303464396570077E+00
    0.27364088551902060464E+00
    0.27402945725957716938E+00
    0.27090830912666491459E+00
    0.27361269600523735468E+00
    0.29741511168637047025E+00
    0.28970633800995021501E+00
    0.32130635583653827103E+00
    0.34247558326963967179E+00
    0.25249687201504139589E+00
    0.24813104685169820596E+00
    0.25126580796471975621E+00
    0.23133114521040182288E+00
    0.25812165276247600598E+00
    0.23067766891202798329E+00
    0.27831979150859353922E+00
    0.27093810716378408099E+00
    0.27351593527509759918E+00
    0.25771713083670622080E+00
    0.25121464430239942578E+00
    0.40802583491575528107E+00
    0.33878355624147088454E+00
    0.57472460874859887525E+00
    0.24186829937352208320E+00
    0.23132809896670683547E+00
    0.29177731919959043472E+00
    0.30485993231658559122E+00
    0.34744622130251412440E+00
    0.26081837800366602931E+00
    0.26359628339283686094E+00
    0.40001410442111207111E+00
    0.83494007074954923464E+00
    0.24351318211836067706E+00
    0.28697041407895235166E+00
    0.48997617344640648218E+00
    0.40007890903176640540E+00
    0.71330101457713668278E+00
    0.23990299557676250664E+00
    0.33911926320771040855E+00
    0.24671224925370588421E+00
    0.35816480180681503631E+00
    0.26165839901183063354E+00
    0.32017833397391964878E+00
    0.24907979731194446193E+00
    0.29760047496593305949E+00
    0.28359526576977645007E+00
    0.40757815479029918526E+00
    0.27004914380631350745E+00
    0.24597887338172880201E+00
    0.24180659278815311297E+00
    0.27822554989717201979E+00
    0.24125667520713828251E+00
    0.40009242750810419809E+00
    0.24079572893018608148E+00
    0.24896320450847880812E+00
    0.23752682958882984088E+00
    0.24366082197185975899E+00
    0.54651317726797943308E+00
    0.59332306356099129285E+00
    0.36255092212713668776E+00
    0.30136883872100317383E+00
    0.36587764544573420089E+00
    0.39998479896411920365E+00
    0.24718501243244167531E+00
    0.52268763024413122942E+00
    0.59147328032697399358E+00
    0.60073457599960355946E+00
    0.23801282478785779073E+00
    0.24234631803459863453E+00
    0.51136195044058885273E+00
    0.49690415235058438270E+00
    0.26294976020394972283E+00
    0.26229889870966760501E+00
    0.32588501969744554376E+00
    0.25422020134295447713E+00
    0.31083869227281885061E+00
    0.35707830384073258045E+00
    0.40001074776012823797E+00
    0.32362498586594229399E+00
    0.33862237355613378220E+00
    0.68407492336522568444E+00
    0.40009103361890985262E+00
    0.25163163861813303557E+00
    0.33777026178552294056E+00
    0.24697559036424920897E+00
    0.27907878792622531350E+00
    0.40002596619912278442E+00
    0.39983134267656822436E+00
    0.23253588533879371303E+00
    0.96788953818844247756E+00
    0.33840917355081290285E+00
    0.24369946752485593944E+00
    0.87920272478363248325E+00
    0.32990365220473283348E+00
    0.23015172205534165095E+00
    0.36385714235911215120E+00
    0.84823056668143137493E+00
    0.34491730482227439536E+00
    0.26864427806961765910E+00
    0.31181217140651162900E+00
    0.27218073680263832337E+00
    0.76028176654571610893E+00
    0.23092466158308316837E+00
    0.32967728998448569966E+00
    0.23037630103894160549E+00
    0.23066605911047949329E+00
    0.23058967290239282266E+00
    0.27561651148999405381E+00
    0.23343172319898533584E+00
    0.24791843674756458560E+00
    0.26736612030104384141E+00
    0.23082293875467221889E+00
    0.28366228623866368563E+00
    0.23749615684422145656E+00
    0.35253359059652367158E+00
    0.33270501998258694698E+00
    0.23112085645942556655E+00
    0.27285569371395784755E+00
    0.27194832897597281951E+00
    0.43948618168427655561E+00
    0.28270690669467440914E+00
    0.35341088724448793679E+00
    0.23934633879860839345E+00
    0.26511639653423346719E+00
    0.55593635189496759530E+00
    0.24719313749976537520E+00
    0.40000638461481485830E+00
    0.30500597211538488240E+00
    0.26396343633225965997E+00
    0.24484180154314308386E+00
    0.36196670711588058156E+00
    0.26683327380666904682E+00
    0.89437736156575131652E+00
    0.31118844696895092694E+00
    0.31656167918595001787E+00
    0.31507444871510120743E+00
    0.30964175183953107640E+00
    0.41652645092557077922E+00
    0.29122867848375350031E+00
    0.39994793595644090312E+00
    0.25640846008198986405E+00
    0.28482497164099512821E+00
    0.31719849693662338641E+00
    0.29284584522241524640E+00
    0.29169925687540854131E+00
    0.29032028832468081969E+00
    0.32058532343691470423E+00
    0.56651848845565111468E+00
    0.42080802537879591352E+00
    0.24513947596332477663E+00
    0.25981958320351522529E+00
    0.27981563335047937580E+00
    0.24551839438106468072E+00
    0.40001904853865793976E+00
    0.23609498107834447911E+00
    0.27919660423083514367E+00
    0.40002391950663368503E+00
    0.27627473409734371046E+00
    0.38544167425839404029E+00
    0.54923844342288874465E+00
    0.27008111370182757982E+00
    0.58903939077621869647E+00
    0.45252425801095980118E+00
    0.34680769158790697437E+00
    0.33954590379423810198E+00
    0.31699434877605653371E+00
    0.34747673989556143725E+00
    0.32564466441801781516E+00
    0.60021379951634190597E+00
    0.33745378506024131804E+00
    0.40020235098529705065E+00
    0.39997749994752590519E+00
    0.42523561100330564688E+00
    0.67888166168830543779E+00
    0.23995219836934172930E+00
    0.24879663614338773381E+00
    0.54228636148366116121E+00
    0.49662042994234384397E+00
    0.27508315486117457249E+00
    0.28409932661535647336E+00
    0.25417243718957527321E+00
    0.33090136568846906240E+00
    0.46854003973667801564E+00
    0.33875155812551732692E+00
    0.33729757102450647066E+00
    0.52127099133322984947E+00
    0.81303054800127405599E+00
    0.34111169130909085867E+00
    0.23037228993799574450E+00
    0.26847125173726410496E+00
    0.25682116483217931613E+00
    0.33881702169368405064E+00
    0.31261724790342487745E+00
    0.62603603583015809964E+00
    0.58192731832430288907E+00
    0.42048669512443581642E+00
    0.40724412442150415004E+00
    0.25449879924923352048E+00
    0.24658488078971466106E+00
    0.24496150226603410904E+00
    0.25713386647826264042E+00
    0.25456042000274831105E+00
    0.26082906034184727417E+00
    0.27488616177339492141E+00
    0.26080447793050604011E+00
    0.26569938850197094560E+00
    0.29842549205530838341E+00
    0.27411870168183616325E+00
    0.24966147890609771687E+00
    0.26669867931550095275E+00
    0.26695645594519978872E+00
    0.26085717329973029388E+00
    0.44888821873010636976E+00
    0.23438118046571623787E+00
    0.24347549190778536299E+00
    0.23667799196689831565E+00
    0.23924684481861435703E+00
    0.23855089721893052435E+00
    0.25001388857074352545E+00
    0.25322604349349320252E+00
    0.24333346468663855089E+00
    0.23268959335363831320E+00
    0.24718596824016442204E+00
    0.26042881588260008430E+00
    0.23865102710380040052E+00
    0.23342665497194184376E+00
    0.38356189602927664994E+00
    0.34994390289522925297E+00
    0.35853399815241421278E+00
    0.30427499519043427201E+00
    0.25566284909937403436E+00
    0.25080865659215612062E+00
    0.26834516700388899579E+00
    0.25186888157691389445E+00
    0.25923673690905707501E+00
    0.26900976389467290417E+00
    0.26823484803434688439E+00
    0.26265469599101975984E+00
    0.27317637166171404584E+00
    0.28152415292357624299E+00
    0.31084318879515870915E+00
    0.27764582049509084483E+00
    0.63195696657658728679E+00
    0.29064253537406009587E+00
    0.24268785058373926189E+00
    0.23713744504491385268E+00
    0.23199912410697051679E+00
    0.23375794604513014385E+00
    0.36370275105766403101E+00
    0.35829070467684714929E+00
    0.34594686944591718225E+00
    0.31921630964142133635E+00
    0.35362867794354108097E+00
    0.38159222816901944286E+00
    0.39824448108724208595E+00
    0.52096292807866517727E+00
    0.39200238557130862027E+00
    0.46744610253669599542E+00
    0.23042847098302710052E+00
    0.23058704905658758411E+00
    0.70799957354712672597E+00
    0.23547691989122843115E+00
    0.52512420072535803683E+00
    0.58931076020851491659E+00
    0.45358830478740141956E+00
    0.86076396209681449445E+00
    0.81074449434146500515E+00
    0.23236773258122342400E+00
    0.23140747587303442390E+00
    0.70026193214129950348E+00
    0.31097621048348783601E+00
    0.67354826944692369750E+00
    0.65328394100339293171E+00
    0.54574404516910157703E+00
    0.25449876993896186628E+00
    0.25158433421300135935E+00
    0.24441422900342363311E+00
    0.25094572788314961631E+00
    0.25674786895420226296E+00
    0.25023729897533725230E+00
    0.24554816584218175368E+00
    0.23975022250885441588E+00
    0.24099337992483857440E+00
    0.23927005844042512073E+00
    0.24367018196068979119E+00
    0.24267969734879532573E+00
    0.26277205998137559417E+00
    0.27694787909205176302E+00
    0.26767047337062471746E+00
    0.26382917312443693314E+00
    0.26547122457003879958E+00
    0.26721549648366071938E+00
    0.27155196077885668249E+00
    0.29126752676565498268E+00
    0.26841874206191412844E+00
    0.30579495525372535347E+00
    0.29828113079019402676E+00
    0.31140892766341404796E+00
    0.24704945048437546018E+00
    0.25183004714504608756E+00
    0.24281848305286113376E+00
    0.25721106625765605136E+00
    0.24715967590506643381E+00
    0.24968591463237413408E+00
    0.27509968100938408941E+00
    0.25435658239818770276E+00
    0.40112717003997105936E+00
    0.34710370061171308409E+00
    0.40375497819678057843E+00
    0.47462541281652936842E+00
    0.37810046982080863787E+00
    0.39750733743550237254E+00
    0.33346756024961105025E+00
    0.32971392900776924639E+00
    0.40825991188100752005E+00
    0.31730975984457654437E+00
    0.27925523974850319231E+00
    0.27612622569782691029E+00
    0.31572735546652003213E+00
    0.40000214541771111909E+00
    0.29745891973787236262E+00
    0.28574870400909474499E+00
    0.29627778943758076302E+00
    0.25873202355614832726E+00
    0.28559711361251172157E+00
    0.27891566473151346850E+00
    0.24504939093258543137E+00
    0.23525297221473204234E+00
    0.25052082109050133329E+00
    0.24758942257437160928E+00
    0.23778636040966527609E+00
    0.23447218475569955864E+00
    0.23961434210297988256E+00
    0.24567849652839043872E+00
    0.24278074528095558438E+00
    0.24127026347446872689E+00
    0.31390632614785207721E+00
    0.31990691943859633772E+00
    0.42182692626645595935E+00
    0.42094137090182565109E+00
    0.40022420797340690912E+00
    0.39999970553125147044E+00
    0.23149502611305106115E+00
    0.23265100189597168190E+00
    0.57537718783218783081E+00
    0.58257327768356770292E+00
    0.52956439542178534996E+00
    0.92275046665529536494E+00
    0.81063470229712397686E+00
    0.73789754209384228467E+00
    0.74549455641371997761E+00
    0.66883586239054837463E+00
    0.25672670155901339273E+00
    0.28548818553993426939E+00
    0.27210500251692026907E+00
    0.29037414253531240727E+00
    0.29152614690362199656E+00
    0.40030708211354443238E+00
    0.41458317728930343948E+00
    0.45828275588376710115E+00
    0.39999944532229630978E+00
    0.40010965802057735230E+00
    0.35179599782468479185E+00
    0.34075609330737827163E+00
    0.33426352281473831196E+00
    0.31892543439158632657E+00
    0.34318846873343794579E+00
    0.31693474664998233514E+00
    0.27810174795413755700E+00
    0.26643724084643677363E+00
    0.29634956513683707868E+00
    0.27341182096308519478E+00
    0.28034985751333735271E+00
    0.25153737069627807310E+00
    0.26872856756842872228E+00
    0.26056183491767614946E+00
    0.23349650834425572654E+00
    0.23797138003501572268E+00
    0.23486736267085148167E+00
    0.23931034399622613806E+00
    0.23527055193570484137E+00
    0.23313788654194572691E+00
    0.24876673825685360897E+00
    0.23894650761179248022E+00
    0.25398027752506308063E+00
    0.24838761509325713028E+00
    0.25933646960459200148E+00
    0.29101262778665820674E+00
    0.25710593464774794681E+00
    0.25446135073960551853E+00
    0.25817438929083025290E+00
    0.26281671574428400184E+00
    0.46214382508497481306E+00
    0.46036135625862889542E+00
    0.40375583362813038946E+00
    0.75073401104789638794E+00
    0.53913238963095577727E+00
    0.47697679558921768361E+00
    0.42811837062271540510E+00
    0.50667701836591283460E+00
    0.49438546665873683850E+00
    0.46316566545530241106E+00
    0.37925454289569676680E+00
    0.40936621368162695589E+00
    0.44246982825146202734E+00
    0.40095218886415062709E+00
    0.25394851210022278964E+00
    0.26964118219072225058E+00
    0.27567584925066113133E+00
    0.28004504742007585438E+00
    0.27658084000170263250E+00
    0.30244286520906232818E+00
    0.29148078591018555805E+00
    0.27792265930007536978E+00
    0.40002684103619029488E+00
    0.45095587848987983559E+00
    0.28686155075182834251E+00
    0.32375564773779297312E+00
    0.30095171291290145899E+00
    0.29240792356681055697E+00
    0.32021529243044333235E+00
    0.37902433695549819781E+00
    0.34569800784640070113E+00
    0.30795833239285030913E+00
    0.24973441809185004114E+00
    0.29517572400461922211E+00
    0.27667581640283461786E+00
    0.29979691167234095994E+00
    0.29520815368610031637E+00
    0.27998794439392393762E+00
    0.30567440075226320895E+00
    0.31889185035319389527E+00
    0.26704580668904986940E+00
    0.26482985841971051766E+00
    0.27491724312357468385E+00
    0.26041676899426147163E+00
    0.29148806148409595052E+00
    0.26527648338159037777E+00
    0.25774737558070642818E+00
    0.25277159188023201608E+00
    0.26013908270343305551E+00
    0.25714690426019592984E+00
    0.23823555515107555647E+00
    0.23513351366536416887E+00
    0.23200304228326526501E+00
    0.23428718157137420897E+00
    0.23098948836698934839E+00
    0.23130815276341679110E+00
    0.23958791800681250583E+00
    0.24401122045861944887E+00
    0.55232355629773732808E+00
    0.63597403178202838170E+00
    0.25224622790226797209E+00
    0.26169206338577910564E+00
    0.30827194772309146620E+00
    0.28934830670926259266E+00
    0.40000282072459830696E+00
    0.29176639541390519961E+00
    0.29484735317555632594E+00
    0.26752261011095912480E+00
    0.32296790684188031451E+00
    0.30383981113100988480E+00
    0.48650967164081804217E+00
    0.43753126282321103124E+00
    0.28701578354515638880E+00
    0.29978476705078049847E+00
    0.57649053638391689613E+00
    0.50117696673881073632E+00
    0.69338182511056534185E+00
    0.59606850625253327003E+00
    0.54048640234853750908E+00
    0.44315301162376852240E+00
    0.27889273664884800530E+00
    0.30697125905511862820E+00
    0.27014935680976576160E+00
    0.28236291375969052586E+00
    0.28155986150110473565E+00
    0.28076309566241008930E+00
    0.29936694789172707543E+00
    0.28937585230232570899E+00
    0.27901123928261839513E+00
    0.31069541941120232265E+00
    0.26017383425723522583E+00
    0.28328734443435032997E+00
    0.29057688620632493581E+00
    0.32398563156598447765E+00