# vtk DataFile Version 3.0
LAPLACIEN  2D
ASCII
DATASET UNSTRUCTURED_GRID
 POINTS        1616  float
  0.45880792999999997       0.87913892999999999        0.0000000000000000     
  0.40372658000000000       0.18243693000000000        0.0000000000000000     
  0.52563972999999997       0.19039755999999999        0.0000000000000000     
  0.45642953000000003       0.24226190000000000        0.0000000000000000     
  0.51984098000000001       0.24548566999999999        0.0000000000000000     
  0.21212766999999999       0.18957676000000001        0.0000000000000000     
  0.28573643999999998       0.48586826999999999        0.0000000000000000     
  0.49667887999999999       0.82979849000000006        0.0000000000000000     
  0.22848407000000001       0.23366793000000000        0.0000000000000000     
  0.27860389000000002       0.86069733000000004        0.0000000000000000     
  0.36563702999999997       0.80971340999999997        0.0000000000000000     
  0.28045499000000002       0.80393031999999998        0.0000000000000000     
  0.40374228000000001       0.78127665000000002        0.0000000000000000     
  0.56160891999999996       0.55341227999999998        0.0000000000000000     
  0.37210935000000001       0.26787699999999998        0.0000000000000000     
  0.49899838000000002       0.57286409999999999        0.0000000000000000     
  0.41023869000000002       0.33464665999999998        0.0000000000000000     
  0.33484156999999998       0.29151022999999998        0.0000000000000000     
  0.46758665999999999       0.58262307999999996        0.0000000000000000     
  0.43303693999999998       0.36569945999999998        0.0000000000000000     
  0.25741280000000000       0.61805882999999995        0.0000000000000000     
  0.28853707000000001       0.59423020000000004        0.0000000000000000     
  0.67837254000000002       0.45038665999999999        0.0000000000000000     
  0.42159046000000000       0.50697913999999999        0.0000000000000000     
  0.60276470999999998       0.73940291000000002        0.0000000000000000     
  0.30758273000000003       0.77844542000000005        0.0000000000000000     
  0.45367541000000000       0.31842187000000000        0.0000000000000000     
  0.36974101999999998       0.35807864000000000        0.0000000000000000     
  0.26919625000000003       0.65312176000000000        0.0000000000000000     
  0.61908110999999999       0.42741791000000001        0.0000000000000000     
  0.54442267000000000       0.74200747000000000        0.0000000000000000     
  0.58930464999999999       0.41588288000000001        0.0000000000000000     
  0.51511633000000001       0.74331579000000003        0.0000000000000000     
  0.12878382999999999       0.33122940000000001        0.0000000000000000     
  0.15534365000000000       0.71749246000000000        0.0000000000000000     
  0.64877724999999997       0.30161799000000000        0.0000000000000000     
  0.58853643000000000       0.28101930000000003        0.0000000000000000     
  0.56390348000000001       0.30132482999999999        0.0000000000000000     
  0.29605991999999998       0.44474459999999999        0.0000000000000000     
  0.29900669000000002       0.52983276000000001        0.0000000000000000     
  0.55954318999999997       0.48654808999999999        0.0000000000000000     
  0.42341458999999998       0.38785072999999998        0.0000000000000000     
  0.45806291999999998       0.35892998999999998        0.0000000000000000     
  0.47820750000000001       0.31147424000000001        0.0000000000000000     
  0.36344222999999998       0.38139388000000002        0.0000000000000000     
  0.17186508000000000       0.28159534000000003        0.0000000000000000     
  0.18029876000000000       0.33292397000000001        0.0000000000000000     
  0.20696366999999999       0.71822465999999996        0.0000000000000000     
  0.61326404999999995       0.34468346000000000        0.0000000000000000     
  0.29887186999999998       0.42337377999999998        0.0000000000000000     
  0.33271837999999998       0.44383096000000000        0.0000000000000000     
  0.31835012000000001       0.54267131999999996        0.0000000000000000     
  0.54882964999999995       0.45462609999999998        0.0000000000000000     
  0.20448143999999999       0.28717446000000002        0.0000000000000000     
  0.20634120000000000       0.33378063000000002        0.0000000000000000     
  0.23301781999999999       0.71859421999999995        0.0000000000000000     
  0.58606499999999995       0.35199907000000002        0.0000000000000000     
  0.20841100000000001       0.45369578999999999        0.0000000000000000     
  0.24778198000000001       0.77708496000000005        0.0000000000000000     
  0.30748062999999998       0.61002621000000001        0.0000000000000000     
  0.23337332000000000       0.41981835000000001        0.0000000000000000     
  0.25985113999999998       0.75924943000000000        0.0000000000000000     
  0.24610213000000000       0.40254353999999998        0.0000000000000000     
  0.37350351999999998       0.50127178999999999        0.0000000000000000     
  0.43235204999999999       0.78236391000000005        0.0000000000000000     
  0.30749858000000002       0.28582627999999999        0.0000000000000000     
  0.30336816000000000       0.64635111000000001        0.0000000000000000     
  0.31418906000000002       0.43625961000000002        0.0000000000000000     
  0.27223414000000001       0.78063022000000004        0.0000000000000000     
  0.22829299000000000       0.75089561000000005        0.0000000000000000     
  0.26580239000000000       0.42989294000000000        0.0000000000000000     
  0.37369119000000001       0.51975733999999996        0.0000000000000000     
  0.39681665999999999       0.51027884000000001        0.0000000000000000     
  0.32086795000000001       0.65137668999999998        0.0000000000000000     
  0.31757218999999998       0.62987181000000003        0.0000000000000000     
  0.32959777000000001       0.42500900000000003        0.0000000000000000     
  0.24663835000000001       0.74537787000000000        0.0000000000000000     
  0.26354222999999999       0.41075105000000001        0.0000000000000000     
  0.28343712999999998       0.43221330000000002        0.0000000000000000     
  0.34682245000000000       0.43182289000000001        0.0000000000000000     
  0.35306810000000000       0.45344571000000000        0.0000000000000000     
  0.57327218000000002       0.15829040000000000        0.0000000000000000     
  0.51473097999999995       0.12621746000000000        0.0000000000000000     
  0.72829681999999996       0.40151571000000003        0.0000000000000000     
  0.42703184999999999       0.53501600999999999        0.0000000000000000     
  0.32612607999999998       0.75472421999999995        0.0000000000000000     
   9.9814849999999997E-002  0.28081352999999998        0.0000000000000000     
  0.13945825000000001       0.78732252999999996        0.0000000000000000     
  0.44199519999999998       0.38275643999999998        0.0000000000000000     
  0.40132215999999998       0.36508836000000000        0.0000000000000000     
  0.43963142999999999       0.34043466999999999        0.0000000000000000     
  0.47160058999999999       0.33493045999999999        0.0000000000000000     
  0.45615203999999998       0.28038164999999998        0.0000000000000000     
  0.34321279999999998       0.35314412000000001        0.0000000000000000     
  0.29178279000000001       0.56170810000000004        0.0000000000000000     
  0.49833080000000002       0.48416767999999999        0.0000000000000000     
  0.46386271000000001       0.46452802999999998        0.0000000000000000     
  0.44722043000000000       0.45300645000000000        0.0000000000000000     
  0.46562803000000003       0.44419790999999997        0.0000000000000000     
  0.43925322000000000       0.48229485999999999        0.0000000000000000     
  0.49117628000000002       0.45665803999999999        0.0000000000000000     
  0.43435156000000003       0.46523363000000001        0.0000000000000000     
  0.19405754000000000       0.31093060000000000        0.0000000000000000     
  0.22069087000000001       0.66905079000000001        0.0000000000000000     
  0.30776597999999999       0.59042684000000001        0.0000000000000000     
  0.29541507000000000       0.57849362000000004        0.0000000000000000     
  0.28335474999999999       0.61970232999999997        0.0000000000000000     
  0.29935165000000002       0.62852803999999995        0.0000000000000000     
  0.28459435999999999       0.64121777000000002        0.0000000000000000     
  0.26698675999999999       0.63435282999999998        0.0000000000000000     
  0.24031983000000001       0.64700659000000005        0.0000000000000000     
  0.33118850000000000       0.50233682999999996        0.0000000000000000     
  0.35257061000000001       0.51072803000000000        0.0000000000000000     
  0.29038973000000001       0.78732479000000000        0.0000000000000000     
  0.28737915000000003       0.76752330999999996        0.0000000000000000     
  0.21978159000000000       0.73315437000000006        0.0000000000000000     
  0.18119734000000001       0.76257752999999995        0.0000000000000000     
  0.20353571000000001       0.75186065999999996        0.0000000000000000     
  0.39122694000000002       0.49007234000000000        0.0000000000000000     
  0.59140473999999998       0.13507609000000001        0.0000000000000000     
  0.53156702000000000        9.7663528999999999E-002   0.0000000000000000     
  0.76346223999999996       0.39657278000000001        0.0000000000000000     
  0.41119013999999998       0.52354409999999996        0.0000000000000000     
   7.2558165999999993E-002  0.26885883999999999        0.0000000000000000     
  0.10497347000000000       0.79895936000000001        0.0000000000000000     
[...]
 CELL_DATA        2963
 SCALARS Endothelial_cells float
 LOOKUP_TABLE default
    0.66880993816756240111E+00
    0.55487224200269258390E+00
    0.38359959693556477944E+00
    0.48236576954169418929E+00
    0.44491617775445629901E+00
    0.67398762954885682586E+00
    0.47036731618240207320E+00
    0.41576900449220977052E+00
    0.61497342683790146012E+00
    0.23141773904675547180E+00
    0.53997622686710733397E+00
    0.34851162241502436911E+00
    0.35361880498258863037E+00
    0.46075772817572918649E+00
    0.61318239493017334674E+00
    0.34473381665464353230E+00
    0.23494317474479226027E+00
    0.45727366062470742314E+00
    0.77197249819564939255E+00
    0.33219268444940058815E+00
    0.44856189574551941224E+00
    0.23593815750699867473E+00
    0.23683718245399532076E+00
    0.38848343658911727028E+00
    0.30717211274419847777E+00
    0.92510001085603055238E+00
    0.32390390584291911535E+00
    0.76450542369479035365E+00
    0.40272969253342388862E+00
    0.28082063348240732248E+00
    0.44224772213377855357E+00
    0.48784667297125605678E+00
    0.41026375007528420591E+00
    0.29630234107487235518E+00
    0.34326844260633809780E+00
    0.30044028937244221522E+00
    0.36290846077719557394E+00
    0.28330791266209637280E+00
    0.29866515713453395398E+00
    0.39993456971201574168E+00
    0.28756989439111324547E+00
    0.43985674998129942193E+00
    0.36742173219764678871E+00
    0.28858821358064840057E+00
    0.54202482599925660978E+00
    0.25686531255982197886E+00
    0.30082867726613521375E+00
    0.56026485950829596483E+00
    0.27938446071298922435E+00
    0.56662451373550504208E+00
    0.26643068826062060728E+00
    0.24281831408146753448E+00
    0.25634222319969329762E+00
    0.24742377732145737212E+00
    0.36125146023068560597E+00
    0.34589804786273126158E+00
    0.28207201115111524281E+00
    0.25126972817476345146E+00
    0.23708888630726879243E+00
    0.36875635702235798341E+00
    0.24263693019768900472E+00
    0.53736054475833150423E+00
    0.53871405267510064085E+00
    0.46745629182289238912E+00
    0.39999922120688868876E+00
    0.24976314249626327402E+00
    0.32979507031602239842E+00
    0.23992310125995836012E+00
    0.39992090514596934092E+00
    0.43936179126776608861E+00
    0.29326049560360817337E+00
    0.24663548369121035542E+00
    0.29209174053896075351E+00
    0.30880279294166107507E+00
    0.23191985821414554114E+00
    0.23185644501405516804E+00
    0.23349350070690752523E+00
    0.23345014552480658487E+00
    0.25805615013959137816E+00
    0.25427184680641579106E+00
    0.47605063663892377424E+00
    0.26298958470796085507E+00
    0.24000970549045400060E+00
    0.23054093708620634895E+00
    0.27430038503623160873E+00
    0.50588266707096574137E+00
    0.74105094705877450068E+00
    0.39999815188859461079E+00
    0.31808833088806354183E+00
    0.70558943908793536615E+00
    0.33821849710623963503E+00
    0.26543032297970831079E+00
    0.23628467676910083761E+00
    0.24822441118798746484E+00
    0.29415206584127845391E+00
    0.27262171794150052984E+00
    0.23391577556807849336E+00
    0.33159249459034201291E+00
    0.26900957435433447973E+00
    0.33648195779259981730E+00
    0.29900466958344640300E+00
    0.33136059154850167063E+00
    0.26439459255617109301E+00
    0.34039236430895275509E+00
    0.40001074732941199752E+00
    0.54066566661394432902E+00
    0.36085160787163661489E+00
    0.77940719896614574225E+00
    0.26111020353535602245E+00
    0.36426944499410035538E+00
    0.45086415286750319842E+00
    0.32974797824348922592E+00
    0.31497863532450653956E+00
    0.35810173751702412126E+00
    0.47504842292280513583E+00
    0.33868791695196759362E+00
    0.66579879886480408668E+00
    0.57983046849750563556E+00
    0.23050083443698374253E+00
    0.23714228677084403518E+00
    0.32958065029190514172E+00
    0.49257188410346602891E+00
    0.24215278733426504054E+00
    0.29462352607291547590E+00
    0.25258075851658712274E+00
    0.31319031166913130493E+00
    0.73257194886699616987E+00
    0.25400331893795363714E+00
    0.47352574113694156921E+00
    0.23727655937771602312E+00
    0.26096400319999529804E+00
    0.25609576076664808397E+00
    0.40021013791366483181E+00
    0.25851078494206758407E+00
    0.34898234796861310469E+00
    0.23880249336315062525E+00
    0.24006280556971404394E+00
    0.59486304622479202475E+00
    0.41310589991639989904E+00
    0.45155866664130572818E+00
    0.23590035243551948918E+00
    0.27883409342329551484E+00
    0.27685827683537428401E+00
    0.23986846645680082180E+00
    0.24568315921648115063E+00
    0.27446845526458113484E+00
    0.50252124813604570619E+00
    0.26540552070072304103E+00
    0.35787925476930776414E+00
    0.30642980065294556091E+00
    0.40379762595834622907E+00
    0.32416856992411408056E+00
    0.24601186356061208182E+00
    0.28017768255660618903E+00
    0.26969780702816681384E+00
    0.25656082998345919322E+00
    0.24922580207628491911E+00
    0.27320076163600759411E+00
    0.27378548125482277120E+00
    0.27055642081076342054E+00
    0.27349434742219147498E+00
    0.29722153092674979957E+00
    0.28931265236118242079E+00
    0.32012686610854651503E+00
    0.34233341734855093907E+00
    0.25241250255423242077E+00
    0.24807027411371021519E+00
    0.25085059732544112698E+00
    0.23134188666323438066E+00
    0.25794517376622411176E+00
    0.23062992826405540048E+00
    0.27822943545532868859E+00
    0.27069892597993044925E+00
    0.27331258096086297193E+00
    0.25761787400332980535E+00
    0.25120232773467532361E+00
    0.40815121216604560717E+00
    0.33746711246025035136E+00
    0.57873665109456462474E+00
    0.24181240900620867840E+00
    0.23125952049138748245E+00
    0.29188263141192516414E+00
    0.30474316054734928993E+00
    0.34764280676798720027E+00
    0.26093105789302795117E+00
    0.26362332656645359741E+00
    0.39999686299510661680E+00
    0.83941085092251710442E+00
    0.24342472690478469954E+00
    0.28666199145752530031E+00
    0.49034335755105445953E+00
    0.39971490556321098708E+00
    0.71337277811931842919E+00
    0.23983511782594349460E+00
    0.33559362440638484948E+00
    0.24659549244117423550E+00
    0.33421575071392950473E+00
    0.26151973930165545168E+00
    0.31896900591058940932E+00
    0.24902237964347512245E+00
    0.29771241131045173001E+00
    0.28327749195403506555E+00
    0.40687343416963966947E+00
    0.26988597646001460939E+00
    0.24586823629519966028E+00
    0.24174066548071632132E+00
    0.27808670179154981739E+00
    0.24117851582261654042E+00
    0.30243067515000987555E+00
    0.24051043374720937340E+00
    0.24892184677755269107E+00
    0.23747134763760210929E+00
    0.24356418109812821848E+00
    0.54923184094512389475E+00
    0.59827680620916179333E+00
    0.36225553916612673877E+00
    0.30136830576906786794E+00
    0.36389084408431510154E+00
    0.39996849251939670111E+00
    0.24700208543398194383E+00
    0.52322531791642956644E+00
    0.59665962097750291360E+00
    0.60342354966654243587E+00
    0.23797730787051776802E+00
    0.24236681798197401427E+00
    0.51183267828216250095E+00
    0.50141681802951199032E+00
    0.26282118122540348848E+00
    0.26227373453340946385E+00
    0.32398245737481340401E+00
    0.25406628155828364646E+00
    0.31057621083820391439E+00
    0.35673906277480066374E+00
    0.39203849652267308556E+00
    0.32325927983253577302E+00
    0.33889574150826756727E+00
    0.68565535402468602566E+00
    0.35443306445708711028E+00
    0.25151136031934889781E+00
    0.28836592149353956760E+00
    0.24701583449261949044E+00
    0.27894170912790883232E+00
    0.40003873599125100435E+00
    0.40000557105437062333E+00
    0.23244322597739650038E+00
    0.97175225544498478047E+00
    0.33795555316914055455E+00
    0.24335029608994551698E+00
    0.88681101977599874342E+00
    0.31327142955394854384E+00
    0.23007988652636734983E+00
    0.36295381266516696384E+00
    0.85226828369993479217E+00
    0.27672654395014045781E+00
    0.26868636290450476078E+00
    0.31143991720678804169E+00
    0.27198557408233087207E+00
    0.76876750406196281418E+00
    0.23087120958651483060E+00
    0.32960362104048696041E+00
    0.23030055351798117691E+00
    0.23066005583925391909E+00
    0.23054488761133740127E+00
    0.27545290304701369744E+00
    0.23331717029030199506E+00
    0.24786063281025239036E+00
    0.26595129203279432861E+00
    0.23076044058496986144E+00
    0.28393016747715033032E+00
    0.23734583477262929940E+00
    0.35230274904930997115E+00
    0.33047579849446673261E+00
    0.23103751112440498727E+00
    0.27297683707447778501E+00
    0.27187028701779103468E+00
    0.43950823337149941272E+00
    0.28264906210638990336E+00
    0.35304119324819521752E+00
    0.23904471220212838989E+00
    0.26513275681811254714E+00
    0.55648908293258569913E+00
    0.24683049534497239486E+00
    0.39999853371579113803E+00
    0.30460424992662882282E+00
    0.26386525861412318816E+00
    0.24479388202994650792E+00
    0.33019692804841316303E+00
    0.26715839722147405322E+00
    0.90299089386215747322E+00
    0.31086090733460403079E+00
    0.31656942686053485270E+00
    0.31499475586551661799E+00
    0.30963774350537537350E+00
    0.41611331109577254228E+00
    0.29133733545006962329E+00
    0.40005768730774193820E+00
    0.25608039091834405854E+00
    0.28464657331986809030E+00
    0.25603456074262198605E+00
    0.29294087997983664362E+00
    0.29153637462317716356E+00
    0.29028247274017221491E+00
    0.32015211485773947819E+00
    0.57033945024857923833E+00
    0.42587330071375850693E+00
    0.24506760411704914260E+00
    0.25969643591664837157E+00
    0.27981222519658471848E+00
    0.24540282750381897658E+00
    0.39999031197536327742E+00
    0.23610303382650205117E+00
    0.27907181799708619119E+00
    0.40026587504832589204E+00
    0.27622527434241367361E+00
    0.38265561660582647630E+00
    0.54845843109924352632E+00
    0.26994875702291865061E+00
    0.59886385314995072005E+00
    0.47650100802871858674E+00
    0.34648194925370556785E+00
    0.33943119539841648535E+00
    0.31654974984730238630E+00
    0.34745023496157584342E+00
    0.32563185782947984270E+00
    0.60457820283545493645E+00
    0.33638144900923139247E+00
    0.40000355594018682792E+00
    0.40005566074485687800E+00
    0.42953496121842976718E+00
    0.68383167929160204590E+00
    0.23986190997964865201E+00
    0.24886661303667359513E+00
    0.54280878349147576589E+00
    0.49622731611663684070E+00
    0.27486856949556659480E+00
    0.28393481025185524080E+00
    0.25378613403038124963E+00
    0.33073255733389239630E+00
    0.47206015497282022286E+00
    0.33840682668962956958E+00
    0.33686407113059102514E+00
    0.52561357655741225425E+00
    0.82520099330349905298E+00
    0.34101828418628893358E+00
    0.23030744258594287865E+00
    0.26834747209616977015E+00
    0.25671758129091853950E+00
    0.33835216194045553140E+00
    0.31222249481716624064E+00
    0.62547054166785476248E+00
    0.58134222576927907511E+00
    0.42004240304167989040E+00
    0.40591474740269778421E+00
    0.25452344807987903330E+00
    0.24640939378056495035E+00
    0.24484802388623116975E+00
    0.25694231657327076812E+00
    0.25446851066592213186E+00
    0.26078520103251351392E+00
    0.27499574768653456402E+00
    0.26080221252998253556E+00
    0.26563290597144106897E+00
    0.29842028673408638184E+00
    0.27404005174561257840E+00
    0.24966259660117032237E+00
    0.26668718155623249988E+00
    0.26677261268075325162E+00
    0.26072834396764787979E+00
    0.28222093859333341470E+00
    0.23429015875972183935E+00
    0.24348598154989900544E+00
    0.23652990925112840626E+00
    0.23915040229037415331E+00
    0.23855413459047811187E+00
    0.25015616859774081338E+00
    0.25193985902420451550E+00
    0.24319890998716303665E+00
    0.23257291059605494921E+00
    0.24707145385427783935E+00
    0.26050322675992004795E+00
    0.23851607350897552351E+00
    0.23342753387689438305E+00
    0.38101454317598487664E+00
    0.34978050005708788417E+00
    0.35766826458531558730E+00
    0.30390295558166025014E+00
    0.25559589306120727992E+00
    0.25082769544041316756E+00
    0.26816740907660718829E+00
    0.25171011328716003108E+00
    0.25907314468470349356E+00
    0.26886933425439146772E+00
    0.26821019832402476224E+00
    0.26259000180876368447E+00
    0.27289594613815482127E+00
    0.28110186224932809385E+00
    0.31074255454757110373E+00
    0.27754198334197416331E+00
    0.63243168207862521246E+00
    0.29002108425331918351E+00
    0.24268995130167822505E+00
    0.23704268214785517710E+00
    0.23192963917133660456E+00
    0.23366542813070220741E+00
    0.36314002882207691014E+00
    0.35784770184710018581E+00
    0.34588524149806781915E+00
    0.31881389397873921565E+00
    0.35342745743256520630E+00
    0.37984984040390640248E+00
    0.39665529210932781723E+00
    0.52056427353401180103E+00
    0.38954507065565824320E+00
    0.46808221050336756841E+00
    0.23035467433724413078E+00
    0.23058007730939358848E+00
    0.70981275132363919056E+00
    0.23537799096676356725E+00
    0.52550566768423589981E+00
    0.59316469021978068810E+00
    0.45316507480153633836E+00
    0.86922597828064085412E+00
    0.81826006400959661047E+00
    0.23225841400127744674E+00
    0.23137509363905425785E+00
    0.70159756256772276561E+00
    0.31079357813998714777E+00
    0.67396381923749404397E+00
    0.65364896389591831127E+00
    0.54559055709600368100E+00
    0.25457455230939651791E+00
    0.25141859808298677725E+00
    0.24433359312866606561E+00
    0.25087324943079447603E+00
    0.25657434660445044283E+00
    0.25019832292069205115E+00
    0.24548075127269286533E+00
    0.23954395209203738215E+00
    0.24095313096941109454E+00
    0.23890620535084924891E+00
    0.24358050156982369305E+00
    0.24261369927598941398E+00
    0.26262410287627790950E+00
    0.27682125675162233547E+00
    0.26795861090007350169E+00
    0.26352950907735361863E+00
    0.26526094670148114840E+00
    0.26717187967469813170E+00
    0.27140338579612599545E+00
    0.29087565363033435206E+00
    0.26825373696393256528E+00
    0.30559688559810493924E+00
    0.29814746212416487481E+00
    0.31145666887489253938E+00
    0.24693367986374198386E+00
    0.25168819249657198300E+00
    0.24273239424585629775E+00
    0.25706453271578633135E+00
    0.24698758677429885622E+00
    0.24955627505278044076E+00
    0.27243913940647779270E+00
    0.25428215401324427702E+00
    0.28115424556963825031E+00
    0.26343393276881332810E+00
    0.40220663246172344563E+00
    0.47521734109944235858E+00
    0.37687200635708295593E+00
    0.39239656633073000114E+00
    0.33210815455921643968E+00
    0.32788815330922382874E+00
    0.40733908435355037359E+00
    0.31690085353287922310E+00
    0.27909414088752593219E+00
    0.27591463710325175862E+00
    0.31527754813270464362E+00
    0.40000782194741035802E+00
    0.29782592004527741469E+00
    0.28566353243176623167E+00
    0.29568247629575439284E+00
    0.25855035978529605778E+00
    0.28528970462461450408E+00
    0.27875416519603990473E+00
    0.24494774887839318445E+00
    0.23514372163402524896E+00
    0.25043862416133411131E+00
    0.24747936197164466243E+00
    0.23770122229376736134E+00
    0.23439639157178382423E+00
    0.23967048365252299758E+00
    0.24560447662827386561E+00
    0.24272815295858835016E+00
    0.24124799887077080784E+00
    0.31318550860667443425E+00
    0.32005483670330270307E+00
    0.42151555598928608370E+00
    0.42077438482870399561E+00
    0.39999954016125205403E+00
    0.39999938831847936527E+00
    0.23142445035677602916E+00
    0.23256437197573881503E+00
    0.57900049433916833674E+00
    0.58306945549909205972E+00
    0.53029680731975215036E+00
    0.92896999330412322049E+00
    0.81754164929691541808E+00
    0.74010834679420511861E+00
    0.75176516252407910024E+00
    0.66854267187285865148E+00
    0.25670156456008619283E+00
    0.28544878629654985014E+00
    0.27210199362011050495E+00
    0.29012073626560841433E+00
    0.28399364686078870657E+00
    0.28314142923841201238E+00
    0.28119913747271457760E+00
    0.26706092437753559121E+00
    0.39999716220167713665E+00
    0.39999867500380198448E+00
    0.35114701482108140462E+00
    0.34018740681765008427E+00
    0.33379105178331452963E+00
    0.31854626854498002686E+00
    0.34294969198643254771E+00
    0.31679480368903706333E+00
    0.27816191167053672118E+00
    0.26652502026149327286E+00
    0.29631774307605557306E+00
    0.27330167060716231697E+00
    0.28006883600002618895E+00
    0.25141786737818228037E+00
    0.26845700924644405605E+00
    0.26066003515908220400E+00
    0.23343663662676200632E+00
    0.23790109021274608025E+00
    0.23472814011677717305E+00
    0.23922108567852962135E+00
    0.23529098487869168355E+00
    0.23301463449792689242E+00
    0.24868871141301363004E+00
    0.23878128634407622122E+00
    0.25383840539068369679E+00
    0.24827356498584848832E+00
    0.25921612799631660318E+00
    0.29089318099453270738E+00
    0.25703186446800119214E+00
    0.25434128295576013956E+00
    0.25806270175890916319E+00
    0.26272992075843615289E+00
    0.46240477779986233209E+00
    0.46057155112900238780E+00
    0.40246830499292068906E+00
    0.75495910957814482689E+00
    0.53901878500269928551E+00
    0.47705730344993402259E+00
    0.42721846817753844627E+00
    0.50644040423606195844E+00
    0.49445473995901523256E+00
    0.46296521673155716092E+00
    0.37831736723509595821E+00
    0.40832836134214162138E+00
    0.44276337282686833996E+00
    0.40016763233260821409E+00
    0.25398668858516454394E+00
    0.26958403739133346422E+00
    0.27558412886896371807E+00
    0.27986587557718101138E+00
    0.27660271492209870248E+00
    0.30249035404335561372E+00
    0.29115247329934063059E+00
    0.27789121147637702025E+00
    0.39772291200113119025E+00
    0.27075470739206941584E+00
    0.28659477715492720495E+00
    0.32347813311389034263E+00
    0.30054192481225144862E+00
    0.29204804337581752316E+00
    0.32036317426016686083E+00
    0.37068999362794174957E+00
    0.34515481437032541345E+00
    0.30767463165681402382E+00
    0.24968478212105588154E+00
    0.29524216136729736215E+00
    0.27663430381540105030E+00
    0.29992289807374011845E+00
    0.29483469884044688492E+00
    0.27981463129098510523E+00
    0.30565460392204718554E+00
    0.31887888054116586556E+00
    0.26699582895395113091E+00
    0.26487769332734867334E+00
    0.27484484199423137030E+00
    0.26024051356611688224E+00
    0.29133075920707596218E+00
    0.26527518721277343339E+00
    0.25766133214871184132E+00
    0.25268630745346565281E+00
    0.25993939963635653845E+00
    0.25719897037281913565E+00
    0.23805667947017786212E+00
    0.23510803351780032444E+00
    0.23189828581776117389E+00
    0.23414846329048366602E+00
    0.23094031192203581804E+00
    0.23122938233122478091E+00
    0.23954396345275572044E+00
    0.24388296871239972807E+00
    0.55252449731579578174E+00
    0.63650190258693561951E+00
    0.25212885321966288510E+00
    0.26162353161953899594E+00
    0.30815731112118976975E+00
    0.28904687073599560909E+00
    0.39176145250283245236E+00
    0.29158152684772520313E+00
    0.29448214796446936514E+00
    0.26759552515070827994E+00
    0.32275106584010754274E+00
    0.30369111734830711580E+00
    0.48584546438450693095E+00
    0.43653531110294907513E+00
    0.28702562646040247207E+00
    0.29975181151431828930E+00
    0.57827129949652422702E+00
    0.50094233593177894814E+00
    0.69234727816131014233E+00
    0.59653094704536280268E+00
    0.53873933117704109197E+00
    0.44331187257230897369E+00
    0.27862083127418124651E+00
    0.30681303156520273179E+00
    0.26954237346766285466E+00
    0.28235556154572721832E+00
    0.28115434411011247517E+00
    0.28066460358784084406E+00
    0.29936535886782061899E+00
    0.28928954382085192432E+00
    0.27883296649226607666E+00
    0.31083187711266818676E+00
    0.26005533015368242911E+00
    0.28318560560662697778E+00
    0.29036018331742807774E+00
    0.32373904974052314376E+00