# vtk DataFile Version 3.0
LAPLACIEN  2D
ASCII
DATASET UNSTRUCTURED_GRID
 POINTS        1616  float
  0.45880792999999997       0.87913892999999999        0.0000000000000000     
  0.40372658000000000       0.18243693000000000        0.0000000000000000     
  0.52563972999999997       0.19039755999999999        0.0000000000000000     
  0.45642953000000003       0.24226190000000000        0.0000000000000000     
  0.51984098000000001       0.24548566999999999        0.0000000000000000     
  0.21212766999999999       0.18957676000000001        0.0000000000000000     
  0.28573643999999998       0.48586826999999999        0.0000000000000000     
  0.49667887999999999       0.82979849000000006        0.0000000000000000     
  0.22848407000000001       0.23366793000000000        0.0000000000000000     
  0.27860389000000002       0.86069733000000004        0.0000000000000000     
  0.36563702999999997       0.80971340999999997        0.0000000000000000     
  0.28045499000000002       0.80393031999999998        0.0000000000000000     
  0.40374228000000001       0.78127665000000002        0.0000000000000000     
  0.56160891999999996       0.55341227999999998        0.0000000000000000     
  0.37210935000000001       0.26787699999999998        0.0000000000000000     
  0.49899838000000002       0.57286409999999999        0.0000000000000000     
  0.41023869000000002       0.33464665999999998        0.0000000000000000     
  0.33484156999999998       0.29151022999999998        0.0000000000000000     
  0.46758665999999999       0.58262307999999996        0.0000000000000000     
  0.43303693999999998       0.36569945999999998        0.0000000000000000     
  0.25741280000000000       0.61805882999999995        0.0000000000000000     
  0.28853707000000001       0.59423020000000004        0.0000000000000000     
  0.67837254000000002       0.45038665999999999        0.0000000000000000     
  0.42159046000000000       0.50697913999999999        0.0000000000000000     
  0.60276470999999998       0.73940291000000002        0.0000000000000000     
  0.30758273000000003       0.77844542000000005        0.0000000000000000     
  0.45367541000000000       0.31842187000000000        0.0000000000000000     
  0.36974101999999998       0.35807864000000000        0.0000000000000000     
  0.26919625000000003       0.65312176000000000        0.0000000000000000     
  0.61908110999999999       0.42741791000000001        0.0000000000000000     
  0.54442267000000000       0.74200747000000000        0.0000000000000000     
  0.58930464999999999       0.41588288000000001        0.0000000000000000     
  0.51511633000000001       0.74331579000000003        0.0000000000000000     
  0.12878382999999999       0.33122940000000001        0.0000000000000000     
  0.15534365000000000       0.71749246000000000        0.0000000000000000     
  0.64877724999999997       0.30161799000000000        0.0000000000000000     
  0.58853643000000000       0.28101930000000003        0.0000000000000000     
  0.56390348000000001       0.30132482999999999        0.0000000000000000     
  0.29605991999999998       0.44474459999999999        0.0000000000000000     
  0.29900669000000002       0.52983276000000001        0.0000000000000000     
  0.55954318999999997       0.48654808999999999        0.0000000000000000     
  0.42341458999999998       0.38785072999999998        0.0000000000000000     
  0.45806291999999998       0.35892998999999998        0.0000000000000000     
  0.47820750000000001       0.31147424000000001        0.0000000000000000     
  0.36344222999999998       0.38139388000000002        0.0000000000000000     
  0.17186508000000000       0.28159534000000003        0.0000000000000000     
  0.18029876000000000       0.33292397000000001        0.0000000000000000     
  0.20696366999999999       0.71822465999999996        0.0000000000000000     
  0.61326404999999995       0.34468346000000000        0.0000000000000000     
  0.29887186999999998       0.42337377999999998        0.0000000000000000     
  0.33271837999999998       0.44383096000000000        0.0000000000000000     
  0.31835012000000001       0.54267131999999996        0.0000000000000000     
  0.54882964999999995       0.45462609999999998        0.0000000000000000     
  0.20448143999999999       0.28717446000000002        0.0000000000000000     
  0.20634120000000000       0.33378063000000002        0.0000000000000000     
  0.23301781999999999       0.71859421999999995        0.0000000000000000     
  0.58606499999999995       0.35199907000000002        0.0000000000000000     
  0.20841100000000001       0.45369578999999999        0.0000000000000000     
  0.24778198000000001       0.77708496000000005        0.0000000000000000     
  0.30748062999999998       0.61002621000000001        0.0000000000000000     
  0.23337332000000000       0.41981835000000001        0.0000000000000000     
  0.25985113999999998       0.75924943000000000        0.0000000000000000     
  0.24610213000000000       0.40254353999999998        0.0000000000000000     
  0.37350351999999998       0.50127178999999999        0.0000000000000000     
  0.43235204999999999       0.78236391000000005        0.0000000000000000     
  0.30749858000000002       0.28582627999999999        0.0000000000000000     
  0.30336816000000000       0.64635111000000001        0.0000000000000000     
  0.31418906000000002       0.43625961000000002        0.0000000000000000     
  0.27223414000000001       0.78063022000000004        0.0000000000000000     
  0.22829299000000000       0.75089561000000005        0.0000000000000000     
  0.26580239000000000       0.42989294000000000        0.0000000000000000     
  0.37369119000000001       0.51975733999999996        0.0000000000000000     
  0.39681665999999999       0.51027884000000001        0.0000000000000000     
  0.32086795000000001       0.65137668999999998        0.0000000000000000     
  0.31757218999999998       0.62987181000000003        0.0000000000000000     
  0.32959777000000001       0.42500900000000003        0.0000000000000000     
  0.24663835000000001       0.74537787000000000        0.0000000000000000     
  0.26354222999999999       0.41075105000000001        0.0000000000000000     
  0.28343712999999998       0.43221330000000002        0.0000000000000000     
  0.34682245000000000       0.43182289000000001        0.0000000000000000     
  0.35306810000000000       0.45344571000000000        0.0000000000000000     
  0.57327218000000002       0.15829040000000000        0.0000000000000000     
  0.51473097999999995       0.12621746000000000        0.0000000000000000     
  0.72829681999999996       0.40151571000000003        0.0000000000000000     
  0.42703184999999999       0.53501600999999999        0.0000000000000000     
  0.32612607999999998       0.75472421999999995        0.0000000000000000     
   9.9814849999999997E-002  0.28081352999999998        0.0000000000000000     
  0.13945825000000001       0.78732252999999996        0.0000000000000000     
  0.44199519999999998       0.38275643999999998        0.0000000000000000     
  0.40132215999999998       0.36508836000000000        0.0000000000000000     
  0.43963142999999999       0.34043466999999999        0.0000000000000000     
  0.47160058999999999       0.33493045999999999        0.0000000000000000     
  0.45615203999999998       0.28038164999999998        0.0000000000000000     
  0.34321279999999998       0.35314412000000001        0.0000000000000000     
  0.29178279000000001       0.56170810000000004        0.0000000000000000     
  0.49833080000000002       0.48416767999999999        0.0000000000000000     
  0.46386271000000001       0.46452802999999998        0.0000000000000000     
  0.44722043000000000       0.45300645000000000        0.0000000000000000     
  0.46562803000000003       0.44419790999999997        0.0000000000000000     
  0.43925322000000000       0.48229485999999999        0.0000000000000000     
  0.49117628000000002       0.45665803999999999        0.0000000000000000     
  0.43435156000000003       0.46523363000000001        0.0000000000000000     
  0.19405754000000000       0.31093060000000000        0.0000000000000000     
  0.22069087000000001       0.66905079000000001        0.0000000000000000     
  0.30776597999999999       0.59042684000000001        0.0000000000000000     
  0.29541507000000000       0.57849362000000004        0.0000000000000000     
  0.28335474999999999       0.61970232999999997        0.0000000000000000     
  0.29935165000000002       0.62852803999999995        0.0000000000000000     
  0.28459435999999999       0.64121777000000002        0.0000000000000000     
  0.26698675999999999       0.63435282999999998        0.0000000000000000     
  0.24031983000000001       0.64700659000000005        0.0000000000000000     
  0.33118850000000000       0.50233682999999996        0.0000000000000000     
  0.35257061000000001       0.51072803000000000        0.0000000000000000     
  0.29038973000000001       0.78732479000000000        0.0000000000000000     
  0.28737915000000003       0.76752330999999996        0.0000000000000000     
  0.21978159000000000       0.73315437000000006        0.0000000000000000     
  0.18119734000000001       0.76257752999999995        0.0000000000000000     
  0.20353571000000001       0.75186065999999996        0.0000000000000000     
  0.39122694000000002       0.49007234000000000        0.0000000000000000     
  0.59140473999999998       0.13507609000000001        0.0000000000000000     
  0.53156702000000000        9.7663528999999999E-002   0.0000000000000000     
  0.76346223999999996       0.39657278000000001        0.0000000000000000     
  0.41119013999999998       0.52354409999999996        0.0000000000000000     
   7.2558165999999993E-002  0.26885883999999999        0.0000000000000000     
  0.10497347000000000       0.79895936000000001        0.0000000000000000     
[...]
 CELL_DATA        2963
 SCALARS Nutrients float
 LOOKUP_TABLE default
    0.31546539101499798674E+00
    0.30133403579307871389E+00
    0.27649769331628298863E+00
    0.28624646186927876768E+00
    0.28019815536926229171E+00
    0.32852013061783147396E+00
    0.29599977922715348111E+00
    0.27662784224570452496E+00
    0.30139711388940687575E+00
    0.15497267110050211292E+00
    0.30496507167962305651E+00
    0.27023481912992786125E+00
    0.26378390431773052205E+00
    0.29355413049066286790E+00
    0.30056877926827596514E+00
    0.25976845289603628375E+00
    0.16960489588074623146E+00
    0.29567563100867549908E+00
    0.33473122919401349096E+00
    0.26447917856102409750E+00
    0.29329516846728326263E+00
    0.11531358026310450926E+00
    0.10251648676484516332E+00
    0.27106988569899304053E+00
    0.24753474146653944854E+00
    0.37049660065158734890E+00
    0.24421179265638878753E+00
    0.33208235361636101457E+00
    0.28284973656210027348E+00
    0.21652576025461583997E+00
    0.29549261790736991440E+00
    0.29120093315302930659E+00
    0.28237281364237354353E+00
    0.23556171788855870264E+00
    0.25169642071799475103E+00
    0.23151571029419665271E+00
    0.27224837847634009158E+00
    0.22767549997714345289E+00
    0.23079453511971489976E+00
    0.25185243730552625552E+00
    0.22402823654524389729E+00
    0.27910895334674956647E+00
    0.26472744492811645101E+00
    0.22079537583639657905E+00
    0.29706070537414469568E+00
    0.20069821753554420440E+00
    0.23304930208925589419E+00
    0.29429028356188241533E+00
    0.21442783870793966083E+00
    0.29812745946184349144E+00
    0.21134263168811970313E+00
    0.19936314970752952447E+00
    0.20414569434730059361E+00
    0.20106478042619976843E+00
    0.27079948148236127059E+00
    0.25557376972452455766E+00
    0.21992163443114723376E+00
    0.21006730740663179247E+00
    0.17828232787499515011E+00
    0.27262840407639776785E+00
    0.18509131464313474669E+00
    0.30800086103191903764E+00
    0.31246869740324306752E+00
    0.28741946952806185500E+00
    0.27605703355573651958E+00
    0.19276962770878883213E+00
    0.25753285386381857824E+00
    0.18184372522000430417E+00
    0.18669547936723152048E+00
    0.29506664360374473821E+00
    0.22748826595586862931E+00
    0.18983688484280539233E+00
    0.24332418617928125437E+00
    0.23699380001899186809E+00
    0.15757479989217809679E+00
    0.15646328051221355948E+00
    0.11194663270555832435E+00
    0.17052746581777480928E+00
    0.20637810310481147225E+00
    0.19566978857351222110E+00
    0.28816854344057940551E+00
    0.20838341236205520923E+00
    0.18162150919879913036E+00
    0.13342627445505370054E+00
    0.22317468169637144637E+00
    0.30441732743660049332E+00
    0.33336133432538045396E+00
    0.27380189676363841933E+00
    0.25692897459787750192E+00
    0.33552004318471212452E+00
    0.25878831180367045661E+00
    0.20935847689573178210E+00
    0.10105375932431114039E+00
    0.20739844240171867451E+00
    0.23326541853981574981E+00
    0.21798186363367796914E+00
    0.11244249116787873033E+00
    0.26007106571060001343E+00
    0.21209928622896714878E+00
    0.26520102790804866988E+00
    0.24773073832633454860E+00
    0.25383950461772430973E+00
    0.20898835579530636308E+00
    0.26431358610168853573E+00
    0.26832220411415885764E+00
    0.31638423102019491706E+00
    0.26926808432153021000E+00
    0.33765446896495099338E+00
    0.20512688528382835851E+00
    0.27289584438678488043E+00
    0.29621162773284698266E+00
    0.26150922870960097155E+00
    0.24045007557547848354E+00
    0.26982737862738259693E+00
    0.29968352256868230343E+00
    0.26236914564458008181E+00
    0.33263540023426463321E+00
    0.31657474179544931037E+00
    0.13979036601152333708E+00
    0.18103763060678706998E+00
    0.25920347204408700215E+00
    0.30811681860778000752E+00
    0.19932816343336834386E+00
    0.23338089246222329387E+00
    0.20259425564892810656E+00
    0.24378849911275726758E+00
    0.33299874728053346917E+00
    0.19751362327483648618E+00
    0.30746564074863408367E+00
    0.17757076333095581089E+00
    0.21706871090808757541E+00
    0.21192387750912353162E+00
    0.24203328515437783075E+00
    0.21643333918396084892E+00
    0.25497540675574076330E+00
    0.18573236167528678342E+00
    0.18552057125889709344E+00
    0.33305885860666845089E+00
    0.28669023219266798197E+00
    0.30076749540153879803E+00
    0.17672806940007682042E+00
    0.22489831942471716353E+00
    0.14698851625140074706E+00
    0.18997017409622340978E+00
    0.19708287694692083747E+00
    0.22131981787502427728E+00
    0.30388688619626602616E+00
    0.21816660295856110663E+00
    0.26803498867241121184E+00
    0.22898752829856425239E+00
    0.28011537376187772841E+00
    0.17068596240634795191E+00
    0.19488251909502782300E+00
    0.22343408783055068723E+00
    0.23838668280204730610E+00
    0.20506962182602619937E+00
    0.20222734225922273099E+00
    0.23908137719319400016E+00
    0.23895341541734430035E+00
    0.23842985971699709458E+00
    0.23882649380554876739E+00
    0.24626309276870081422E+00
    0.23200921258262743874E+00
    0.25747194524224165102E+00
    0.26644336220310171903E+00
    0.20247952165735891294E+00
    0.20134643755922271291E+00
    0.21163553686575040103E+00
    0.14442787425923780953E+00
    0.21601451277127994843E+00
    0.12243551940322981719E+00
    0.23982650799490154436E+00
    0.21063285632473674469E+00
    0.21718041608284002764E+00
    0.20419646507238267685E+00
    0.20176357946114784059E+00
    0.28081159693236795727E+00
    0.26519342265160483763E+00
    0.29242329664138982936E+00
    0.19908849187480170961E+00
    0.15098204823209726566E+00
    0.22688912509780134741E+00
    0.23558500741306273585E+00
    0.26256498721174881261E+00
    0.20538058866227973387E+00
    0.20683690604675331048E+00
    0.26764901823523751245E+00
    0.36493893466543186888E+00
    0.19046849717923772238E+00
    0.22375583062657561362E+00
    0.28941663596766792343E+00
    0.22042904314547709377E+00
    0.33370630181773258682E+00
    0.19866895457317781948E+00
    0.26104733367130422694E+00
    0.20093571399299586799E+00
    0.24108725847761039440E+00
    0.21567115389706748019E+00
    0.25041974024630281326E+00
    0.20202037435107642049E+00
    0.22911970265327050167E+00
    0.22321609800039027283E+00
    0.28449691979314994938E+00
    0.21397451861456392996E+00
    0.10243362223316333781E+00
    0.10059151355290002483E+00
    0.22228055258285558948E+00
    0.10002305872414921084E+00
    0.19200815244177352192E+00
    0.19897328546077205913E+00
    0.20105908823115398176E+00
    0.11392475281892956718E+00
    0.11325638776420568488E+00
    0.28969800895853531353E+00
    0.30178454142366994972E+00
    0.27132299612595750515E+00
    0.23657285572809405583E+00
    0.26873680887457879196E+00
    0.27237119961563865944E+00
    0.18959063616928556462E+00
    0.29745809960100677571E+00
    0.29907143950939130139E+00
    0.32807798951071515114E+00
    0.17938062774756924345E+00
    0.18372503594985897801E+00
    0.29154286604485685208E+00
    0.31089051525861260972E+00
    0.21749838618343739216E+00
    0.21722156417945856499E+00
    0.26004897900937573585E+00
    0.21370253663530128230E+00
    0.24060094785757046854E+00
    0.27045095282591197217E+00
    0.27069250887389501026E+00
    0.25360553469695040762E+00
    0.26454799140718099348E+00
    0.32214457292419040879E+00
    0.25934761386157545449E+00
    0.12422857969925438226E+00
    0.16665973968344266476E+00
    0.18819481952523112178E+00
    0.21876330439662855509E+00
    0.26192375400653794548E+00
    0.24320325260820721547E+00
    0.11023218354911692995E+00
    0.37137362800514728267E+00
    0.26570946597745792594E+00
    0.19864895327506770784E+00
    0.36417582172099388638E+00
    0.22140965605678328276E+00
    0.13463306295824725711E+00
    0.27119440069629369150E+00
    0.36250605757411696883E+00
    0.14312203657437699844E+00
    0.21895184417080104655E+00
    0.24464843066328756382E+00
    0.21662565738051456354E+00
    0.36115054564682042004E+00
    0.11600878022423966041E+00
    0.25656203571574137667E+00
    0.12254529491193935642E+00
    0.12828220389131869683E+00
    0.13409283061117585611E+00
    0.21566997184275724098E+00
    0.10555380531827976420E+00
    0.20104107815841787410E+00
    0.12599019530586155757E+00
    0.12125658699065797186E+00
    0.20346570300528324382E+00
    0.10023692143925019837E+00
    0.26998634557446749005E+00
    0.26448024344609583069E+00
    0.11520821165467071134E+00
    0.19502248107253353226E+00
    0.19234890094110274061E+00
    0.29209828370560597666E+00
    0.22225135240359733535E+00
    0.26523715637731154482E+00
    0.19861296381480372797E+00
    0.18944988901583273422E+00
    0.31818874814268555129E+00
    0.20543296375079025951E+00
    0.27308438625945469225E+00
    0.24856000264169569869E+00
    0.18812053412787113627E+00
    0.19984953785474829369E+00
    0.25011185142822062177E+00
    0.19058810291748731758E+00
    0.35587250509832990542E+00
    0.25085919547121554585E+00
    0.25203099247566052021E+00
    0.25133784404151138236E+00
    0.22319311104497252529E+00
    0.28457382687045273961E+00
    0.22398105408814120154E+00
    0.26443843663065202954E+00
    0.18239875289415993787E+00
    0.24141613744378259687E+00
    0.11564498475267294408E+00
    0.21395397313158120989E+00
    0.23102550138785521439E+00
    0.20614902537592491583E+00
    0.24228948689572646358E+00
    0.31399590835692398061E+00
    0.28500654737223374280E+00
    0.20003869596968851252E+00
    0.17494526462846968218E+00
    0.22025509060852990761E+00
    0.14191117208496348279E+00
    0.26130450507540531335E+00
    0.17525380827690695273E+00
    0.22197413871182683498E+00
    0.27233941317244891867E+00
    0.19791895042499976776E+00
    0.27708131555110149247E+00
    0.31851901695707857121E+00
    0.21381443866783964025E+00
    0.31855477370928259040E+00
    0.29917030929322990795E+00
    0.26562083682739612289E+00
    0.25798427891315178773E+00
    0.25312267419484357767E+00
    0.26244711673135834307E+00
    0.25876165813542145733E+00
    0.30798886131211999917E+00
    0.25926270644881649341E+00
    0.28020154834757626805E+00
    0.24222621216132309008E+00
    0.28649582122978800580E+00
    0.32112485594409417855E+00
    0.18103203265346748396E+00
    0.19028725230202464536E+00
    0.30569363153227835372E+00
    0.29970861562483619434E+00
    0.22410507341428645423E+00
    0.22208660077515349207E+00
    0.21461582681866681055E+00
    0.25136244675120100744E+00
    0.29738324144613298428E+00
    0.25458711083130269870E+00
    0.26411199238451182891E+00
    0.30718833136320572441E+00
    0.34131121351319482216E+00
    0.26014339141056985749E+00
    0.13793007024989417664E+00
    0.18665945386184321086E+00
    0.20191425164318343999E+00
    0.26002449503745073134E+00
    0.25160892947029650513E+00
    0.32551394276498957225E+00
    0.32027121507012573653E+00
    0.28928727373165896708E+00
    0.28596531933824398397E+00
    0.20346518372718477852E+00
    0.20041344911148420427E+00
    0.20034024252945520361E+00
    0.20715191652815256873E+00
    0.20462873297627262592E+00
    0.20877505279680233508E+00
    0.21224329681291370653E+00
    0.20720716872460534508E+00
    0.21132503084399489879E+00
    0.23100317215768670365E+00
    0.21563806681824862488E+00
    0.20131277309926604024E+00
    0.21011274598808399316E+00
    0.21838101364910592062E+00
    0.21190959953029098184E+00
    0.15080772473429934766E+00
    0.10338486931501705834E+00
    0.10045696409921273107E+00
    0.10202110482317153228E+00
    0.99999998583744323377E-01
    0.10095374012705639333E+00
    0.10387162721918177799E+00
    0.11065681558021696340E+00
    0.10312737179730918635E+00
    0.10714516718480100732E+00
    0.10227464498881512489E+00
    0.11625106441179483552E+00
    0.10050154668486657727E+00
    0.10591317948815361094E+00
    0.27474690308009314110E+00
    0.27012058488284046431E+00
    0.26550132422305627866E+00
    0.23707135235527601602E+00
    0.20975625411763551553E+00
    0.20544884280870759352E+00
    0.21793541458081006068E+00
    0.20476339501778362262E+00
    0.21575198035172529765E+00
    0.22055870605535293771E+00
    0.21993697107150694814E+00
    0.21687059485425921879E+00
    0.22215901354893843878E+00
    0.22773800439275795893E+00
    0.24454480080187410151E+00
    0.22520400392884487584E+00
    0.32507904343027632654E+00
    0.23237956441477286562E+00
    0.18615187456505249974E+00
    0.17682522902988109803E+00
    0.15470305621536525886E+00
    0.16527367007184914915E+00
    0.26908089625869086037E+00
    0.26911153196892834139E+00
    0.26611052616116126490E+00
    0.25643009542530709188E+00
    0.26815828116686990512E+00
    0.27686508902756801209E+00
    0.27998353890000471367E+00
    0.31312163894681221965E+00
    0.27966159560028136521E+00
    0.30117267996262780949E+00
    0.14170288601652331062E+00
    0.12878873887940828213E+00
    0.33027289370797163759E+00
    0.17532810963860698261E+00
    0.29049720995439781701E+00
    0.29757189197603051145E+00
    0.28147629277109981194E+00
    0.35614976219694322035E+00
    0.36571256733684875950E+00
    0.11271440070377379550E+00
    0.11692986138787550554E+00
    0.32697513655156001944E+00
    0.25253875280271220749E+00
    0.33000432648732014318E+00
    0.33037159919129577279E+00
    0.31865317230282341754E+00
    0.20274545597505130856E+00
    0.20228524317929311160E+00
    0.20002213605097127203E+00
    0.20307876051636852832E+00
    0.20636930155143118348E+00
    0.20244309545976565956E+00
    0.20049404304368481644E+00
    0.19864003097016075250E+00
    0.19894064058312754817E+00
    0.19856970798437867387E+00
    0.19975981206342030561E+00
    0.19946679513402368333E+00
    0.21040927040258150527E+00
    0.21842551926830616749E+00
    0.20846263476232626544E+00
    0.20814149060160525018E+00
    0.21059267868401207457E+00
    0.20986201334940970953E+00
    0.21529120274444152328E+00
    0.22734346767552482405E+00
    0.21384520442783588878E+00
    0.23514038697363195962E+00
    0.23108073810751428301E+00
    0.23836792538640572126E+00
    0.20056470258697717268E+00
    0.20297395087770211952E+00
    0.19503654857037169834E+00
    0.20642784732338095854E+00
    0.20379713953796396719E+00
    0.20133750669623437513E+00
    0.13487846117063759244E+00
    0.11081929502181941949E+00
    0.15026640749934155883E+00
    0.12432143785267678326E+00
    0.28264284705997150260E+00
    0.30011619804718803195E+00
    0.27534237593848442938E+00
    0.27803280963022658501E+00
    0.26744254515302373632E+00
    0.26517906208765462672E+00
    0.28341475622808987023E+00
    0.24670489978808168852E+00
    0.22519000984465983861E+00
    0.22278385448527360246E+00
    0.24475807477097624720E+00
    0.26788916876724394589E+00
    0.23481565550930150188E+00
    0.22650007101426572476E+00
    0.23454089664639807267E+00
    0.20958223245122267753E+00
    0.22731381269908607079E+00
    0.22205941885507313183E+00
    0.19077905212986129291E+00
    0.17082987287680220789E+00
    0.19935873210497723207E+00
    0.19246059827685499388E+00
    0.17796804560119461325E+00
    0.16963583859755040906E+00
    0.17984045658071534657E+00
    0.18906840991616466474E+00
    0.18498449054101137601E+00
    0.18253479832887678502E+00
    0.25424285160167681141E+00
    0.25503112980698311452E+00
    0.28906986000738443821E+00
    0.28991934420020537555E+00
    0.27820673927446698537E+00
    0.28105547805465647127E+00
    0.11468807369446239186E+00
    0.10780318940789129778E+00
    0.29402644462288685112E+00
    0.29969895867807783141E+00
    0.29000088296893966611E+00
    0.36895617822975190769E+00
    0.36546702489855698026E+00
    0.33610799481896486141E+00
    0.33284305758880100568E+00
    0.33369620341277195230E+00
    0.20652199478436769620E+00
    0.22447479151992641433E+00
    0.21580819432034387129E+00
    0.22756998536031924907E+00
    0.15842868405248392016E+00
    0.15613221759929096777E+00
    0.15227650327837360944E+00
    0.13374165801260784470E+00
    0.27969681877301783013E+00
    0.28109192027338247843E+00
    0.26932370890029194710E+00
    0.26858140728022228405E+00
    0.25498807320476762905E+00
    0.25008745655308328715E+00
    0.25878073525051414894E+00
    0.24351946668720189648E+00
    0.22279486217682104021E+00
    0.21572281293240846978E+00
    0.23180993367520388859E+00
    0.21945434253548651293E+00
    0.22191827003382502692E+00
    0.19731427365443016120E+00
    0.21435038485032961719E+00
    0.20972194806887903273E+00
    0.16425764723696639757E+00
    0.17972932988350698302E+00
    0.17152505854869964930E+00
    0.17967009738763869975E+00
    0.17124976913139797197E+00
    0.16750536425384315864E+00
    0.19342352390958250652E+00
    0.17881445283446345540E+00
    0.19922615572741209089E+00
    0.19241727297807997843E+00
    0.20467734279807381359E+00
    0.22864434246864553946E+00
    0.20183444349921028649E+00
    0.19942459071897589151E+00
    0.20377084805677928014E+00
    0.20743910424817996185E+00
    0.30093119383639121978E+00
    0.30030977650188711570E+00
    0.28446310993840784320E+00
    0.33673388949273330706E+00
    0.31726496045108759647E+00
    0.30416806158840248298E+00
    0.29278536981552094609E+00
    0.31076656998661195130E+00
    0.30736768626882493560E+00
    0.30075568877693903413E+00
    0.27693704362593596358E+00
    0.28712977752386098507E+00
    0.29504619742597343324E+00
    0.28226092520541379294E+00
    0.20475133658207486653E+00
    0.21458114532857722190E+00
    0.21828785599882893909E+00
    0.22116379612322853432E+00
    0.21864614660063591556E+00
    0.23356602158291808746E+00
    0.22799057286941129541E+00
    0.21956136065478046304E+00
    0.15867356529377846242E+00
    0.13696253540759587009E+00
    0.22949840850624211863E+00
    0.24643061237622393422E+00
    0.23651788879754531703E+00
    0.23219618514776113605E+00
    0.24529149795295110414E+00
    0.26421636025932454528E+00
    0.25486529485246295357E+00
    0.23772706785770214566E+00
    0.19628571497337887752E+00
    0.23075522620152322251E+00
    0.21908982921559030932E+00
    0.23376263060262836291E+00
    0.23170332173657956498E+00
    0.22231260258353180426E+00
    0.23694904173226608024E+00
    0.24276884789539446285E+00
    0.21377526933811716314E+00
    0.21149120689382563953E+00
    0.21864538130792232629E+00
    0.20693289295876349243E+00
    0.22875340832873619634E+00
    0.21095003717999186166E+00
    0.20394133956462240365E+00
    0.20054999660588745947E+00
    0.20796830200127450206E+00
    0.20441829200027358815E+00
    0.17764499703683905851E+00
    0.16993832930296784434E+00
    0.16009038654880208830E+00
    0.16823618123018263537E+00
    0.14759947771873116462E+00
    0.15273925468457169585E+00
    0.18086915914345211287E+00
    0.18751711204300536284E+00
    0.31831437764653569555E+00
    0.32602579586880359175E+00
    0.19867297899158264940E+00
    0.20686850032654804932E+00
    0.23781145468263464871E+00
    0.22792965114013188921E+00
    0.26663659447201332187E+00
    0.22933221100157497041E+00
    0.23129212975863699953E+00
    0.21160468961375003549E+00
    0.24555426036558453129E+00
    0.23603405045003000851E+00
    0.30522744401334522824E+00
    0.29383464302561906889E+00
    0.22586049005433106451E+00
    0.23315537262693386555E+00
    0.32202789704425749395E+00
    0.30872859377410799553E+00
    0.33433775528400411226E+00
    0.32358593022253051563E+00
    0.31544769882865814070E+00
    0.29393159488496145570E+00
    0.24027437331111156649E+00
    0.24864106582909667464E+00
    0.23834902011528200094E+00
    0.24061489938157490376E+00
    0.24113988404856054326E+00
    0.24015922405443712595E+00
    0.24629174409452087025E+00
    0.24278247427486743248E+00
    0.19118971768004427991E+00
    0.22954398519330285189E+00
    0.18580792003678414659E+00
    0.20378211001721199813E+00
    0.21060471282714596231E+00
    0.23903129166971451292E+00