# vtk DataFile Version 3.0
LAPLACIEN  2D
ASCII
DATASET UNSTRUCTURED_GRID
 POINTS        1616  float
  0.45880792999999997       0.87913892999999999        0.0000000000000000     
  0.40372658000000000       0.18243693000000000        0.0000000000000000     
  0.52563972999999997       0.19039755999999999        0.0000000000000000     
  0.45642953000000003       0.24226190000000000        0.0000000000000000     
  0.51984098000000001       0.24548566999999999        0.0000000000000000     
  0.21212766999999999       0.18957676000000001        0.0000000000000000     
  0.28573643999999998       0.48586826999999999        0.0000000000000000     
  0.49667887999999999       0.82979849000000006        0.0000000000000000     
  0.22848407000000001       0.23366793000000000        0.0000000000000000     
  0.27860389000000002       0.86069733000000004        0.0000000000000000     
  0.36563702999999997       0.80971340999999997        0.0000000000000000     
  0.28045499000000002       0.80393031999999998        0.0000000000000000     
  0.40374228000000001       0.78127665000000002        0.0000000000000000     
  0.56160891999999996       0.55341227999999998        0.0000000000000000     
  0.37210935000000001       0.26787699999999998        0.0000000000000000     
  0.49899838000000002       0.57286409999999999        0.0000000000000000     
  0.41023869000000002       0.33464665999999998        0.0000000000000000     
  0.33484156999999998       0.29151022999999998        0.0000000000000000     
  0.46758665999999999       0.58262307999999996        0.0000000000000000     
  0.43303693999999998       0.36569945999999998        0.0000000000000000     
  0.25741280000000000       0.61805882999999995        0.0000000000000000     
  0.28853707000000001       0.59423020000000004        0.0000000000000000     
  0.67837254000000002       0.45038665999999999        0.0000000000000000     
  0.42159046000000000       0.50697913999999999        0.0000000000000000     
  0.60276470999999998       0.73940291000000002        0.0000000000000000     
  0.30758273000000003       0.77844542000000005        0.0000000000000000     
  0.45367541000000000       0.31842187000000000        0.0000000000000000     
  0.36974101999999998       0.35807864000000000        0.0000000000000000     
  0.26919625000000003       0.65312176000000000        0.0000000000000000     
  0.61908110999999999       0.42741791000000001        0.0000000000000000     
  0.54442267000000000       0.74200747000000000        0.0000000000000000     
  0.58930464999999999       0.41588288000000001        0.0000000000000000     
  0.51511633000000001       0.74331579000000003        0.0000000000000000     
  0.12878382999999999       0.33122940000000001        0.0000000000000000     
  0.15534365000000000       0.71749246000000000        0.0000000000000000     
  0.64877724999999997       0.30161799000000000        0.0000000000000000     
  0.58853643000000000       0.28101930000000003        0.0000000000000000     
  0.56390348000000001       0.30132482999999999        0.0000000000000000     
  0.29605991999999998       0.44474459999999999        0.0000000000000000     
  0.29900669000000002       0.52983276000000001        0.0000000000000000     
  0.55954318999999997       0.48654808999999999        0.0000000000000000     
  0.42341458999999998       0.38785072999999998        0.0000000000000000     
  0.45806291999999998       0.35892998999999998        0.0000000000000000     
  0.47820750000000001       0.31147424000000001        0.0000000000000000     
  0.36344222999999998       0.38139388000000002        0.0000000000000000     
  0.17186508000000000       0.28159534000000003        0.0000000000000000     
  0.18029876000000000       0.33292397000000001        0.0000000000000000     
  0.20696366999999999       0.71822465999999996        0.0000000000000000     
  0.61326404999999995       0.34468346000000000        0.0000000000000000     
  0.29887186999999998       0.42337377999999998        0.0000000000000000     
  0.33271837999999998       0.44383096000000000        0.0000000000000000     
  0.31835012000000001       0.54267131999999996        0.0000000000000000     
  0.54882964999999995       0.45462609999999998        0.0000000000000000     
  0.20448143999999999       0.28717446000000002        0.0000000000000000     
  0.20634120000000000       0.33378063000000002        0.0000000000000000     
  0.23301781999999999       0.71859421999999995        0.0000000000000000     
  0.58606499999999995       0.35199907000000002        0.0000000000000000     
  0.20841100000000001       0.45369578999999999        0.0000000000000000     
  0.24778198000000001       0.77708496000000005        0.0000000000000000     
  0.30748062999999998       0.61002621000000001        0.0000000000000000     
  0.23337332000000000       0.41981835000000001        0.0000000000000000     
  0.25985113999999998       0.75924943000000000        0.0000000000000000     
  0.24610213000000000       0.40254353999999998        0.0000000000000000     
  0.37350351999999998       0.50127178999999999        0.0000000000000000     
  0.43235204999999999       0.78236391000000005        0.0000000000000000     
  0.30749858000000002       0.28582627999999999        0.0000000000000000     
  0.30336816000000000       0.64635111000000001        0.0000000000000000     
  0.31418906000000002       0.43625961000000002        0.0000000000000000     
  0.27223414000000001       0.78063022000000004        0.0000000000000000     
  0.22829299000000000       0.75089561000000005        0.0000000000000000     
  0.26580239000000000       0.42989294000000000        0.0000000000000000     
  0.37369119000000001       0.51975733999999996        0.0000000000000000     
  0.39681665999999999       0.51027884000000001        0.0000000000000000     
  0.32086795000000001       0.65137668999999998        0.0000000000000000     
  0.31757218999999998       0.62987181000000003        0.0000000000000000     
  0.32959777000000001       0.42500900000000003        0.0000000000000000     
  0.24663835000000001       0.74537787000000000        0.0000000000000000     
  0.26354222999999999       0.41075105000000001        0.0000000000000000     
  0.28343712999999998       0.43221330000000002        0.0000000000000000     
  0.34682245000000000       0.43182289000000001        0.0000000000000000     
  0.35306810000000000       0.45344571000000000        0.0000000000000000     
  0.57327218000000002       0.15829040000000000        0.0000000000000000     
  0.51473097999999995       0.12621746000000000        0.0000000000000000     
  0.72829681999999996       0.40151571000000003        0.0000000000000000     
  0.42703184999999999       0.53501600999999999        0.0000000000000000     
  0.32612607999999998       0.75472421999999995        0.0000000000000000     
   9.9814849999999997E-002  0.28081352999999998        0.0000000000000000     
  0.13945825000000001       0.78732252999999996        0.0000000000000000     
  0.44199519999999998       0.38275643999999998        0.0000000000000000     
  0.40132215999999998       0.36508836000000000        0.0000000000000000     
  0.43963142999999999       0.34043466999999999        0.0000000000000000     
  0.47160058999999999       0.33493045999999999        0.0000000000000000     
  0.45615203999999998       0.28038164999999998        0.0000000000000000     
  0.34321279999999998       0.35314412000000001        0.0000000000000000     
  0.29178279000000001       0.56170810000000004        0.0000000000000000     
  0.49833080000000002       0.48416767999999999        0.0000000000000000     
  0.46386271000000001       0.46452802999999998        0.0000000000000000     
  0.44722043000000000       0.45300645000000000        0.0000000000000000     
  0.46562803000000003       0.44419790999999997        0.0000000000000000     
  0.43925322000000000       0.48229485999999999        0.0000000000000000     
  0.49117628000000002       0.45665803999999999        0.0000000000000000     
  0.43435156000000003       0.46523363000000001        0.0000000000000000     
  0.19405754000000000       0.31093060000000000        0.0000000000000000     
  0.22069087000000001       0.66905079000000001        0.0000000000000000     
  0.30776597999999999       0.59042684000000001        0.0000000000000000     
  0.29541507000000000       0.57849362000000004        0.0000000000000000     
  0.28335474999999999       0.61970232999999997        0.0000000000000000     
  0.29935165000000002       0.62852803999999995        0.0000000000000000     
  0.28459435999999999       0.64121777000000002        0.0000000000000000     
  0.26698675999999999       0.63435282999999998        0.0000000000000000     
  0.24031983000000001       0.64700659000000005        0.0000000000000000     
  0.33118850000000000       0.50233682999999996        0.0000000000000000     
  0.35257061000000001       0.51072803000000000        0.0000000000000000     
  0.29038973000000001       0.78732479000000000        0.0000000000000000     
  0.28737915000000003       0.76752330999999996        0.0000000000000000     
  0.21978159000000000       0.73315437000000006        0.0000000000000000     
  0.18119734000000001       0.76257752999999995        0.0000000000000000     
  0.20353571000000001       0.75186065999999996        0.0000000000000000     
  0.39122694000000002       0.49007234000000000        0.0000000000000000     
  0.59140473999999998       0.13507609000000001        0.0000000000000000     
  0.53156702000000000        9.7663528999999999E-002   0.0000000000000000     
  0.76346223999999996       0.39657278000000001        0.0000000000000000     
  0.41119013999999998       0.52354409999999996        0.0000000000000000     
   7.2558165999999993E-002  0.26885883999999999        0.0000000000000000     
  0.10497347000000000       0.79895936000000001        0.0000000000000000     
[...]
 CELL_DATA        2963
 SCALARS Nutrients float
 LOOKUP_TABLE default
    0.31550649233791111525E+00
    0.30155602732419950485E+00
    0.27653295185511356236E+00
    0.28633606047959636598E+00
    0.28029832507819735232E+00
    0.32857915013418231842E+00
    0.29602154001583924625E+00
    0.27678081289765776862E+00
    0.30142751651100946342E+00
    0.15621839023339437191E+00
    0.30508473623900439486E+00
    0.27027988665161128967E+00
    0.26379996517921644461E+00
    0.29367301262317668797E+00
    0.30060151886044345071E+00
    0.25978101551002213965E+00
    0.17073881714997687919E+00
    0.29571236928033339808E+00
    0.33480666661207908463E+00
    0.26458809768126706485E+00
    0.29337745226741118731E+00
    0.11617653477234621273E+00
    0.10223971654069423376E+00
    0.27118543422521518282E+00
    0.24778912812495929030E+00
    0.37169204715369841274E+00
    0.24433808240440360593E+00
    0.33214988794332400701E+00
    0.28289227710872344446E+00
    0.21659511568970596374E+00
    0.29611866504654876797E+00
    0.29121554263137527929E+00
    0.28246247968633042547E+00
    0.23593039567830942360E+00
    0.25179033075175361045E+00
    0.23164865425556072087E+00
    0.27230787979463844106E+00
    0.22812582776401310602E+00
    0.23079874969285779640E+00
    0.25298615013652536732E+00
    0.22403366642305144740E+00
    0.27919610625419755134E+00
    0.26489554181946745048E+00
    0.22088115618649309391E+00
    0.29708329125116089697E+00
    0.20148153427493609158E+00
    0.23305359257170590870E+00
    0.29432360962862547105E+00
    0.21449074151165326008E+00
    0.29815511097282121344E+00
    0.21198280522473889054E+00
    0.19937142632221827032E+00
    0.20415280362081000831E+00
    0.20108429942909866739E+00
    0.27083436227172869026E+00
    0.25623979084059694822E+00
    0.21992680467332750838E+00
    0.21051071291939499330E+00
    0.17936808507779350430E+00
    0.27264170080933319840E+00
    0.18608422649128028570E+00
    0.30818383337952093282E+00
    0.31249401787266262165E+00
    0.28743188374490369341E+00
    0.27611671096689349714E+00
    0.19365693621029975158E+00
    0.25776929176492080487E+00
    0.18288705389124751410E+00
    0.18665163895107550474E+00
    0.29509299289828194723E+00
    0.22749254431612819793E+00
    0.19075837687200872250E+00
    0.24335820343963224244E+00
    0.23704537436881184531E+00
    0.15882750075857904326E+00
    0.15773364927330923990E+00
    0.11273781774212436602E+00
    0.17168291906488153398E+00
    0.20638648025310216139E+00
    0.19652394303245926399E+00
    0.28818523276920582354E+00
    0.20905745335489755998E+00
    0.18266196582478952393E+00
    0.13444728233658348460E+00
    0.22348686797815300875E+00
    0.30451816687371296988E+00
    0.33346306059396407795E+00
    0.27394441932681518059E+00
    0.25710189811768480173E+00
    0.33556873402822778862E+00
    0.25887416028801318868E+00
    0.21002623949103746415E+00
    0.10098801063224514818E+00
    0.20789239399357320459E+00
    0.23346149749775949034E+00
    0.21841492106530030481E+00
    0.11327211995837072056E+00
    0.26014069943589435141E+00
    0.21214961145362976058E+00
    0.26522410008190289155E+00
    0.24774768050472145697E+00
    0.25394694941953072087E+00
    0.20963029382437176062E+00
    0.26436518749371035186E+00
    0.26911950697684755562E+00
    0.31642196063272337581E+00
    0.26932104711862964175E+00
    0.33771136855412187128E+00
    0.20585066480707511771E+00
    0.27292065945547627770E+00
    0.29625031719287736598E+00
    0.26152553703501851823E+00
    0.24045475309052091739E+00
    0.26984527425809984313E+00
    0.29970368750636716682E+00
    0.26238338234015490258E+00
    0.33267394992151583244E+00
    0.31660566482184099302E+00
    0.14093106695820026286E+00
    0.18199722995433278983E+00
    0.25921816511378875658E+00
    0.30814096319099709698E+00
    0.19934515047550219191E+00
    0.23377166178158864662E+00
    0.20260173228787942135E+00
    0.24408687641049919836E+00
    0.33306854154073078922E+00
    0.19833589303563325945E+00
    0.30839232369864422179E+00
    0.17865685635073852433E+00
    0.21736351893272221059E+00
    0.21235488375577171727E+00
    0.24317457679887988231E+00
    0.21673807976893885718E+00
    0.25569371479594038554E+00
    0.18662096825903612407E+00
    0.18642180763431115409E+00
    0.33391785247792021840E+00
    0.28670555069324871189E+00
    0.30158855925834998635E+00
    0.17783021599276932490E+00
    0.22514501776469295069E+00
    0.14583306761436296006E+00
    0.19078773519772868061E+00
    0.19779151261179436783E+00
    0.22158101864439264106E+00
    0.30396320940006682498E+00
    0.21845105902010419907E+00
    0.26804823570681801659E+00
    0.23008459765917618767E+00
    0.28020558636093056970E+00
    0.17063461005711724749E+00
    0.19564000117130436740E+00
    0.22368132626511544325E+00
    0.23841100127086389815E+00
    0.20509973995465452523E+00
    0.20223953989020046484E+00
    0.23911228604130133069E+00
    0.23897492910177384196E+00
    0.23845195548700365284E+00
    0.23885363546262733392E+00
    0.24628343706617333853E+00
    0.23222715077950276119E+00
    0.25783147630677899498E+00
    0.26647181315820445136E+00
    0.20311648321229308634E+00
    0.20135544335987046183E+00
    0.21204020260303807488E+00
    0.14576736306865761827E+00
    0.21632772952574066960E+00
    0.12320546482504927954E+00
    0.23984800192818508946E+00
    0.21068305603501913392E+00
    0.21774802539969981274E+00
    0.20422754029138542875E+00
    0.20178790313981836979E+00
    0.28093449409373333348E+00
    0.26523313517796748284E+00
    0.29252495286307328426E+00
    0.19909749562642081733E+00
    0.15229492773218153423E+00
    0.22698525622272067159E+00
    0.23573680895769122401E+00
    0.26258531095907539088E+00
    0.20541519559339682655E+00
    0.20687550716371044812E+00
    0.26830993550655340973E+00
    0.36598307624260872917E+00
    0.19129995230390417493E+00
    0.22376053073875584731E+00
    0.28956188642907465525E+00
    0.22139005487694901619E+00
    0.33378462872862324495E+00
    0.19868024643989487532E+00
    0.26180177317708180906E+00
    0.20094568828596159893E+00
    0.24194709683903267705E+00
    0.21604845209619760737E+00
    0.25068303073292946825E+00
    0.20203849025132025741E+00
    0.22924146689540256250E+00
    0.22327350672201437543E+00
    0.28454768401918051346E+00
    0.21457438297185565945E+00
    0.10176718812770103872E+00
    0.10028259626901571411E+00
    0.22279102236512415836E+00
    0.10000001261973583133E+00
    0.19198666349394036268E+00
    0.19898869887714623617E+00
    0.20108154816724954639E+00
    0.11454119366922915768E+00
    0.11322501131749822256E+00
    0.28976185083864358649E+00
    0.30198946101396978436E+00
    0.27136042975446178493E+00
    0.23693403920211067448E+00
    0.26912441638364875685E+00
    0.27319174973483117963E+00
    0.19052598495827133274E+00
    0.29766191878528214243E+00
    0.29924732307135676335E+00
    0.32867252742032887491E+00
    0.18045400153527285658E+00
    0.18474602359590819312E+00
    0.29168270609674440408E+00
    0.31153861796940390816E+00
    0.21780985835057389832E+00
    0.21752571508051368743E+00
    0.26044917005608503313E+00
    0.21406648684140203165E+00
    0.24078562739934863957E+00
    0.27047453076777216996E+00
    0.27136799532949712477E+00
    0.25381626912218535619E+00
    0.26504178380958720584E+00
    0.32219114564938178269E+00
    0.26020324512900300240E+00
    0.12420097901029085452E+00
    0.16588519914826077573E+00
    0.18915417503466255833E+00
    0.21883192885445426623E+00
    0.26309516745142602634E+00
    0.24412542502625983465E+00
    0.11073434855252967113E+00
    0.37259552333965639814E+00
    0.26630202450886947263E+00
    0.19931277133340452590E+00
    0.36557089177465640351E+00
    0.22202807262299584234E+00
    0.13578982451394563946E+00
    0.27128044162728598421E+00
    0.36346898290511880925E+00
    0.14186149020827110157E+00
    0.21922835825853345670E+00
    0.24479028670927965861E+00
    0.21720369604425579513E+00
    0.36243710355292668712E+00
    0.11666407405928326535E+00
    0.25664904705367358462E+00
    0.12338169013043311095E+00
    0.12943154669781378741E+00
    0.13534383036727623550E+00
    0.21573210668698947212E+00
    0.10568791063991073154E+00
    0.20106184130944079747E+00
    0.12453202177922344240E+00
    0.12225707040297000006E+00
    0.20497776392220581898E+00
    0.10021306829994561238E+00
    0.27005851037725703279E+00
    0.26513655742160630036E+00
    0.11591778397490544450E+00
    0.19666129912275759350E+00
    0.19398137247372287950E+00
    0.29213771446253034014E+00
    0.22231626925165567932E+00
    0.26530457266063245392E+00
    0.19862550867255865383E+00
    0.19116271889022237729E+00
    0.31822938817203016981E+00
    0.20596628947559803002E+00
    0.27338902552223248721E+00
    0.24865547649420860488E+00
    0.18983436674287815227E+00
    0.19985748985999465810E+00
    0.25093979514901221251E+00
    0.19228675793987046183E+00
    0.35738923106291026199E+00
    0.25097304533997022435E+00
    0.25213301975178858960E+00
    0.25142479887846613806E+00
    0.22442002932618290711E+00
    0.28459098800086041203E+00
    0.22407853917865744320E+00
    0.26566392466297428232E+00
    0.18417137323930812820E+00
    0.24145529872882803835E+00
    0.11405338405897873233E+00
    0.21529753903421769423E+00
    0.23131644809837637045E+00
    0.20758989811251626900E+00
    0.24314917102924293868E+00
    0.31469779700809813461E+00
    0.28572141284525837124E+00
    0.20005786438052350351E+00
    0.17672163660936540674E+00
    0.22027026349201569988E+00
    0.14330993326090182838E+00
    0.26238074602350769382E+00
    0.17629963764481607069E+00
    0.22248638756771135783E+00
    0.27348387688506115012E+00
    0.19951347184119144762E+00
    0.27712076996814560825E+00
    0.31854437233435439758E+00
    0.21441135626468552089E+00
    0.31985274004991270935E+00
    0.30074379360914560433E+00
    0.26563527248770518741E+00
    0.25847478478221153075E+00
    0.25326865543360410626E+00
    0.26273800829331828144E+00
    0.25877668982149132360E+00
    0.30810728020257105442E+00
    0.25963452054671709579E+00
    0.28038987763334005665E+00
    0.24343392535262931009E+00
    0.28710897676902319420E+00
    0.32136243697719785173E+00
    0.18206568278619411627E+00
    0.19121624316522667364E+00
    0.30582118352621251445E+00
    0.29982373890260155536E+00
    0.22438297919580887929E+00
    0.22209275678241735541E+00
    0.21495240940653831396E+00
    0.25203188575155566209E+00
    0.29793352665902789189E+00
    0.25459577779945635756E+00
    0.26412990579304868044E+00
    0.30784737147533242085E+00
    0.34274996698122361938E+00
    0.26023191031888281977E+00
    0.13919564432718464775E+00
    0.18834034216498346526E+00
    0.20265962935353992735E+00
    0.26033945954599607697E+00
    0.25163468867275756713E+00
    0.32557043543902292049E+00
    0.32032157531811861206E+00
    0.28931831399961349671E+00
    0.28599093708060613350E+00
    0.20349281949732214714E+00
    0.20043402989660227820E+00
    0.20035371956768421864E+00
    0.20717076953724852806E+00
    0.20465476469426846506E+00
    0.20880573994442752639E+00
    0.21229908308987080479E+00
    0.20724339448912593165E+00
    0.21136542337475075493E+00
    0.23109579536842408953E+00
    0.21564449537386801148E+00
    0.20132027011725905918E+00
    0.21011927153703247040E+00
    0.21874238978570006986E+00
    0.21238022735052006218E+00
    0.14974109002656396661E+00
    0.10343416861240037341E+00
    0.10030403253088618354E+00
    0.10178232091010827598E+00
    0.10000000187054509937E+00
    0.10060051982900120038E+00
    0.10314652238322989664E+00
    0.10926262419925232561E+00
    0.10229124178023549230E+00
    0.10734283807386851839E+00
    0.10172171821926175028E+00
    0.11493201573204855914E+00
    0.10022777149164033283E+00
    0.10602428182148362912E+00
    0.27482396240202999760E+00
    0.27017490071551764075E+00
    0.26557806201929518020E+00
    0.23732583795074893573E+00
    0.21023636166639939060E+00
    0.20599932663179981729E+00
    0.21832149341343454196E+00
    0.20533940800990910236E+00
    0.21609387000716237526E+00
    0.22086010599982847102E+00
    0.22023014360267312295E+00
    0.21721593916690301596E+00
    0.22242473108484381306E+00
    0.22798087065160216325E+00
    0.24468477309898631344E+00
    0.22548769243750382829E+00
    0.32513388931811121330E+00
    0.23260953241505041844E+00
    0.18706769970924572166E+00
    0.17791375649746773990E+00
    0.15599504322644902610E+00
    0.16645729561768093929E+00
    0.26909710289518262716E+00
    0.26912486063438167960E+00
    0.26612730433291265086E+00
    0.25644478377614593478E+00
    0.26820356792904614940E+00
    0.27689856038832300067E+00
    0.28001214863968343360E+00
    0.31315454147579119271E+00
    0.27968395122083899995E+00
    0.30120383236332159971E+00
    0.14291767556584802912E+00
    0.12971052288628021065E+00
    0.33076955206437586021E+00
    0.17644184821544825481E+00
    0.29060555533626070135E+00
    0.29773142393545998230E+00
    0.28155789596593072677E+00
    0.35765958824840621277E+00
    0.36686912745327859842E+00
    0.11351027313907696703E+00
    0.11785402942686058758E+00
    0.32702771897269661272E+00
    0.25255412814268130006E+00
    0.33006944143713617956E+00
    0.33041959425734723776E+00
    0.31867985575772578288E+00
    0.20277276614633440999E+00
    0.20231001210639198984E+00
    0.20003819799860508843E+00
    0.20309627206298189184E+00
    0.20639584490199436306E+00
    0.20246398684168034898E+00
    0.20050951423906662741E+00
    0.19864945740601988589E+00
    0.19895510601876131851E+00
    0.19858008871519713945E+00
    0.19976986652907999242E+00
    0.19947839734138250734E+00
    0.21043795131127862597E+00
    0.21848400633310502417E+00
    0.20850644448694316546E+00
    0.20818234057346010624E+00
    0.21063582349271006700E+00
    0.20990801626366242805E+00
    0.21533838548759037801E+00
    0.22743112901525927572E+00
    0.21387829947312786416E+00
    0.23522043917533044799E+00
    0.23116040451064595596E+00
    0.23850569813622479742E+00
    0.20057251760009831010E+00
    0.20298261839789891181E+00
    0.19576919954054144979E+00
    0.20700992059292588898E+00
    0.20436613006246276414E+00
    0.20197829806606906744E+00
    0.13350398358375079044E+00
    0.10955823734011875537E+00
    0.14917946985759944489E+00
    0.12275740401824238035E+00
    0.28271172851277498461E+00
    0.30017272572071751480E+00
    0.27539712765473967071E+00
    0.27809353130557434852E+00
    0.26751804142661955721E+00
    0.26527797203897851563E+00
    0.28346321382707884151E+00
    0.24684494881328708504E+00
    0.22550196063236688238E+00
    0.22312558551872271884E+00
    0.24491994245897941163E+00
    0.26804335908161830426E+00
    0.23503801998686749131E+00
    0.22685071152494973301E+00
    0.23477355057651513870E+00
    0.21009517210112549357E+00
    0.22764026604401246812E+00
    0.22245783519266401629E+00
    0.19162086341023876201E+00
    0.17194536642024477180E+00
    0.20005326919541160935E+00
    0.19330840391724371519E+00
    0.17898987482732181542E+00
    0.17075793953616552612E+00
    0.18085799734190455279E+00
    0.18998271815585746070E+00
    0.18597212271161872588E+00
    0.18353436198680814218E+00
    0.25425767490539408211E+00
    0.25504698506618206366E+00
    0.28908501599885233491E+00
    0.28994733117633636477E+00
    0.27826196559495502969E+00
    0.28109428880125914008E+00
    0.11517690993999449289E+00
    0.10802076701673743453E+00
    0.29414900174509617248E+00
    0.29988387363185420309E+00
    0.29009163845010782490E+00
    0.37026272852122776857E+00
    0.36666491856166738561E+00
    0.33616283455800077817E+00
    0.33291242877489796159E+00
    0.33374032598739444833E+00
    0.20653561928030927941E+00
    0.22451291886050284141E+00
    0.21584830097978738306E+00
    0.22759595981878966153E+00
    0.15747644945107672210E+00
    0.15521126106662894162E+00
    0.15147874003289468758E+00
    0.13223125582352912577E+00
    0.27977311282775785273E+00
    0.28114988770607141078E+00
    0.26940694866570080723E+00
    0.26864971142427152007E+00
    0.25509666662655910985E+00
    0.25020172941145568668E+00
    0.25887873399090072235E+00
    0.24371628085199287250E+00
    0.22315437876252466887E+00
    0.21614434085026579258E+00
    0.23213460228304985677E+00
    0.21985230552648257762E+00
    0.22236190110196732417E+00
    0.19808881268037639711E+00
    0.21485935775826672800E+00
    0.21024650806459713182E+00
    0.16544573609426921346E+00
    0.18071877174204978300E+00
    0.17266369721989616171E+00
    0.18071360980249834283E+00
    0.17238713291338791933E+00
    0.16868248609662250814E+00
    0.19427075710235028327E+00
    0.17985149984746387486E+00
    0.19999774376897602735E+00
    0.19329662284208706802E+00
    0.20536846398956157267E+00
    0.22907821629360666793E+00
    0.20259299580114820127E+00
    0.20020902150286482013E+00
    0.20446345583423178316E+00
    0.20811085937741100049E+00
    0.30095518203859061845E+00
    0.30033060480325135533E+00
    0.28448095548119911591E+00
    0.33678167294496907935E+00
    0.31729297775852205454E+00
    0.30419494908435346092E+00
    0.29280674069254181147E+00
    0.31079467588038112158E+00
    0.30740069395458219370E+00
    0.30078391370980267494E+00
    0.27695897672402552958E+00
    0.28715229127794106301E+00
    0.29507961284245010081E+00
    0.28230187030536008086E+00
    0.20477099846845148168E+00
    0.21460911071144667117E+00
    0.21831640570835986193E+00
    0.22119963640566628338E+00
    0.21866929912214208565E+00
    0.23358143952345875038E+00
    0.22804429941823775585E+00
    0.21960539271444196041E+00
    0.15784714595706900164E+00
    0.13552193541926116360E+00
    0.22977765552887269296E+00
    0.24662577384442363471E+00
    0.23675389240791827605E+00
    0.23246523458496548553E+00
    0.24546608372392436648E+00
    0.26435038334343913258E+00
    0.25504481517542226809E+00
    0.23801243442317621124E+00
    0.19705107465231697095E+00
    0.23112007564843406460E+00
    0.21957207844944709452E+00
    0.23414614510119510782E+00
    0.23201670582144287569E+00
    0.22272627144767848106E+00
    0.23721539577063929793E+00
    0.24300548643746489041E+00
    0.21426076526065343519E+00
    0.21202148076887872286E+00
    0.21910648590980430495E+00
    0.20754963796322101199E+00
    0.22912206327200296263E+00
    0.21151545877648275651E+00
    0.20461044576141515505E+00
    0.20123894604865061320E+00
    0.20854337307313719485E+00
    0.20505489553335856656E+00
    0.17868443315020959838E+00
    0.17107919934600257506E+00
    0.16132071130641628676E+00
    0.16939869219860706484E+00
    0.14880015167411594912E+00
    0.15401742848826868726E+00
    0.18185767740966310435E+00
    0.18842747700658965537E+00
    0.31835109574313513736E+00
    0.32607910897582453869E+00
    0.19941427109356446579E+00
    0.20751202339698723853E+00
    0.23810786692700050549E+00
    0.22829439517352065336E+00
    0.26680714770883551257E+00
    0.22974233364044976957E+00
    0.23167805816504222216E+00
    0.21218756003161901025E+00
    0.24580960383296093785E+00
    0.23636610760320300728E+00
    0.30526540822550640719E+00
    0.29387060036386747353E+00
    0.22626442840375618482E+00
    0.23349144588994094618E+00
    0.32206586522114788451E+00
    0.30876458370321308022E+00
    0.33438768035139099233E+00
    0.32363014015823921010E+00
    0.31548945379818560397E+00
    0.29397432185990740594E+00
    0.24031165728709188989E+00
    0.24869559746338895656E+00
    0.23837219478478555157E+00
    0.24064014629376784260E+00
    0.24118375817373377545E+00
    0.24018720405954116504E+00
    0.24636808283173769474E+00
    0.24283007852520474557E+00
    0.19277902322821857672E+00
    0.23064529148757237365E+00
    0.18755262075785600340E+00
    0.20527035439325683197E+00
    0.21199606855530819804E+00
    0.23999229997434748385E+00