# vtk DataFile Version 3.0
LAPLACIEN  2D
ASCII
DATASET UNSTRUCTURED_GRID
 POINTS        1616  float
  0.45880792999999997       0.87913892999999999        0.0000000000000000     
  0.40372658000000000       0.18243693000000000        0.0000000000000000     
  0.52563972999999997       0.19039755999999999        0.0000000000000000     
  0.45642953000000003       0.24226190000000000        0.0000000000000000     
  0.51984098000000001       0.24548566999999999        0.0000000000000000     
  0.21212766999999999       0.18957676000000001        0.0000000000000000     
  0.28573643999999998       0.48586826999999999        0.0000000000000000     
  0.49667887999999999       0.82979849000000006        0.0000000000000000     
  0.22848407000000001       0.23366793000000000        0.0000000000000000     
  0.27860389000000002       0.86069733000000004        0.0000000000000000     
  0.36563702999999997       0.80971340999999997        0.0000000000000000     
  0.28045499000000002       0.80393031999999998        0.0000000000000000     
  0.40374228000000001       0.78127665000000002        0.0000000000000000     
  0.56160891999999996       0.55341227999999998        0.0000000000000000     
  0.37210935000000001       0.26787699999999998        0.0000000000000000     
  0.49899838000000002       0.57286409999999999        0.0000000000000000     
  0.41023869000000002       0.33464665999999998        0.0000000000000000     
  0.33484156999999998       0.29151022999999998        0.0000000000000000     
  0.46758665999999999       0.58262307999999996        0.0000000000000000     
  0.43303693999999998       0.36569945999999998        0.0000000000000000     
  0.25741280000000000       0.61805882999999995        0.0000000000000000     
  0.28853707000000001       0.59423020000000004        0.0000000000000000     
  0.67837254000000002       0.45038665999999999        0.0000000000000000     
  0.42159046000000000       0.50697913999999999        0.0000000000000000     
  0.60276470999999998       0.73940291000000002        0.0000000000000000     
  0.30758273000000003       0.77844542000000005        0.0000000000000000     
  0.45367541000000000       0.31842187000000000        0.0000000000000000     
  0.36974101999999998       0.35807864000000000        0.0000000000000000     
  0.26919625000000003       0.65312176000000000        0.0000000000000000     
  0.61908110999999999       0.42741791000000001        0.0000000000000000     
  0.54442267000000000       0.74200747000000000        0.0000000000000000     
  0.58930464999999999       0.41588288000000001        0.0000000000000000     
  0.51511633000000001       0.74331579000000003        0.0000000000000000     
  0.12878382999999999       0.33122940000000001        0.0000000000000000     
  0.15534365000000000       0.71749246000000000        0.0000000000000000     
  0.64877724999999997       0.30161799000000000        0.0000000000000000     
  0.58853643000000000       0.28101930000000003        0.0000000000000000     
  0.56390348000000001       0.30132482999999999        0.0000000000000000     
  0.29605991999999998       0.44474459999999999        0.0000000000000000     
  0.29900669000000002       0.52983276000000001        0.0000000000000000     
  0.55954318999999997       0.48654808999999999        0.0000000000000000     
  0.42341458999999998       0.38785072999999998        0.0000000000000000     
  0.45806291999999998       0.35892998999999998        0.0000000000000000     
  0.47820750000000001       0.31147424000000001        0.0000000000000000     
  0.36344222999999998       0.38139388000000002        0.0000000000000000     
  0.17186508000000000       0.28159534000000003        0.0000000000000000     
  0.18029876000000000       0.33292397000000001        0.0000000000000000     
  0.20696366999999999       0.71822465999999996        0.0000000000000000     
  0.61326404999999995       0.34468346000000000        0.0000000000000000     
  0.29887186999999998       0.42337377999999998        0.0000000000000000     
  0.33271837999999998       0.44383096000000000        0.0000000000000000     
  0.31835012000000001       0.54267131999999996        0.0000000000000000     
  0.54882964999999995       0.45462609999999998        0.0000000000000000     
  0.20448143999999999       0.28717446000000002        0.0000000000000000     
  0.20634120000000000       0.33378063000000002        0.0000000000000000     
  0.23301781999999999       0.71859421999999995        0.0000000000000000     
  0.58606499999999995       0.35199907000000002        0.0000000000000000     
  0.20841100000000001       0.45369578999999999        0.0000000000000000     
  0.24778198000000001       0.77708496000000005        0.0000000000000000     
  0.30748062999999998       0.61002621000000001        0.0000000000000000     
  0.23337332000000000       0.41981835000000001        0.0000000000000000     
  0.25985113999999998       0.75924943000000000        0.0000000000000000     
  0.24610213000000000       0.40254353999999998        0.0000000000000000     
  0.37350351999999998       0.50127178999999999        0.0000000000000000     
  0.43235204999999999       0.78236391000000005        0.0000000000000000     
  0.30749858000000002       0.28582627999999999        0.0000000000000000     
  0.30336816000000000       0.64635111000000001        0.0000000000000000     
  0.31418906000000002       0.43625961000000002        0.0000000000000000     
  0.27223414000000001       0.78063022000000004        0.0000000000000000     
  0.22829299000000000       0.75089561000000005        0.0000000000000000     
  0.26580239000000000       0.42989294000000000        0.0000000000000000     
  0.37369119000000001       0.51975733999999996        0.0000000000000000     
  0.39681665999999999       0.51027884000000001        0.0000000000000000     
  0.32086795000000001       0.65137668999999998        0.0000000000000000     
  0.31757218999999998       0.62987181000000003        0.0000000000000000     
  0.32959777000000001       0.42500900000000003        0.0000000000000000     
  0.24663835000000001       0.74537787000000000        0.0000000000000000     
  0.26354222999999999       0.41075105000000001        0.0000000000000000     
  0.28343712999999998       0.43221330000000002        0.0000000000000000     
  0.34682245000000000       0.43182289000000001        0.0000000000000000     
  0.35306810000000000       0.45344571000000000        0.0000000000000000     
  0.57327218000000002       0.15829040000000000        0.0000000000000000     
  0.51473097999999995       0.12621746000000000        0.0000000000000000     
  0.72829681999999996       0.40151571000000003        0.0000000000000000     
  0.42703184999999999       0.53501600999999999        0.0000000000000000     
  0.32612607999999998       0.75472421999999995        0.0000000000000000     
   9.9814849999999997E-002  0.28081352999999998        0.0000000000000000     
  0.13945825000000001       0.78732252999999996        0.0000000000000000     
  0.44199519999999998       0.38275643999999998        0.0000000000000000     
  0.40132215999999998       0.36508836000000000        0.0000000000000000     
  0.43963142999999999       0.34043466999999999        0.0000000000000000     
  0.47160058999999999       0.33493045999999999        0.0000000000000000     
  0.45615203999999998       0.28038164999999998        0.0000000000000000     
  0.34321279999999998       0.35314412000000001        0.0000000000000000     
  0.29178279000000001       0.56170810000000004        0.0000000000000000     
  0.49833080000000002       0.48416767999999999        0.0000000000000000     
  0.46386271000000001       0.46452802999999998        0.0000000000000000     
  0.44722043000000000       0.45300645000000000        0.0000000000000000     
  0.46562803000000003       0.44419790999999997        0.0000000000000000     
  0.43925322000000000       0.48229485999999999        0.0000000000000000     
  0.49117628000000002       0.45665803999999999        0.0000000000000000     
  0.43435156000000003       0.46523363000000001        0.0000000000000000     
  0.19405754000000000       0.31093060000000000        0.0000000000000000     
  0.22069087000000001       0.66905079000000001        0.0000000000000000     
  0.30776597999999999       0.59042684000000001        0.0000000000000000     
  0.29541507000000000       0.57849362000000004        0.0000000000000000     
  0.28335474999999999       0.61970232999999997        0.0000000000000000     
  0.29935165000000002       0.62852803999999995        0.0000000000000000     
  0.28459435999999999       0.64121777000000002        0.0000000000000000     
  0.26698675999999999       0.63435282999999998        0.0000000000000000     
  0.24031983000000001       0.64700659000000005        0.0000000000000000     
  0.33118850000000000       0.50233682999999996        0.0000000000000000     
  0.35257061000000001       0.51072803000000000        0.0000000000000000     
  0.29038973000000001       0.78732479000000000        0.0000000000000000     
  0.28737915000000003       0.76752330999999996        0.0000000000000000     
  0.21978159000000000       0.73315437000000006        0.0000000000000000     
  0.18119734000000001       0.76257752999999995        0.0000000000000000     
  0.20353571000000001       0.75186065999999996        0.0000000000000000     
  0.39122694000000002       0.49007234000000000        0.0000000000000000     
  0.59140473999999998       0.13507609000000001        0.0000000000000000     
  0.53156702000000000        9.7663528999999999E-002   0.0000000000000000     
  0.76346223999999996       0.39657278000000001        0.0000000000000000     
  0.41119013999999998       0.52354409999999996        0.0000000000000000     
   7.2558165999999993E-002  0.26885883999999999        0.0000000000000000     
  0.10497347000000000       0.79895936000000001        0.0000000000000000     
[...]
 CELL_DATA        2963
 SCALARS Nutrients float
 LOOKUP_TABLE default
    0.31585111791679149063E+00
    0.30290710680122762133E+00
    0.27652344484862134699E+00
    0.28686772034727991976E+00
    0.28084774050433353176E+00
    0.32900736335614827466E+00
    0.29612158016941586558E+00
    0.27761345727324010513E+00
    0.30169657642137165388E+00
    0.19094562289803232447E+00
    0.30584303183331396081E+00
    0.27028791929903661639E+00
    0.26375285130328374184E+00
    0.29430954715928514531E+00
    0.30088686138927239755E+00
    0.25972795156625988477E+00
    0.19624886857916012950E+00
    0.29583361764520665904E+00
    0.33537346889416802531E+00
    0.26490501637889779518E+00
    0.29363464288602514340E+00
    0.17749365125372423835E+00
    0.15400638378447228938E+00
    0.27142146531353483763E+00
    0.24926626040106075743E+00
    0.38002795017750334861E+00
    0.24500885240501604767E+00
    0.33267278551664369868E+00
    0.28293329825327889759E+00
    0.21692047602911412874E+00
    0.30132959821216709351E+00
    0.29132168782705486487E+00
    0.28266556406830273263E+00
    0.23857309014229577393E+00
    0.25221464788120018241E+00
    0.23245418871800019311E+00
    0.27236590185634718120E+00
    0.23178309680850914254E+00
    0.23075849328455613763E+00
    0.27689004630353236669E+00
    0.22400430561705975130E+00
    0.27966843136933833280E+00
    0.26541035097447363000E+00
    0.22132303695901864304E+00
    0.29726918227146115203E+00
    0.21062130735356004996E+00
    0.23301143739281487965E+00
    0.29459169910264432213E+00
    0.21477388686007550800E+00
    0.29838625858812273250E+00
    0.21847496544455066725E+00
    0.19936281922169188374E+00
    0.20414223359024849525E+00
    0.20112192007456858311E+00
    0.27082102289554421670E+00
    0.26141384334920403365E+00
    0.21989963192274983306E+00
    0.21469399061085173153E+00
    0.19736531030224713223E+00
    0.27258010261026355270E+00
    0.20096252643565071239E+00
    0.30927768975861485989E+00
    0.31269442620652088127E+00
    0.28751330485723874952E+00
    0.27629051672416432561E+00
    0.20546400369120790264E+00
    0.25900540858829729229E+00
    0.19887701221961526232E+00
    0.22272195850172388232E+00
    0.29514486608408418977E+00
    0.22745540310600856349E+00
    0.20389722214808467249E+00
    0.24338307127789521322E+00
    0.23723131516932566276E+00
    0.19195482524494744681E+00
    0.19201548065562457079E+00
    0.17534032902852991764E+00
    0.19511705115500133090E+00
    0.20637849701494501153E+00
    0.20711576993371383359E+00
    0.28830051483360669140E+00
    0.21630727604388252927E+00
    0.19909369367363549674E+00
    0.18356886649752132690E+00
    0.22570100842770357552E+00
    0.30496290745434917469E+00
    0.33415827243020879145E+00
    0.27431727318685855677E+00
    0.25787631449832171260E+00
    0.33596625545010250224E+00
    0.25908709260449658274E+00
    0.21693923888476188133E+00
    0.15751191304783995761E+00
    0.21304160395189863930E+00
    0.23440747693929961382E+00
    0.22229724576374881861E+00
    0.17638719254202553377E+00
    0.26028440964871407681E+00
    0.21235262150631162292E+00
    0.26517404518760756549E+00
    0.24769964268208050084E+00
    0.25428037328166469555E+00
    0.21666796187841652621E+00
    0.26442223746405696394E+00
    0.28102187162373243323E+00
    0.31664547600853054643E+00
    0.26936705739301797236E+00
    0.33818864831045508668E+00
    0.21377478595048599042E+00
    0.27287222019279167018E+00
    0.29635364689611437550E+00
    0.26146079018219980927E+00
    0.24040662968272805133E+00
    0.26978651688217525351E+00
    0.29983141073605151794E+00
    0.26232298493609901291E+00
    0.33299899758906575942E+00
    0.31686712340010397826E+00
    0.18612990976480861538E+00
    0.20060722255370902478E+00
    0.25915846833861677645E+00
    0.30826298069344748587E+00
    0.19936971338341380466E+00
    0.23665774998963909348E+00
    0.20259232128039372789E+00
    0.24592515704839112978E+00
    0.33358532278818336936E+00
    0.20855264347146468262E+00
    0.31690650618969323782E+00
    0.19749164205172187181E+00
    0.21915774764510254080E+00
    0.21632204706998620081E+00
    0.27039590328909113293E+00
    0.21866465519233435622E+00
    0.26136613341325176663E+00
    0.20243395981734335631E+00
    0.20239134331608571449E+00
    0.34034190136800074322E+00
    0.28669627333660646640E+00
    0.30912733287761867684E+00
    0.19681814066117342410E+00
    0.22650981830059166433E+00
    0.18264280973522556417E+00
    0.20423263158820242902E+00
    0.20773934600620722057E+00
    0.22303111177932744003E+00
    0.30430371498658925766E+00
    0.22012824738528069535E+00
    0.26799276492241813630E+00
    0.24228040667164552069E+00
    0.28056112325913296068E+00
    0.20310797603663097166E+00
    0.20678322474814947451E+00
    0.22500628113211640358E+00
    0.23838979497940476771E+00
    0.20518974258913744158E+00
    0.20224698280127825778E+00
    0.23911943381279518461E+00
    0.23894467410933542539E+00
    0.23842253233578267202E+00
    0.23884587017476874293E+00
    0.24625063019538584452E+00
    0.23338438384396623104E+00
    0.26101044718054988714E+00
    0.26644033086367224783E+00
    0.21105688059250021782E+00
    0.20135053215051226805E+00
    0.21553295440780725900E+00
    0.18870714183295508870E+00
    0.21837426425880368530E+00
    0.17841941632253410788E+00
    0.23981925309975937743E+00
    0.21088542272557242452E+00
    0.22306739800203492785E+00
    0.20432218593241852078E+00
    0.20184771076268259726E+00
    0.28125629969419352339E+00
    0.26524104982548957210E+00
    0.29319727983619425782E+00
    0.19909129749441881185E+00
    0.19052622776851194097E+00
    0.22748896117000172445E+00
    0.23669375028444855635E+00
    0.26256318897095781706E+00
    0.20552887276488532309E+00
    0.20701096670463345339E+00
    0.27272663839742228298E+00
    0.37318984256297615953E+00
    0.20463022066879976713E+00
    0.22372768194069100889E+00
    0.29041313128736878646E+00
    0.25503079728899014089E+00
    0.33433594292015167415E+00
    0.19868181883790786424E+00
    0.27466084618143243867E+00
    0.20094410389070191392E+00
    0.26508698532652957836E+00
    0.21913804476602533056E+00
    0.25269138749218067463E+00
    0.20207077526969272063E+00
    0.22995823080953312068E+00
    0.22350816616437771400E+00
    0.28462013782702777487E+00
    0.22050005395762065086E+00
    0.15069167052914961280E+00
    0.15245701250510740321E+00
    0.22725389331574905039E+00
    0.15406356154966294181E+00
    0.22846767202352960546E+00
    0.19900625773217375802E+00
    0.20113196288374557419E+00
    0.17142348958216077626E+00
    0.15886264309482489576E+00
    0.29020545369140482439E+00
    0.30326296858994039596E+00
    0.27135235384289674299E+00
    0.23946433571827469011E+00
    0.27224560168806360982E+00
    0.28471910433462721546E+00
    0.20331110920948883281E+00
    0.29888614765215942848E+00
    0.30035040998093603948E+00
    0.33267727320225826126E+00
    0.19779275804932433536E+00
    0.19969690862912506391E+00
    0.29251997176065025474E+00
    0.31643430241395925639E+00
    0.21988564095662360698E+00
    0.21947310624956908875E+00
    0.26418511684153439534E+00
    0.21689038259065032688E+00
    0.24203419547719243199E+00
    0.27042556405043083334E+00
    0.27991982543894355917E+00
    0.25486318003637981056E+00
    0.27026050318610106427E+00
    0.32256806589407555075E+00
    0.27605349056636185878E+00
    0.16518583594018138028E+00
    0.20452382173784425246E+00
    0.20223888920432256389E+00
    0.21914896675638034784E+00
    0.28453869961958888624E+00
    0.26725530455336654612E+00
    0.16981661542177048374E+00
    0.38111744110987821887E+00
    0.27366731091191887071E+00
    0.20832117203090144697E+00
    0.37578056875612547705E+00
    0.25210761768884204503E+00
    0.18470821456339775457E+00
    0.27143627355893396036E+00
    0.37002049117880309037E+00
    0.18142825387169125850E+00
    0.22081522944513162776E+00
    0.24534988747448985280E+00
    0.22266756453752586942E+00
    0.37194764804940044778E+00
    0.17493197615482419804E+00
    0.25688296466123905493E+00
    0.17892073943560060645E+00
    0.18296836595032650585E+00
    0.18523164717868406681E+00
    0.21600795248527956960E+00
    0.16449230210585366607E+00
    0.20110486385718839841E+00
    0.16582242982799536013E+00
    0.17995817332058763882E+00
    0.22513928676921027283E+00
    0.15650287238435917070E+00
    0.27016803685125795331E+00
    0.27438395962116790550E+00
    0.17503483485110724049E+00
    0.21984598615897363305E+00
    0.22024831838773462067E+00
    0.29224010267488031989E+00
    0.22260160755419014511E+00
    0.26540961895418152539E+00
    0.19863141020812016824E+00
    0.21669697337024443340E+00
    0.31848170690977423147E+00
    0.21189727907771169213E+00
    0.27542153407472519389E+00
    0.24898032067604045081E+00
    0.21657592953326446072E+00
    0.19984837322458293141E+00
    0.26986752409278852438E+00
    0.21730819474859880414E+00
    0.36868789117530725852E+00
    0.25139781406429917432E+00
    0.25248780409667537228E+00
    0.25169886736350338685E+00
    0.24073429348774458281E+00
    0.28462960363365813476E+00
    0.22460590127535715044E+00
    0.28727647377454146316E+00
    0.21376919206886391134E+00
    0.24150086104428755696E+00
    0.15068748420932623344E+00
    0.23227357718937038933E+00
    0.23325496723884434069E+00
    0.22984968156428156605E+00
    0.25132520109158734689E+00
    0.31918611470127511431E+00
    0.29045953724725043221E+00
    0.20009261829641528108E+00
    0.21213823975097254038E+00
    0.22028435284970274144E+00
    0.19453761170095545951E+00
    0.27286458735009699872E+00
    0.19844616091231898070E+00
    0.22696285794935736058E+00
    0.28434839332432571002E+00
    0.22171672392358610093E+00
    0.27710868428149415532E+00
    0.31873343785955154939E+00
    0.22036864870159000862E+00
    0.32972304551502834569E+00
    0.31864309493028092346E+00
    0.26557237814346418281E+00
    0.26187326044519138035E+00
    0.25388365249366395826E+00
    0.26430013996103279839E+00
    0.25871340413900206778E+00
    0.30891575511702257240E+00
    0.26194701369555495329E+00
    0.28123979097537732397E+00
    0.25927677453378017436E+00
    0.29092896505850041056E+00
    0.32288458335243575004E+00
    0.19949994139833809870E+00
    0.20357382931969303375E+00
    0.30662420587320343701E+00
    0.30050298694424704138E+00
    0.22615085049493593994E+00
    0.22206740276637049192E+00
    0.21733238511904373613E+00
    0.25753191647396456165E+00
    0.30125853708536287634E+00
    0.25454286422872501872E+00
    0.26406832159522569681E+00
    0.31200749482947459645E+00
    0.35326004170776198476E+00
    0.26050168379907251426E+00
    0.18636073364128816210E+00
    0.21782533178155830123E+00
    0.21170347466314570761E+00
    0.26214880285568548102E+00
    0.25162405511330709906E+00
    0.32595274894203379867E+00
    0.32063876458701034977E+00
    0.28934683843016867355E+00
    0.28597884034913112483E+00
    0.20356980810163177731E+00
    0.20047514568187224659E+00
    0.20036555279587103806E+00
    0.20720587579763552477E+00
    0.20472419365233812671E+00
    0.20889843028198193386E+00
    0.21253615648729579091E+00
    0.20736600677489389066E+00
    0.21150974793633475768E+00
    0.23155554915215456613E+00
    0.21562446255398437511E+00
    0.20131081303020648132E+00
    0.21010387884361131361E+00
    0.22160742176259462521E+00
    0.21697585481041214983E+00
    0.17970999516609617586E+00
    0.16183678115482325044E+00
    0.15364580511022779552E+00
    0.15525661627080139526E+00
    0.15533455855600328266E+00
    0.15271695675592719676E+00
    0.15335179139478571919E+00
    0.14769918120169395204E+00
    0.14571087385600148267E+00
    0.16544400496832500913E+00
    0.15276530164815738111E+00
    0.15946215580943876033E+00
    0.15350751070115400965E+00
    0.16417878708780758723E+00
    0.27493714429284898948E+00
    0.27021590319059468621E+00
    0.26569870834330577836E+00
    0.23882974707832618777E+00
    0.21506860496228791257E+00
    0.21222143212380534250E+00
    0.22155124068538534221E+00
    0.21205378535745889046E+00
    0.21860328069379503235E+00
    0.22288052228379046094E+00
    0.22210724952208288352E+00
    0.21981480859711016729E+00
    0.22397122716240935869E+00
    0.22936711437823034676E+00
    0.24523600296092196160E+00
    0.22734954862613843130E+00
    0.32552219317022501599E+00
    0.23389521779069369356E+00
    0.20275719370611811065E+00
    0.19748898138696016624E+00
    0.19179384532855273116E+00
    0.19474863604868908329E+00
    0.26906204672448641446E+00
    0.26906255604849271812E+00
    0.26606551253153898351E+00
    0.25638120440986511550E+00
    0.26822728627831526893E+00
    0.27686840945391338886E+00
    0.27997180974134971976E+00
    0.31333620616001750525E+00
    0.27962631008718097370E+00
    0.30131145564387912250E+00
    0.18710233397129372168E+00
    0.18153062439218073387E+00
    0.33395775470355687498E+00
    0.19647494935660861359E+00
    0.29127585536716088521E+00
    0.29873736884432222638E+00
    0.28201567832771334832E+00
    0.36896129723516191135E+00
    0.37505119070575682061E+00
    0.17551617498330679412E+00
    0.17822685398697879489E+00
    0.32744161230656210204E+00
    0.25249791542337962635E+00
    0.33052855794661956113E+00
    0.33078532333806637267E+00
    0.31886615831495929152E+00
    0.20284801267459320884E+00
    0.20237222595179402140E+00
    0.20006029742259517912E+00
    0.20312622280927097873E+00
    0.20646771497859234268E+00
    0.20250882998325520079E+00
    0.20052964087291927364E+00
    0.19864389676753244074E+00
    0.19896937281710258549E+00
    0.19857772401050857725E+00
    0.19976802756073175349E+00
    0.19948224663685784619E+00
    0.21051948466989064968E+00
    0.21873277962960022136E+00
    0.20867195821011544354E+00
    0.20832975199690131896E+00
    0.21079617592502231105E+00
    0.21008525697287330769E+00
    0.21551992200233965891E+00
    0.22786458512329743620E+00
    0.21398140317281558187E+00
    0.23558234815284795349E+00
    0.23152831191410222500E+00
    0.23930751126191499023E+00
    0.20056339662814054448E+00
    0.20297656999586488613E+00
    0.20657321488097721285E+00
    0.21366879810742137047E+00
    0.21105285252761862846E+00
    0.21014605142836625951E+00
    0.17422642208487154614E+00
    0.15356809706568455565E+00
    0.18129850966670019163E+00
    0.16168267158729351940E+00
    0.28283141165811143125E+00
    0.30038451046178221704E+00
    0.27543569313372379126E+00
    0.27814294330612598927E+00
    0.26764612313979874170E+00
    0.26553353056167605661E+00
    0.28350132106293374212E+00
    0.24738496106099083782E+00
    0.22771632637313693470E+00
    0.22572770317883619762E+00
    0.24561160775664581113E+00
    0.26845284635026078757E+00
    0.23625057418476980153E+00
    0.22950986217053304106E+00
    0.23608765393390171439E+00
    0.21543663419113093238E+00
    0.23001362757100488055E+00
    0.22577281587785824613E+00
    0.20490690659071872370E+00
    0.19675713940983277639E+00
    0.20932709558820294937E+00
    0.20595900120159091329E+00
    0.19933249741886471806E+00
    0.19647470156082802450E+00
    0.19988690316352988874E+00
    0.20397369103557239089E+00
    0.20122163189435976482E+00
    0.20074150324077033591E+00
    0.25419631945625642544E+00
    0.25499514515779297952E+00
    0.28909291057322322738E+00
    0.28997029874878299527E+00
    0.27828197473575244647E+00
    0.28109543190471503182E+00
    0.17287596250560724465E+00
    0.16693763677824594027E+00
    0.29493742221139912507E+00
    0.30102932687704603287E+00
    0.29066936937234816307E+00
    0.37957507964931275213E+00
    0.37521816265225199638E+00
    0.33661184278198252873E+00
    0.33343859853472263000E+00
    0.33409291747630931457E+00
    0.20654838840504990971E+00
    0.22463557506988574008E+00
    0.21598865351696891479E+00
    0.22765529823472271942E+00
    0.19682425265718334062E+00
    0.19137568818641600976E+00
    0.18060743658863287475E+00
    0.16326821413494282953E+00
    0.27990169455027658074E+00
    0.28121678611283390525E+00
    0.26956457922065585331E+00
    0.26874536029957729610E+00
    0.25542004577605215143E+00
    0.25059553420101648991E+00
    0.25912638060707576804E+00
    0.24466801425926942848E+00
    0.22598305883795499760E+00
    0.21991771716824234928E+00
    0.23440064584087891286E+00
    0.22322846283541716850E+00
    0.22619289678944251576E+00
    0.20871038464514046762E+00
    0.21988392839497336584E+00
    0.21576585290458191735E+00
    0.19474034205894455440E+00
    0.20004392672573112488E+00
    0.19585255801264628284E+00
    0.19917036850078645438E+00
    0.19599497742862218019E+00
    0.19439332569791939465E+00
    0.20644847012499417671E+00
    0.19933959365233738792E+00
    0.20999295651755681136E+00
    0.20562571044457608749E+00
    0.21352918764620509862E+00
    0.23251841501272080270E+00
    0.21160197229500332661E+00
    0.21000221450453096517E+00
    0.21282251673229066191E+00
    0.21560480067006779215E+00
    0.30103716478325831529E+00
    0.30040357959813207556E+00
    0.28445050458965331908E+00
    0.33719957228293717666E+00
    0.31747642511126117348E+00
    0.30430391110031640434E+00
    0.29283044691600157439E+00
    0.31094407475354141068E+00
    0.30755085989929004109E+00
    0.30087717665038921089E+00
    0.27690180175753636993E+00
    0.28714029427783466231E+00
    0.29515463370530714560E+00
    0.28231282508218535909E+00
    0.20481077890221566218E+00
    0.21468552808476876193E+00
    0.21839390667110669675E+00
    0.22131252728763908810E+00
    0.21872069291461798679E+00
    0.23359087639203091058E+00
    0.22825024990817099901E+00
    0.21976524016820128682E+00
    0.19179594929280285864E+00
    0.16806402764279732009E+00
    0.23160164519726866850E+00
    0.24754307410949644153E+00
    0.23809260459837350288E+00
    0.23416067218893416024E+00
    0.24624722232894291629E+00
    0.26468216281496492748E+00
    0.25576710654564577263E+00
    0.23980088241917102421E+00
    0.20788331350402430853E+00
    0.23381755540562368378E+00
    0.22398862774356698147E+00
    0.23694667939449712279E+00
    0.23417291017329083802E+00
    0.22620906813610938690E+00
    0.23883230077520789525E+00
    0.24429230240116642237E+00
    0.21901869839977555765E+00
    0.21751237002321857639E+00
    0.22330109076116874678E+00
    0.21462587875192101761E+00
    0.23190609463369415977E+00
    0.21752618824440284051E+00
    0.21274627304394896909E+00
    0.21020090171548269642E+00
    0.21494755974882587268E+00
    0.21271677728757884540E+00
    0.19910340260310194216E+00
    0.19598980983570543635E+00
    0.19234889496685905752E+00
    0.19519984388086858429E+00
    0.18864279962859753503E+00
    0.19068142840193622045E+00
    0.20045815650346579528E+00
    0.20346569146078191670E+00
    0.31858161221304648336E+00
    0.32646228210157357541E+00
    0.20937545961093526059E+00
    0.21489077363310249424E+00
    0.23999923544873050241E+00
    0.23106298541744327291E+00
    0.26728459178446584144E+00
    0.23294471694501561743E+00
    0.23458033194296848412E+00
    0.21835590635135135318E+00
    0.24721685118562636285E+00
    0.23862454397884744206E+00
    0.30542199205652648120E+00
    0.29394406949530715867E+00
    0.22951735845872162090E+00
    0.23584956771688242450E+00
    0.32232523439687182920E+00
    0.30893440457976062419E+00
    0.33478500289790891209E+00
    0.32393512345618930004E+00
    0.31572806440130879446E+00
    0.29407614451317976023E+00
    0.24034729695813411565E+00
    0.24881013202373764015E+00
    0.23834637706248554267E+00
    0.24062755951379063979E+00
    0.24124840614481735113E+00
    0.24018532736588643628E+00
    0.24659201821249701614E+00
    0.24291358975199872638E+00
    0.22231341742403079587E+00
    0.24301363766332478855E+00
    0.21519629850543628424E+00
    0.22670690955765812613E+00
    0.23113924636386823375E+00
    0.24981270182087728093E+00