# vtk DataFile Version 3.0
LAPLACIEN  2D
ASCII
DATASET UNSTRUCTURED_GRID
 POINTS        1616  float
  0.45880792999999997       0.87913892999999999        0.0000000000000000     
  0.40372658000000000       0.18243693000000000        0.0000000000000000     
  0.52563972999999997       0.19039755999999999        0.0000000000000000     
  0.45642953000000003       0.24226190000000000        0.0000000000000000     
  0.51984098000000001       0.24548566999999999        0.0000000000000000     
  0.21212766999999999       0.18957676000000001        0.0000000000000000     
  0.28573643999999998       0.48586826999999999        0.0000000000000000     
  0.49667887999999999       0.82979849000000006        0.0000000000000000     
  0.22848407000000001       0.23366793000000000        0.0000000000000000     
  0.27860389000000002       0.86069733000000004        0.0000000000000000     
  0.36563702999999997       0.80971340999999997        0.0000000000000000     
  0.28045499000000002       0.80393031999999998        0.0000000000000000     
  0.40374228000000001       0.78127665000000002        0.0000000000000000     
  0.56160891999999996       0.55341227999999998        0.0000000000000000     
  0.37210935000000001       0.26787699999999998        0.0000000000000000     
  0.49899838000000002       0.57286409999999999        0.0000000000000000     
  0.41023869000000002       0.33464665999999998        0.0000000000000000     
  0.33484156999999998       0.29151022999999998        0.0000000000000000     
  0.46758665999999999       0.58262307999999996        0.0000000000000000     
  0.43303693999999998       0.36569945999999998        0.0000000000000000     
  0.25741280000000000       0.61805882999999995        0.0000000000000000     
  0.28853707000000001       0.59423020000000004        0.0000000000000000     
  0.67837254000000002       0.45038665999999999        0.0000000000000000     
  0.42159046000000000       0.50697913999999999        0.0000000000000000     
  0.60276470999999998       0.73940291000000002        0.0000000000000000     
  0.30758273000000003       0.77844542000000005        0.0000000000000000     
  0.45367541000000000       0.31842187000000000        0.0000000000000000     
  0.36974101999999998       0.35807864000000000        0.0000000000000000     
  0.26919625000000003       0.65312176000000000        0.0000000000000000     
  0.61908110999999999       0.42741791000000001        0.0000000000000000     
  0.54442267000000000       0.74200747000000000        0.0000000000000000     
  0.58930464999999999       0.41588288000000001        0.0000000000000000     
  0.51511633000000001       0.74331579000000003        0.0000000000000000     
  0.12878382999999999       0.33122940000000001        0.0000000000000000     
  0.15534365000000000       0.71749246000000000        0.0000000000000000     
  0.64877724999999997       0.30161799000000000        0.0000000000000000     
  0.58853643000000000       0.28101930000000003        0.0000000000000000     
  0.56390348000000001       0.30132482999999999        0.0000000000000000     
  0.29605991999999998       0.44474459999999999        0.0000000000000000     
  0.29900669000000002       0.52983276000000001        0.0000000000000000     
  0.55954318999999997       0.48654808999999999        0.0000000000000000     
  0.42341458999999998       0.38785072999999998        0.0000000000000000     
  0.45806291999999998       0.35892998999999998        0.0000000000000000     
  0.47820750000000001       0.31147424000000001        0.0000000000000000     
  0.36344222999999998       0.38139388000000002        0.0000000000000000     
  0.17186508000000000       0.28159534000000003        0.0000000000000000     
  0.18029876000000000       0.33292397000000001        0.0000000000000000     
  0.20696366999999999       0.71822465999999996        0.0000000000000000     
  0.61326404999999995       0.34468346000000000        0.0000000000000000     
  0.29887186999999998       0.42337377999999998        0.0000000000000000     
  0.33271837999999998       0.44383096000000000        0.0000000000000000     
  0.31835012000000001       0.54267131999999996        0.0000000000000000     
  0.54882964999999995       0.45462609999999998        0.0000000000000000     
  0.20448143999999999       0.28717446000000002        0.0000000000000000     
  0.20634120000000000       0.33378063000000002        0.0000000000000000     
  0.23301781999999999       0.71859421999999995        0.0000000000000000     
  0.58606499999999995       0.35199907000000002        0.0000000000000000     
  0.20841100000000001       0.45369578999999999        0.0000000000000000     
  0.24778198000000001       0.77708496000000005        0.0000000000000000     
  0.30748062999999998       0.61002621000000001        0.0000000000000000     
  0.23337332000000000       0.41981835000000001        0.0000000000000000     
  0.25985113999999998       0.75924943000000000        0.0000000000000000     
  0.24610213000000000       0.40254353999999998        0.0000000000000000     
  0.37350351999999998       0.50127178999999999        0.0000000000000000     
  0.43235204999999999       0.78236391000000005        0.0000000000000000     
  0.30749858000000002       0.28582627999999999        0.0000000000000000     
  0.30336816000000000       0.64635111000000001        0.0000000000000000     
  0.31418906000000002       0.43625961000000002        0.0000000000000000     
  0.27223414000000001       0.78063022000000004        0.0000000000000000     
  0.22829299000000000       0.75089561000000005        0.0000000000000000     
  0.26580239000000000       0.42989294000000000        0.0000000000000000     
  0.37369119000000001       0.51975733999999996        0.0000000000000000     
  0.39681665999999999       0.51027884000000001        0.0000000000000000     
  0.32086795000000001       0.65137668999999998        0.0000000000000000     
  0.31757218999999998       0.62987181000000003        0.0000000000000000     
  0.32959777000000001       0.42500900000000003        0.0000000000000000     
  0.24663835000000001       0.74537787000000000        0.0000000000000000     
  0.26354222999999999       0.41075105000000001        0.0000000000000000     
  0.28343712999999998       0.43221330000000002        0.0000000000000000     
  0.34682245000000000       0.43182289000000001        0.0000000000000000     
  0.35306810000000000       0.45344571000000000        0.0000000000000000     
  0.57327218000000002       0.15829040000000000        0.0000000000000000     
  0.51473097999999995       0.12621746000000000        0.0000000000000000     
  0.72829681999999996       0.40151571000000003        0.0000000000000000     
  0.42703184999999999       0.53501600999999999        0.0000000000000000     
  0.32612607999999998       0.75472421999999995        0.0000000000000000     
   9.9814849999999997E-002  0.28081352999999998        0.0000000000000000     
  0.13945825000000001       0.78732252999999996        0.0000000000000000     
  0.44199519999999998       0.38275643999999998        0.0000000000000000     
  0.40132215999999998       0.36508836000000000        0.0000000000000000     
  0.43963142999999999       0.34043466999999999        0.0000000000000000     
  0.47160058999999999       0.33493045999999999        0.0000000000000000     
  0.45615203999999998       0.28038164999999998        0.0000000000000000     
  0.34321279999999998       0.35314412000000001        0.0000000000000000     
  0.29178279000000001       0.56170810000000004        0.0000000000000000     
  0.49833080000000002       0.48416767999999999        0.0000000000000000     
  0.46386271000000001       0.46452802999999998        0.0000000000000000     
  0.44722043000000000       0.45300645000000000        0.0000000000000000     
  0.46562803000000003       0.44419790999999997        0.0000000000000000     
  0.43925322000000000       0.48229485999999999        0.0000000000000000     
  0.49117628000000002       0.45665803999999999        0.0000000000000000     
  0.43435156000000003       0.46523363000000001        0.0000000000000000     
  0.19405754000000000       0.31093060000000000        0.0000000000000000     
  0.22069087000000001       0.66905079000000001        0.0000000000000000     
  0.30776597999999999       0.59042684000000001        0.0000000000000000     
  0.29541507000000000       0.57849362000000004        0.0000000000000000     
  0.28335474999999999       0.61970232999999997        0.0000000000000000     
  0.29935165000000002       0.62852803999999995        0.0000000000000000     
  0.28459435999999999       0.64121777000000002        0.0000000000000000     
  0.26698675999999999       0.63435282999999998        0.0000000000000000     
  0.24031983000000001       0.64700659000000005        0.0000000000000000     
  0.33118850000000000       0.50233682999999996        0.0000000000000000     
  0.35257061000000001       0.51072803000000000        0.0000000000000000     
  0.29038973000000001       0.78732479000000000        0.0000000000000000     
  0.28737915000000003       0.76752330999999996        0.0000000000000000     
  0.21978159000000000       0.73315437000000006        0.0000000000000000     
  0.18119734000000001       0.76257752999999995        0.0000000000000000     
  0.20353571000000001       0.75186065999999996        0.0000000000000000     
  0.39122694000000002       0.49007234000000000        0.0000000000000000     
  0.59140473999999998       0.13507609000000001        0.0000000000000000     
  0.53156702000000000        9.7663528999999999E-002   0.0000000000000000     
  0.76346223999999996       0.39657278000000001        0.0000000000000000     
  0.41119013999999998       0.52354409999999996        0.0000000000000000     
   7.2558165999999993E-002  0.26885883999999999        0.0000000000000000     
  0.10497347000000000       0.79895936000000001        0.0000000000000000     
[...]
 CELL_DATA        2963
 SCALARS Tumor_cells float
 LOOKUP_TABLE default
    0.13093314142890300149E-05
    0.14959765958128766241E-05
    0.20026535114934529469E-05
    0.19405429427956362743E-05
    0.16987903091294916866E-05
    0.17258542452645317831E-05
    0.18901783943821021738E-05
    0.20030999720547304394E-05
    0.14589583773988629691E-05
   -0.14653725370976532750E-04
    0.23191329210422417942E-05
    0.20042743999147291003E-05
   -0.12238708525075766390E-05
    0.12505809696173547095E-05
    0.18926126630217251013E-05
   -0.11493375384440769268E-04
   -0.62464148213260690444E-05
    0.20042556383032782751E-05
    0.16019893699842788085E-06
   -0.12220478925452128112E-06
    0.19876642757564772323E-05
    0.24016452202991395160E-01
    0.48961838832907035590E-01
    0.17826215158826164841E-05
    0.11487294578151664353E-05
    0.60478609092574023689E-07
    0.41916987152097256003E-06
    0.81559230861694790262E-06
    0.19468383067685396520E-05
    0.14429419118931213591E-05
    0.20946798232941976309E-05
    0.15437569762344595039E-05
    0.16744804821954813848E-05
   -0.29030256466663852289E-06
    0.14239670971066050417E-05
    0.29678098798229824347E-05
    0.15199475945798701883E-05
    0.14890883599077110837E-05
    0.17833491503766214786E-05
    0.19135306036272225238E-05
    0.91297354494084549248E-06
    0.19227426283117126521E-05
    0.19794033572434214445E-05
    0.17986231077258469799E-05
    0.20042069478560501566E-05
   -0.89193309776694945435E-06
    0.29500499888472332561E-06
    0.11979099522226088305E-05
    0.13652095288623990931E-05
    0.14366031372087080551E-05
   -0.75316047256488361949E-07
    0.27471411269274202145E-06
    0.18943020289890604274E-05
   -0.27384877465771241340E-05
    0.19833920262772190787E-05
   -0.19299900838305947601E-06
    0.19053758767112833723E-05
   -0.23023950920428303870E-05
    0.40960065571292955620E-05
    0.19863231894908150302E-05
    0.39238950240775988917E-06
    0.16657799060426605572E-05
    0.21299848995486142422E-05
    0.18590522283279915351E-05
    0.14629824790292557581E-05
    0.81284265760618854662E-07
    0.26616353652068500905E-03
   -0.34619369564184093529E-05
    0.32871510973820822210E-01
    0.20005031381945612456E-05
    0.19766116819286816019E-05
    0.10599250459217816075E-05
    0.73867056050931408473E-06
    0.16818040070746640106E-05
    0.38966024128117643543E-06
    0.98080525085451392293E-06
    0.22967877414444438228E-01
    0.15849311258596520405E-05
    0.12987129086958106474E-05
    0.18482759419164943314E-05
    0.18486903505251495399E-05
    0.12721957187811306091E-05
   -0.22301465943368822362E-06
    0.50083376383681429272E-02
    0.97351000293227299030E-06
    0.23598134306581899767E-05
    0.11461820576104447413E-05
    0.20017228418015493850E-05
    0.18641361144485623914E-05
    0.95955012107499132252E-06
    0.19593478163731161578E-05
    0.10768236841285832011E-07
    0.46767360696568137379E-01
   -0.66296499791604908793E-05
   -0.57592935949272337502E-05
   -0.89948105283208113105E-06
    0.21823522033740588161E-01
    0.20029808270339026412E-05
    0.71582818131705104040E-06
    0.19855380512573391455E-05
    0.90282448862459209803E-06
    0.13013966602956287930E-05
   -0.35468360514974335285E-06
    0.17330926472944522467E-05
    0.10464719424881951981E-05
    0.18304960917638807761E-05
    0.18641888063978866618E-05
    0.12248362222384227891E-06
    0.12937582968069737137E-05
    0.19475042196257063551E-05
    0.18790603697304958856E-05
    0.11564677968976119621E-05
    0.67663646908731761434E-06
    0.19849348690320530044E-05
    0.19891897991771623395E-05
    0.15258095546031975720E-05
    0.17526596291699687577E-05
    0.20211519705734326916E-05
    0.19298385183850593426E-03
   -0.38212857830398596135E-05
    0.12296800153024581925E-05
    0.22532722240237615246E-05
    0.16594257971875538774E-05
   -0.94692975906115283628E-07
    0.17349419531682668407E-05
    0.39242953577473898446E-06
    0.90181972402651961169E-06
    0.22903195667218595278E-06
    0.19750973180349809350E-05
   -0.22656773153359469755E-05
   -0.63619526126315641507E-06
    0.10021139560575742276E-05
    0.20731350323121152548E-05
   -0.47119164744672496154E-05
   -0.17792345466802856222E-05
   -0.97379229088577251068E-05
   -0.13079784703080932514E-05
    0.23856452754553683969E-05
    0.63335169756852814873E-06
    0.23216231097926799097E-05
   -0.63117824552059118647E-05
    0.17099460081058541907E-06
    0.52311974631881183462E-01
    0.77336846290412733745E-06
   -0.73577299602353141461E-06
   -0.68283292071345521183E-05
    0.21752912298283368160E-05
   -0.47101814188433199356E-05
    0.19925107678871066804E-05
   -0.63351931634560948477E-06
    0.19466038041174766492E-05
    0.42536883497573896307E-01
   -0.12046146102821521063E-05
    0.19946190606721418536E-05
   -0.94920021303127074370E-05
    0.11596503105180392600E-05
    0.15830053242410295416E-05
    0.15589960404904537342E-05
    0.10159051041895276159E-05
   -0.54628186178928706736E-05
    0.18011290462282219260E-05
   -0.30357518574510521073E-06
   -0.54382456215450827275E-06
    0.19511188720338649082E-05
    0.70670801206045697150E-06
   -0.40643413765913708209E-05
   -0.25362101124998745946E-06
    0.19898062182021671706E-05
    0.25243080614552429767E-05
   -0.35653796123711418222E-05
    0.15602286715468613107E-01
    0.46355747242313233555E-06
   -0.58395081380375102572E-05
    0.10524788484072688616E-06
   -0.31523830405717603467E-05
   -0.82928378140473472230E-05
    0.18963515104459946456E-05
    0.19400826214667153895E-05
    0.55694552031192239306E-06
   -0.50832112549530827925E-06
    0.17455137866602883215E-05
    0.10702182420445774772E-05
   -0.10534318350214509351E-04
    0.15708006979506237507E-05
   -0.28750725709036927091E-05
   -0.57580598449145596862E-05
    0.20053895974175679267E-05
    0.49453212713771290117E-06
   -0.20389817814782697022E-06
    0.12477492181121966689E-05
    0.18545988587469975989E-05
    0.74200016781497367402E-02
    0.13988453166179798973E-05
   -0.11449291583692878746E-05
   -0.42195245437141356909E-06
   -0.30348320829716859753E-06
    0.22756563360870598267E-05
    0.11359688588514393320E-05
   -0.97317001748781837813E-06
    0.48125351235852552081E-06
    0.33409995582631593236E-05
    0.17605126588044249533E-05
    0.18309814983499822968E-05
    0.31179863448202447450E-06
    0.56090299631774379052E-01
    0.52037132233820573846E-01
   -0.49603974004563702014E-06
    0.43159909198085398552E-01
    0.28245343323678555325E-01
    0.15750138820885307385E-05
   -0.71475421060571652215E-05
    0.34023316008581279413E-01
    0.49306608870859906790E-01
    0.13889834420413166057E-05
    0.18010153211833010901E-05
    0.20028138352269946791E-05
    0.54214526597037687604E-06
    0.15769231930730382252E-05
    0.15717351220357711056E-05
    0.23693710542865148820E-06
    0.18063919530289718171E-05
    0.15547591763143566467E-05
    0.23176170375987874115E-05
   -0.60979713271328805823E-05
    0.19204608262438663553E-05
    0.18113855022486667031E-05
    0.21554245600155992611E-05
   -0.70196245307553667591E-06
   -0.83288894936961822008E-06
    0.34411602018647218793E-06
    0.12640009688049415576E-05
   -0.22045405570218893181E-05
    0.18933918509425774463E-05
    0.93197247638244165748E-06
    0.18892504385017239326E-05
    0.19837026791065866412E-05
    0.22209003515324426782E-05
    0.18160437773180973910E-06
    0.49273747342524043535E-01
    0.42275162249591290153E-01
    0.19053718618344315277E-05
    0.18581622162901568558E-05
    0.19341057433972474560E-05
    0.22146334211479232342E-05
    0.31923115063517436274E-01
   -0.21090339755912953069E-08
    0.10340129149011039456E-05
    0.20012500067269481586E-05
    0.11501899678181291034E-06
    0.67628050017231843005E-02
    0.36709142289453101406E-02
    0.37826981088957460534E-06
    0.21835084605779000547E-06
    0.52339094761646144660E-01
   -0.26220765508712179780E-05
    0.97123565519496583008E-07
    0.18644425602279303259E-05
    0.72294100556657205978E-06
    0.23395300073542190517E-01
    0.12088916019715913705E-05
    0.15500113325474509582E-01
    0.63123020117862079642E-02
    0.39893012799977422243E-03
    0.18666128742259091462E-05
    0.38536650650576168009E-01
   -0.18082698797367573206E-05
    0.57376513756323327398E-01
    0.11118287853112149635E-01
    0.12966810833591676975E-05
    0.47885391050223734266E-01
    0.11615827129947817450E-05
    0.18556258811890304777E-05
    0.23433939219545001087E-01
    0.19212475813412327698E-05
   -0.28590869671709901143E-07
    0.19977386113094668070E-05
    0.19922060186690549976E-05
    0.19978328379730940659E-05
    0.19529522345943760738E-05
   -0.13224899764905420404E-04
    0.21124357585012082409E-05
   -0.73065338034562070333E-05
    0.19885510672245975174E-05
    0.17212492313747666576E-05
   -0.49597633027746999375E-06
   -0.29603277660248738457E-06
    0.53632533047626570109E-06
   -0.13669862995313891666E-04
    0.32761873564746732148E-07
    0.16819182239567212536E-05
    0.12196613202671432078E-05
    0.45564738786154646437E-06
    0.15090011304178040262E-05
    0.39838097623308524719E-06
   -0.52930688605841777613E-05
    0.19848777786815213424E-05
    0.19081660760365443626E-05
    0.14210055188581338808E-05
    0.61281063879388558702E-01
   -0.83955285270881161569E-06
    0.53972521484700211588E-06
    0.19723060259083271006E-05
   -0.57104018342339488883E-05
    0.20100356272549848530E-05
    0.19682688110200805142E-05
   -0.98263642697107215629E-06
   -0.54723820377016832201E-06
    0.19306317769817940436E-05
    0.12403866475788680526E-01
    0.15139333215583705587E-05
   -0.80421848512230687217E-05
   -0.31378173766051231762E-06
    0.13548856413995950403E-05
    0.16999011524188806275E-05
    0.19706049541254470630E-05
    0.23341576468931830298E-05
   -0.41120191359405044455E-06
    0.22184688057053351797E-05
    0.19584806613365749081E-05
    0.18861693880802309192E-05
    0.88910240993258596585E-06
    0.14185092943331263000E-05
    0.17213662318702265631E-05
   -0.41098474321842120113E-05
    0.15934435529718551905E-05
    0.15345822103227321962E-05
    0.20053225838577046747E-05
    0.87133820932580882162E-06
    0.17213880714126062406E-05
    0.36525536456720216075E-06
   -0.23779919613879003202E-05
   -0.51576478601110476509E-06
    0.23625930962597938882E-05
    0.23598575754512864498E-05
    0.16326871287378470138E-06
   -0.12268162511694601933E-05
    0.15813622938617784409E-05
   -0.71489675482074926748E-05
    0.21850326396575107707E-05
   -0.18268524290259608718E-05
   -0.10400964419302451694E-07
    0.22564901494690445632E-05
    0.40913711932470918136E-06
   -0.12890161209492015237E-05
    0.14088083405587443456E-03
   -0.42360645466515512840E-07
    0.81707876495457238061E-07
   -0.54357877017908313289E-05
   -0.16958893514968324185E-05
    0.16026625795360943693E-05
    0.17341444524427967887E-05
    0.18434922187307039283E-05
    0.12655023997597996875E-05
    0.30416002828300634783E-07
   -0.13643786161095695891E-05
    0.10966089823038931707E-05
    0.19984787592862257047E-05
    0.17010632559443001911E-05
    0.19008500393969497222E-05
   -0.52018035781543153888E-06
    0.30770696770042012345E-06
    0.19993413458753115824E-05
    0.20043682617109183384E-05
   -0.18925566716753964329E-06
    0.19633699594701194798E-05
    0.57791500563073113507E-06
    0.12051306642554778081E-05
    0.36808689147854271915E-07
    0.54870866303701172628E-01
    0.41784035129853645818E-01
    0.43132925572656494184E-01
    0.47940668686353042627E-01
    0.45574737453269439924E-01
    0.50771474748213515915E-01
    0.56336594677017341748E-01
    0.61090851993467094883E-01
    0.57912374948588973833E-01
    0.36848415261995171033E-01
    0.52733111979126730262E-01
    0.58309182376054632946E-01
    0.50487606031161848252E-01
    0.38262235916555135951E-01
    0.17948155810956552568E-05
    0.12152127760201919936E-05
    0.19799505708867199822E-05
    0.12885386946190927779E-05
    0.12598569187056705568E-05
   -0.87677269335338877321E-06
   -0.19259519137964534486E-05
    0.36543277118038372993E-07
    0.68371573206115674486E-06
   -0.70816779247629669009E-07
    0.36439066061524249487E-06
    0.10362018610125574771E-05
    0.31438525884813726839E-06
    0.61435863470145431924E-06
   -0.18388124338228773914E-06
    0.11836499086595508583E-05
    0.21795598695096320548E-05
    0.19216934010597516628E-05
   -0.87452407318104485172E-06
   -0.20165613928540735049E-05
    0.26405196382463904958E-06
   -0.10688384495675907091E-05
    0.11281023253213510785E-05
    0.19785472939424983441E-05
    0.19143726463157475441E-05
   -0.18844229658906679465E-05
    0.19269695862142043982E-05
    0.17130735433963296947E-05
    0.15748546804432831321E-05
    0.17343479384737731620E-05
    0.87687035787485772906E-06
    0.23627975588678944067E-05
    0.16765179091658840519E-03
    0.95965583625194274958E-02
    0.14609587163448224824E-05
   -0.14220820307066007522E-05
    0.19499375359694953372E-05
    0.88253491994047450360E-06
    0.19854469266582494737E-05
    0.18709621992248502450E-06
    0.57555946780387627349E-06
    0.21792189265243608332E-01
    0.14951263773027117371E-01
    0.10919845536445938334E-05
   -0.20480247622684708586E-06
    0.81314676032113962303E-06
    0.18095845552820077492E-05
    0.21598100110540441451E-05
    0.19356887516348379719E-05
   -0.18382590643529179621E-05
    0.89355496067106862573E-06
    0.82639392092734279703E-06
    0.18615287798529511515E-05
   -0.20920750802580620044E-06
   -0.37723018154197203794E-06
    0.18227803055653895842E-05
    0.10669647019444636262E-05
    0.91814889239451518076E-06
    0.10629919005851965094E-05
    0.12501259936957599118E-05
    0.20041444953550289348E-05
    0.18555516659481025799E-05
    0.17410255556085749506E-05
   -0.36744699860515600627E-05
    0.75924449553644842646E-06
   -0.25410854000036664762E-05
    0.20022040212021636266E-05
    0.20021361425605069942E-05
    0.15179362895486183004E-05
   -0.43193875611108850576E-06
    0.19985773898105210079E-05
    0.13185329587201472779E-05
    0.30458337994342939296E-06
   -0.13606505929392747042E-06
   -0.22677646124609698089E-05
   -0.34000961479234208784E-05
   -0.31608725654113285108E-05
   -0.29199888392536510642E-05
    0.54835697137289696190E-01
    0.59027097434713432511E-01
    0.53934256100575186932E-01
    0.58778715837000783395E-01
    0.17358249308798446527E-05
    0.22159370717992413812E-05
    0.14052007144462224151E-05
    0.68388211405957812589E-06
    0.19787066560951215957E-05
    0.17741783680093821388E-05
    0.17566205485060425151E-05
   -0.27794462576818996373E-05
   -0.20313898765403734112E-05
   -0.25441860038663265311E-05
   -0.22666335791476225705E-05
    0.18375330591025279876E-05
    0.16294763975369867641E-05
    0.12942991852970819278E-05
    0.42192506392470492035E-06
   -0.12343821602942381426E-05
   -0.12959941056945293915E-05
    0.97448081040629926006E-06
    0.11612823232001877032E-05
   -0.12248177204988285218E-05
   -0.31060706476455548686E-05
    0.22306733860777298344E-06
   -0.60174088102941319388E-05
    0.14654289796998217602E-05
   -0.49960380241842033820E-05
    0.17495444466545716190E-05
    0.53355149398968024322E-07
    0.12380991625912366005E-05
   -0.89873842751450784758E-06
    0.18806458481295673696E-05
   -0.61567195045841029986E-06
    0.47989699334142280159E-08
    0.13403303825056157719E-05
    0.16731129285456988702E-05
    0.27215923504970773034E-01
    0.35137927963826406930E-01
    0.81098368092705694913E-06
    0.22836904681727167813E-05
    0.18826300491409507655E-05
    0.10586459945689883939E-06
    0.90045647881850497029E-06
    0.67744109103128362362E-06
    0.10889346522404705209E-05
    0.14137554315958515978E-05
    0.15731949961630975555E-05
    0.16515441253588811484E-05
    0.17165346857944893033E-05
    0.14857527929549943801E-05
    0.45859066160466158135E-01
    0.49027134512088781093E-01
    0.53295932658177315455E-01
    0.59509694314575506402E-01
   -0.84099790111116469265E-06
    0.15249248979846402275E-05
    0.16139679240352929304E-05
    0.30135442673076295462E-06
   -0.11069585000630904473E-06
    0.18792488267605562029E-05
    0.11107613956966571297E-05
   -0.11671085006758678495E-05
   -0.43776793786721121491E-05
   -0.20581781905308062424E-05
    0.14892933787135913653E-05
   -0.68930060876094485307E-06
    0.17064800311521955400E-06
    0.16379483268751269011E-05
    0.18292753607542727108E-06
   -0.28994556718224488390E-05
    0.36615624303472498384E-06
   -0.40465085359408887189E-05
   -0.35580030347433318265E-05
    0.38948589515513288057E-06
   -0.33310636988999483581E-05
   -0.80270298633400193397E-05
    0.15052723696483241489E-05
   -0.39469279203961357282E-06
    0.17318539551288557738E-05
    0.17930047592448723875E-05
    0.10119282647316520632E-05
   -0.54878577131622216622E-06
    0.95922095647352649945E-07
    0.70303830202531888240E-06
    0.13368503809873289848E-05
    0.18025410969024921100E-05
    0.23685495409035842442E-05
    0.23400951865857287400E-05
   -0.21909745223098508227E-06
    0.24635742261829742645E-06
    0.22489080195607579922E-05
    0.22972344711915946208E-05
    0.20037989663650174577E-05
    0.21493511939883146540E-05
    0.22704065223599517820E-05
    0.23774892296407167898E-05
    0.19292367775128144894E-05
    0.15743897954277415291E-05
    0.19557600786773161347E-05
    0.12227190732276877554E-05
    0.17721258388532040759E-05
    0.19958357019545580949E-05
    0.16188790309087594441E-05
    0.16764855966499548616E-05
    0.13990329047853049984E-05
    0.18419675546240510379E-05
    0.16909857220195019503E-05
    0.19990752773121647261E-05
    0.49470333459624510342E-01
    0.58023363224259730253E-01
    0.72656320490231983787E-06
    0.87162442589932241199E-07
   -0.77197839342738704562E-06
   -0.25379203164621563024E-06
   -0.19726763720566745787E-05
    0.10662440385243550387E-05
    0.15805890716411313202E-05
    0.19381969456182613789E-05
    0.58896426929801718895E-06
   -0.22456360941820468645E-05
    0.10022633025724447610E-05
    0.12241120341479816196E-05
    0.18595730531030609655E-05
    0.14636043387695289194E-05
    0.20032341715824237867E-05
    0.18386523612336251912E-05
   -0.31117897820644967914E-06
   -0.95395331536535839431E-06
    0.10532898586921559291E-05
   -0.25289482080201416048E-05
    0.20178784752411365433E-07
   -0.50965799603768021643E-06
    0.10076579807465430126E-05
   -0.17827347449895516732E-05
   -0.27911996849568916099E-05
   -0.17395682816642276367E-05
   -0.20865643333947543706E-05
    0.24448631475165337513E-07
   -0.47000474429219071010E-05
   -0.39125936205790424896E-05
   -0.82045181040008330510E-05
    0.88839757854131796774E-07
   -0.40327092713733304200E-05
    0.84788375174677706293E-06
    0.21201406784752200023E-05
    0.21781194223469488172E-05
   -0.50768214073263874996E-06
    0.50918512125385604421E-06
    0.10008858893588681406E-06
    0.87306389776605475662E-06
    0.14824057194439709225E-05
    0.14661031053881394738E-05
   -0.15704691240594042258E-06
    0.82200674832126566955E-06
    0.18507364012670160543E-05
    0.12730334456004536238E-05
    0.23297392814084481690E-05
    0.19944489009695493301E-05
   -0.21085740769198417850E-05
   -0.54637252569137776803E-06
    0.22784600198402336003E-05
    0.22362658863935867812E-05
    0.15682856728178183505E-05
    0.18269916650586006855E-05
    0.21050764610017885374E-05
    0.17233821883299776327E-05
    0.18659241925025756518E-05
    0.75937411006421715065E-06
   -0.14475208342345169209E-04
   -0.22040509337497823707E-07
    0.18532513481381991639E-05
    0.15152618069678709493E-05
    0.36573471675328110507E-06
    0.11536430972510707402E-05
    0.44573034568374298365E-06
    0.17274351552852499018E-05
   -0.27170500095484034616E-05
   -0.18861125832548404953E-05
    0.93992224870633560353E-06
    0.26702974831624236009E-06