# vtk DataFile Version 3.0
LAPLACIEN  2D
ASCII
DATASET UNSTRUCTURED_GRID
 POINTS        1083  float
  0.25752000000000003       0.83521000000000001        0.0000000000000000     
  0.26692436000000003       0.82361669999999998        0.0000000000000000     
  0.12755760999999999       0.37286407999999999        0.0000000000000000     
  0.16947000000000001       0.36312000000000000        0.0000000000000000     
  0.20556749999999999       0.30943999999999999        0.0000000000000000     
  0.19808000000000001       0.30240000000000000        0.0000000000000000     
  0.17829000000000000       0.29613000000000000        0.0000000000000000     
  0.16072427000000000       0.27611573000000000        0.0000000000000000     
  0.20518000000000000       0.25756000000000001        0.0000000000000000     
  0.14513182999999999       0.15495659000000001        0.0000000000000000     
  0.18475000000000000       0.25733000000000000        0.0000000000000000     
  0.15320000000000000       0.28981000000000001        0.0000000000000000     
   8.4010000000000001E-002  0.28726000000000002        0.0000000000000000     
  0.12066000000000000       0.31644000000000000        0.0000000000000000     
  0.15419146000000000       0.34997146000000001        0.0000000000000000     
   9.1609999999999997E-002  0.41126000000000001        0.0000000000000000     
   8.2839999999999997E-002  0.24906000000000000        0.0000000000000000     
  0.10719500000000000       0.24906000000000000        0.0000000000000000     
  0.10394500000000000       0.24026000000000000        0.0000000000000000     
  0.10306999999999999       0.16439999999999999        0.0000000000000000     
  0.20605000000000001        7.9089999999999994E-002   0.0000000000000000     
  0.42243181000000002       0.83768843000000004        0.0000000000000000     
  0.40538000000000002       0.78705000000000003        0.0000000000000000     
  0.42062500000000003       0.70743999999999996        0.0000000000000000     
  0.39167000000000002       0.62682000000000004        0.0000000000000000     
  0.38775999999999999       0.57162500000000005        0.0000000000000000     
  0.39058282000000000       0.54871530000000002        0.0000000000000000     
  0.39464117999999998       0.46212064000000003        0.0000000000000000     
  0.39241130000000002       0.45290363000000000        0.0000000000000000     
  0.38384000000000001       0.55516500000000002        0.0000000000000000     
  0.38069999999999998       0.59557000000000004        0.0000000000000000     
  0.36735092000000003       0.72975095999999995        0.0000000000000000     
  0.37138180999999998       0.84873708999999997        0.0000000000000000     
  0.31856716000000002       0.83411802999999995        0.0000000000000000     
  0.65566999999999998       0.71865999999999997        0.0000000000000000     
  0.62348499999999996       0.71865999999999997        0.0000000000000000     
  0.63253999999999999       0.72650000000000003        0.0000000000000000     
  0.63397590999999998       0.79238797000000005        0.0000000000000000     
  0.61133999999999999       0.77437999999999996        0.0000000000000000     
  0.58667000000000002       0.75475999999999999        0.0000000000000000     
  0.51746738999999997       0.83310978000000002        0.0000000000000000     
  0.51022000000000001       0.76192000000000004        0.0000000000000000     
  0.49914890000000001       0.74624727000000002        0.0000000000000000     
  0.50311967000000002       0.80879526000000002        0.0000000000000000     
  0.50158999999999998       0.83067000000000002        0.0000000000000000     
  0.46398766000000002       0.86013877000000005        0.0000000000000000     
  0.41615999999999997       0.37445000000000001        0.0000000000000000     
  0.43026551000000002       0.31678289999999998        0.0000000000000000     
  0.39694000000000002       0.24930500000000000        0.0000000000000000     
  0.41994211999999997       0.11642168999999999        0.0000000000000000     
  0.43478000000000000       0.10487000000000000        0.0000000000000000     
  0.57060999999999995       0.13406000000000001        0.0000000000000000     
  0.69662999999999997       0.19536999999999999        0.0000000000000000     
  0.71886000000000005       0.24690999999999999        0.0000000000000000     
  0.74097999999999997       0.33731000000000000        0.0000000000000000     
  0.72538453999999997       0.37890159000000001        0.0000000000000000     
  0.73320112000000004       0.40760169000000002        0.0000000000000000     
  0.70620000000000005       0.41999999999999998        0.0000000000000000     
  0.74504999999999999       0.48705999999999999        0.0000000000000000     
  0.68996999999999997       0.48530000000000001        0.0000000000000000     
  0.66213999999999995       0.47589999999999999        0.0000000000000000     
  0.63373000000000002       0.47414000000000001        0.0000000000000000     
  0.68861000000000006       0.55347000000000002        0.0000000000000000     
  0.62687669000000001       0.62714972999999996        0.0000000000000000     
  0.51632500000000003       0.26038000000000000        0.0000000000000000     
  0.66345008000000005       0.20335998999999999        0.0000000000000000     
  0.68430000000000002       0.34078999999999998        0.0000000000000000     
  0.59737622999999995       0.42491739000000001        0.0000000000000000     
  0.55410000000000004       0.41776999999999997        0.0000000000000000     
  0.52314000000000005       0.40723999999999999        0.0000000000000000     
  0.46111999999999997       0.32850000000000001        0.0000000000000000     
  0.67330999999999996       0.19785000000000000        0.0000000000000000     
  0.69296999999999997       0.22594000000000000        0.0000000000000000     
  0.40191943000000002       0.86367486999999998        0.0000000000000000     
  0.12271248000000000       0.14762657000000001        0.0000000000000000     
  0.14852475000000001       0.12337326999999999        0.0000000000000000     
  0.74936000000000003       0.44945000000000002        0.0000000000000000     
  0.61883999999999995       0.82247000000000003        0.0000000000000000     
  0.26941311000000001       0.82690965999999999        0.0000000000000000     
  0.14224880000000001       0.37582204000000002        0.0000000000000000     
  0.16781681000000001       0.35746910999999998        0.0000000000000000     
  0.38384000000000001       0.56583499999999998        0.0000000000000000     
  0.17475499999999999       0.26156499999999999        0.0000000000000000     
  0.16588214000000001       0.27095785999999999        0.0000000000000000     
  0.19754658000000000       0.25190794000000000        0.0000000000000000     
  0.18240999999999999       0.26306000000000002        0.0000000000000000     
  0.38775999999999999       0.58301250000000004        0.0000000000000000     
   9.2598787000000002E-002  0.28369930999999998        0.0000000000000000     
  0.12988000000000000       0.31154999999999999        0.0000000000000000     
  0.15971573000000000       0.35549573000000001        0.0000000000000000     
  0.43006250000000001       0.70743999999999996        0.0000000000000000     
  0.40538000000000002       0.77361250000000004        0.0000000000000000     
  0.42100500000000002       0.81830000000000003        0.0000000000000000     
  0.41854986000000000       0.69665306000000005        0.0000000000000000     
  0.38971499999999998       0.61060999999999999        0.0000000000000000     
  0.38773564999999999       0.45901181000000002        0.0000000000000000     
  0.39590059000000000       0.45441031999999998        0.0000000000000000     
  0.38384000000000001       0.54735250000000002        0.0000000000000000     
  0.36502704000000002       0.72473217000000001        0.0000000000000000     
  0.32337357999999999       0.82795901000000005        0.0000000000000000     
  0.70706773000000001       0.36044921000000002        0.0000000000000000     
  0.74097999999999997       0.35293500000000000        0.0000000000000000     
  0.74097999999999997       0.31773499999999999        0.0000000000000000     
  0.71235000000000004       0.23181499999999999        0.0000000000000000     
  0.58099500000000004       0.12427000000000001        0.0000000000000000     
  0.50926802999999998       0.81618526000000002        0.0000000000000000     
  0.39694000000000002       0.25951249999999998        0.0000000000000000     
  0.43692275000000003       0.32087145000000000        0.0000000000000000     
  0.41615999999999997       0.32374500000000000        0.0000000000000000     
  0.43379000000000001       0.30536999999999997        0.0000000000000000     
  0.56120943999999995       0.14292195999999999        0.0000000000000000     
  0.56101000000000001       0.12778999999999999        0.0000000000000000     
  0.72713519000000004       0.36131693999999998        0.0000000000000000     
  0.74289499999999997       0.49852000000000002        0.0000000000000000     
  0.70664000000000005       0.43221999999999999        0.0000000000000000     
  0.53013999999999994       0.41189999999999999        0.0000000000000000     
  0.54561999999999999       0.41584500000000002        0.0000000000000000     
  0.71071649000000003       0.55600200000000000        0.0000000000000000     
  0.67979000000000001       0.56306999999999996        0.0000000000000000     
  0.62555094000000000       0.62995129000000005        0.0000000000000000     
  0.66964504000000002       0.20812000000000000        0.0000000000000000     
  0.58421811000000001       0.42326870000000000        0.0000000000000000     
  0.59798264000000001       0.43157266000000000        0.0000000000000000     
  0.54939000000000004       0.42473000000000000        0.0000000000000000     
  0.52732000000000001       0.40139999999999998        0.0000000000000000     
[...]
 CELL_DATA        1963
 SCALARS Cells_density float
 LOOKUP_TABLE default
    0.53366393117939747714E+00
    0.83683722096066948115E+00
    0.94784555433179906725E+00
    0.89185465624154525166E+00
    0.71032181827760298987E+00
    0.54673544908682047971E+00
    0.89144384211522087469E+00
    0.17243143550478251536E+00
    0.23599777494727589011E+00
    0.45521689990729347075E+00
    0.26790535632258427601E+00
    0.83141768665901427671E+00
    0.29199841555394845383E+00
    0.65777135645443007839E+00
    0.80999289702758625609E+00
    0.97968538844208963301E+00
    0.86659110124901217453E+00
    0.35207908597893250446E+00
    0.40926477811999228962E+00
    0.95668356799079412589E+00
    0.37817052548482793517E+00
    0.34305498184046756549E+00
    0.51714533915674854025E+00
    0.23065105573388527960E+00
    0.28487448773990009521E+00
    0.56805710423304422996E+00
    0.32015480157407610884E+00
    0.46384968725460828942E+00
    0.76885885892590277724E+00
    0.64149638789437257724E+00
    0.77512406521804655402E+00
    0.15228816630182009928E+00
    0.23087577818417978626E+00
    0.75463628382488245894E+00
    0.25176000441721768652E+00
    0.46986686851030845524E+00
    0.84690156316780373924E+00
    0.87666876123418990829E+00
    0.58431112096861215210E+00
    0.73209854466761359326E+00
    0.83223563601625560882E+00
    0.83127255952847378673E+00
    0.78093240305764477505E+00
    0.72115811795426221220E+00
    0.55877855380441143751E+00
    0.73226797967448720161E+00
    0.68176927103047357814E+00
    0.79519136576923499238E+00
    0.20785821176112836972E+00
    0.16690995214029391569E+00
    0.16056194039838564414E+00
    0.22926037373019581000E+00
    0.23486780838843177022E+00
    0.49838456454906648885E+00
    0.27217825924949701211E+00
    0.78776716703689197985E+00
    0.54991191747335743667E+00
    0.21872287602908402349E+00
    0.51827196854583090779E+00
    0.57360069734248686490E+00
    0.76028182207263017567E+00
    0.16391467312587607030E+00
    0.78643993978440673853E+00
    0.25829541332356054095E+00
    0.44773530712864845205E+00
    0.24555683469018360632E+00
    0.58871711510711088877E+00
    0.52770415579132379236E+00
    0.98239718673355103107E+00
    0.87316941638133604986E+00
    0.85240609525510291355E+00
    0.83521073672664780663E+00
    0.25822516022011599013E+00
    0.18824065491880970225E+00
    0.15208419265420872191E+00
    0.92788198144908051734E+00
    0.20414784308162967075E+00
    0.18674919289753258433E+00
    0.70204632379222808858E+00
    0.22661281120771167852E+00
    0.60138255691226760735E+00
    0.93424963007852079855E+00
    0.24182358628724345828E+00
    0.15852537084713211324E+00
    0.87743168971671370304E+00
    0.52238851999347934996E+00
    0.81335182616974155412E+00
    0.10021604315945100705E+01
    0.71409892035117494835E+00
    0.96017047684660516982E+00
    0.26996146215690614012E+00
    0.28840682735263523107E+00
    0.23429935044689656487E+00
    0.59037813087143597990E+00
    0.27082507207848049990E+00
    0.31664086546726366578E+00
    0.69466849528438057160E+00
    0.52356012614969082986E+00
    0.31612486339693235404E+00
    0.24654243043612861230E+00
    0.22615575777807431224E+00
    0.27440967387472164907E+00
    0.55256585389396195573E+00
    0.63207802242555366501E+00
    0.28621728572444860017E+00
    0.24523434559214324358E+00
    0.57500341078649208626E+00
    0.23747630255244764341E+00
    0.31965582032217837449E+00
    0.27733052455869777742E+00
    0.79886953877698174686E+00
    0.70363395818413088101E+00
    0.46518540823421666852E+00
    0.33440214016148400722E+00
    0.79185506944808081720E+00
    0.62466208502741549236E+00
    0.56727901055886142956E+00
    0.75888670278692327287E+00
    0.69063390147238246097E+00
    0.66830562672810567282E+00
    0.65172667809498385783E+00
    0.77194451610560077537E+00
    0.51740754831199953223E+00
    0.76555967577664119084E+00
    0.56418601534516155116E+00
    0.42468237436130545914E+00
    0.17989530253519805947E+00
    0.36290669551485776889E+00
    0.23076624992970559691E+00
    0.29842122062585241249E+00
    0.58582930961476586962E+00
    0.63888670405784520057E+00
    0.46613540392256758160E+00
    0.34321164233536194388E+00
    0.52025497067309744992E+00
    0.81998210681305183645E+00
    0.27603674135276468071E+00
    0.73227497094795723775E+00
    0.60064510935710124784E+00
    0.39580904923493637204E+00
    0.69279523314112834154E+00
    0.93105259454163580290E+00
    0.77828499672679807286E+00
    0.80202585106000623405E+00
    0.26141199531254566413E+00
    0.27380641411056921841E+00
    0.10199759430037476093E+01
    0.34977851984114521899E+00
    0.27284513607982552319E+00
    0.10181018859230479556E+01
    0.91910436137428730419E+00
    0.26625904063305366742E+00
    0.83737656831094864351E+00
    0.79777524819282252810E+00
    0.63466760599298976953E+00
    0.29288419300597851036E+00
    0.27630810421410983979E+00
    0.29618883971042070380E+00
    0.94651927293770676819E+00
    0.34301123274969413934E+00
    0.94123057949678801126E+00
    0.30034891886756764912E+00
    0.85364007894928883857E+00
    0.28415606354200001471E+00
    0.19715361014073379264E+00
    0.92033766699953090118E+00
    0.20624244138334341114E+00
    0.13917713102220560795E+00
    0.25126202965142918622E+00
    0.67042093626022003505E+00
    0.29751566693965336707E+00
    0.10090197612701032881E+01
    0.10268849135296804764E+01
    0.95832073890050428755E+00
    0.10191450396927703714E+01
    0.28700399923482705633E+00
    0.31887680195315670773E+00
    0.10267455422017386368E+01
    0.10192871269093510822E+01
    0.94169685739283381931E+00
    0.45488848633265110966E+00
    0.53163699421538634926E+00
    0.99360095222019939598E+00
    0.10099523972530530802E+01
    0.81612128787705284783E+00
    0.45663514624373163775E+00
    0.80244985055087214576E+00
    0.94111493734445783588E+00
    0.79164322055674141154E+00
    0.97430105527580435076E+00
    0.26198743624427750509E+00
    0.27569516062506521648E+00
    0.38052767577580470792E+00
    0.58783407945182941656E+00
    0.79625792308932463737E+00
    0.21808954786151793503E+00
    0.65106814994338202407E+00
    0.89679818570298275304E+00
    0.79940045585443553211E+00
    0.67033954320859134857E+00
    0.49368956429556593024E+00
    0.12845706958523531172E+00
    0.65717001652110085264E+00
    0.57186290318859511750E+00
    0.73351846832654488129E+00
    0.14981378525678301639E+00
    0.41069361586045632917E+00
    0.10265290530231989674E+01
    0.16242585020721039823E+00
    0.90297490061350094148E+00
    0.46693670132426740027E+00
    0.40287931001050947266E+00
    0.31477405839010413890E+00
    0.52718063759147881786E+00
    0.29287989072588022088E+00
    0.72623082479858647176E+00
    0.73831666499359538403E+00
    0.72670454383984461888E+00
    0.35128150211575409623E+00
    0.58054847848285451306E+00
    0.65649611633506621544E+00
    0.22618107084187044631E+00
    0.67125485518907179738E+00
    0.57018831980063322540E+00
    0.29760653990193941532E+00
    0.20586958973561153563E+00
    0.30752210456115075532E+00
    0.77367030841778916539E+00
    0.20253929861202155105E+00
    0.15360818998300382332E+00
    0.82868069263979682315E+00
    0.42136974791881121050E+00
    0.73981772707750992346E+00
    0.45931857626274608108E+00
    0.16707687713902333315E+00
    0.19479293201920414025E+00
    0.12931039669803537362E+00
    0.68195548392889493439E+00
    0.53012864087913413869E+00
    0.70615993997539516780E+00
    0.63325640262835558580E+00
    0.54118904780278220823E+00
    0.49301670814523690378E+00
    0.53269530698996492291E+00
    0.21822157114895138208E+00
    0.83324942647746524926E+00
    0.19522614063892432257E+00
    0.68159767026910511589E+00
    0.65619632619795853490E+00
    0.64048644310564772919E+00
    0.13866549667797534173E+00
    0.21029701248024190718E+00
    0.12921856911182885708E+00
    0.98254527589378648500E+00
    0.91015114059270363356E+00
    0.13899802084380336042E+00
    0.94485852766525524338E+00
    0.15053090748956499123E+00
    0.12840588888230289322E+00
    0.12840588751896375719E+00
    0.12840589000917018714E+00
    0.15559767193406429109E+00
    0.12840616168621105109E+00
    0.12840588688897247582E+00
    0.93337779484174288047E+00
    0.53660413592073064049E+00
    0.87138693761954411077E+00
    0.41765216522947024025E+00
    0.84642038688728948870E+00
    0.94558856209778729962E+00
    0.41384988161417601837E+00
    0.90822529294109166642E+00
    0.42870163970135555243E+00
    0.89886410863772270297E+00
    0.93808948854914986359E+00
    0.13469596500556063612E+00
    0.41629002253544095113E+00
    0.27175729161997741468E+00
    0.93048612931272034476E+00
    0.12840589407921593201E+00
    0.40416105648309086362E+00
    0.66680417920778978225E+00
    0.24036707665411533030E+00
    0.79671391367352850654E+00
    0.88943174290983550989E+00
    0.61925026785794412554E+00
    0.37783398708105098152E+00
    0.98718640577150129634E+00
    0.97701880653495043472E+00
    0.91327270469796806296E+00
    0.81022344355574282826E+00
    0.27759344657708834303E+00
    0.27660850425609045944E+00
    0.86875050159581601594E+00
    0.32619355346031769782E+00
    0.78194447631029717627E+00
    0.25093596444056620598E+00
    0.81362983747109596244E+00
    0.39754602399125849033E+00
    0.80798400217813459712E+00
    0.97799316920329970593E+00
    0.89360572010894734341E+00
    0.42626026255353288708E+00
    0.87199447193902823727E+00
    0.88943328258348042237E+00
    0.47075171304642343673E+00
    0.76976066146314314764E+00
    0.70804361520809067088E+00
    0.30060052313840673888E+00
    0.27012976020343781869E+00
    0.81496930162248149010E+00
    0.73668823728834387232E+00
    0.22372875490804247645E+00
    0.95748064593867554528E+00
    0.46270715009420332331E+00
    0.85062846405573000474E+00
    0.81119576457939068792E+00
    0.53958664541886269816E+00
    0.25239738407178491375E+00
    0.79639978095304020389E+00
    0.25879715913143863659E+00
    0.25453799654340913960E+00
    0.26944085289307562192E+00
    0.26333931499489710015E+00
    0.87436094988408330497E+00
    0.28145342306027770762E+00
    0.86723919883716649171E+00
    0.85528612921061708541E+00
    0.25477626885832654891E+00
    0.19357955362058298920E+00
    0.85149353877393818557E+00
    0.77590030592643521867E+00
    0.77661080280709748891E+00
    0.74512221407535750295E+00
    0.82836688710901240640E+00
    0.80745280088929738405E+00
    0.13662757268793848664E+00
    0.79681204484316559000E+00
    0.58002400884191651631E+00
    0.65772254851979461421E+00
    0.25123345841642874543E+00
    0.22825641340571642401E+00
    0.70121196424938270209E+00
    0.20872215921864187282E+00
    0.67671789352972622211E+00
    0.19080464299602797884E+00
    0.13134261092733354181E+00
    0.16658623806510045040E+00
    0.74891220283301751515E+00
    0.77924741993421009489E+00
    0.63607351413512913663E+00
    0.28094459816072303582E+00
    0.34451343493321306966E+00
    0.48380667774656521685E+00
    0.85267787455078081216E+00
    0.98900815633092054036E+00
    0.93537696086969523979E+00
    0.60959243903965543154E+00
    0.95546529001277991089E+00
    0.94533985448827717590E+00
    0.75705557180461113820E+00
    0.55334141828759164650E+00
    0.51968095985351137056E+00
    0.78218527188302577891E+00
    0.77339477133813128162E+00
    0.38110455400609433152E+00
    0.85055286626235315772E+00
    0.84181103781730004521E+00
    0.42186058187378838724E+00
    0.20267542965390478171E+00
    0.10153653996978848628E+01
    0.99912905612170255232E+00
    0.82169965089281427062E+00
    0.90081123321221612255E+00
    0.51638875747063672783E+00
    0.54465431844644240922E+00
    0.86017334077085660926E+00
    0.21186745835604078869E+00
    0.83017439934749748254E+00
    0.34695126016350036346E+00
    0.23321334256989284528E+00
    0.95278572627697322162E+00
    0.85186347736663337038E+00
    0.91401612369343243625E+00
    0.89146811735763931139E+00
    0.55725768584885149171E+00
    0.22132277895793525668E+00
    0.49110830990422038589E+00
    0.22307899662270253005E+00
    0.74936909997137957085E+00
    0.84160757850012002379E+00
    0.79998756950590099724E+00
    0.20522982135140829807E+00
    0.87029837624701722465E+00
    0.19343943251411527262E+00
    0.15294347299746038904E+00
    0.62022149712688623424E+00
    0.53359439372097516863E+00
    0.14721345739795632657E+00
    0.70064003597121338185E+00
    0.25269028487744998879E+00
    0.24100107644571674981E+00
    0.70476492681823288411E+00
    0.22662953658865814255E+00
    0.23338480289176882776E+00
    0.15133079477608060714E+00
    0.92617879758250942768E+00
    0.92455784000628593589E+00
    0.19143801225788201203E+00
    0.98935112036116101830E+00
    0.59681844846542253524E+00
    0.47895791730957992804E+00
    0.10087890189160690912E+01
    0.68722984583212110010E+00
    0.27362553750143253639E+00
    0.82460957050250538458E+00
    0.56612947289406545526E+00
    0.97631455669585842649E+00
    0.21719121351035683420E+00
    0.41083244643702410137E+00
    0.13928728068529702688E+00
    0.78603549805927031002E+00
    0.92079586356113474199E+00
    0.24309730610307153653E+00
    0.15976806808798482695E+00
    0.91348939065532830384E+00
    0.13380416107659809377E+00
    0.85120189999419459959E+00
    0.12840591957704872161E+00
    0.12990696748602717503E+00
    0.19826556179729468155E+00
    0.23158351345024930090E+00
    0.20208712402150022514E+00
    0.19037145196907770406E+00
    0.14166633614076223902E+00
    0.24925996831837338163E+00
    0.61745269319835782706E+00
    0.28812371129858760366E+00
    0.19883265667694249856E+00
    0.12910296341038191015E+00
    0.12842885296756736957E+00
    0.12843739994443689745E+00
    0.71400635580107951750E+00
    0.61480569991045908029E+00
    0.30036728340110629976E+00
    0.29712666635863421716E+00
    0.73646462229834075419E+00
    0.98569340424684093183E+00
    0.13323059540719311977E+00
    0.12840730574337841374E+00
    0.12843513532038922098E+00
    0.26312417648896291311E+00
    0.19217952607547542088E+00
    0.20417304826472171264E+00
    0.17782802884625853457E+00
    0.64700104827107263183E+00
    0.14679139761072740322E+00
    0.18312615571962748140E+00
    0.13547702380510120990E+00
    0.26541768424788908520E+00
    0.35623118602154385526E+00
    0.39022574891008310338E+00
    0.40004359036861059096E+00
    0.39987237842611139671E+00
    0.97614705133963575179E+00
    0.39998549572739588998E+00
    0.23859225703345715575E+00
    0.49519901456799980677E+00
    0.33485106645330336983E+00
    0.40003769349146078849E+00
    0.37900813396863713978E+00
    0.39713874176974095498E+00
    0.21567167750671842330E+00
    0.40006729436231736052E+00
    0.12864208578881020095E+00
    0.20694797144606974504E+00
    0.19169554083252265952E+00
    0.61959988583001701645E+00
    0.15578169691240217887E+00
    0.94553784242735372523E+00
    0.84250724648278574325E+00
    0.83099424797617305050E+00
    0.77863836583262324709E+00
    0.38818373143102857803E+00
    0.81788276910036294964E+00
    0.51863579109010304879E+00
    0.69853907137624193791E+00
    0.84701367696935048190E+00
    0.78241458435154309647E+00
    0.73273419889004087757E+00
    0.40000464049249750964E+00
    0.78066884761656141212E+00
    0.53421363036150792958E+00
    0.12881595553470398530E+00
    0.66709119347110912290E+00
    0.78309411888667612711E+00
    0.93088846876182551604E+00
    0.55864642394367802769E+00
    0.77620872977617128008E+00
    0.99949089058231532778E+00
    0.38331575291030484109E+00
    0.90565958898336407223E+00
    0.56432108630487964884E+00
    0.34529291418244273393E+00
    0.50015478667378876487E+00
    0.38657005182551773537E+00
    0.65662775523169236713E+00
    0.60816447952379437680E+00
    0.19649825040409316101E+00
    0.24828685148635756819E+00
    0.15782063611005320292E+00
    0.15084899451506880719E+00
    0.82736401407256088270E+00
    0.92230935674995817575E+00
    0.94620379893731565435E+00
    0.87040540885996009468E+00
    0.54460500565327341072E+00
    0.39049485986309945273E+00
    0.51797708004479348087E+00
    0.26197466292366872187E+00
    0.10181571892864826889E+01
    0.10103514898342311756E+01
    0.96615654552714314018E+00
    0.91299750443655447452E+00
    0.98940310009211129838E+00
    0.90645696428830113689E+00
    0.31032797384888888281E+00
    0.96142860912045413624E+00
    0.80908968697031080630E+00
    0.50312771529942534876E+00
    0.39046534911218605535E+00
    0.21218353037299753083E+00
    0.86540210517126625600E+00
    0.69843880269276170658E+00
    0.25184937864642570338E+00
    0.18859155696066595698E+00
    0.63828075452682497826E+00
    0.14530582772750355591E+00
    0.78807123911306653508E+00
    0.93266007112139337476E+00
    0.81996030568332756161E+00
    0.20608616735308005197E+00
    0.82914767511728493243E+00
    0.22662568895561707727E+00
    0.52470606189962842869E+00
    0.19901859864344489948E+00
    0.97940544444480903685E+00
    0.47272418815667904823E+00
    0.42585965083196652969E+00
    0.10228004314016618803E+01
    0.84158764419284060043E+00
    0.92337168823591120326E+00
    0.97295706692430194984E+00
    0.73301029802688377757E+00
    0.10268862351515244402E+01
    0.95105281458496315761E+00
    0.86707810662904527543E+00
    0.10040347815579628854E+01
    0.40346632275675992085E+00
    0.19761655149875820281E+00
    0.45233094103771082084E+00
    0.50388064946560273683E+00
    0.41797121590307151351E+00
    0.76868642909885909198E+00
    0.18684260027397459059E+00
    0.66777516286434313031E+00
    0.73273024334581648986E+00
    0.57693919058714371317E+00
    0.80500369273652827573E+00
    0.58696278538659008017E+00
    0.53999866359795367643E+00
    0.56638103051445876090E+00
    0.92564753048750458841E+00
    0.25035931965191499105E+00
    0.35648514955422366812E+00
    0.81250717106953218583E+00
    0.93875797027865592881E+00
    0.78536172929049263836E+00
    0.44063503045944113490E+00
    0.83434911184091198333E+00
    0.42059389515828810024E+00
    0.43515318538586839070E+00
    0.25499825500135991918E+00
    0.23025483546795214029E+00
    0.89970875708927233738E+00
    0.82999404675011978494E+00
    0.20161670771181261497E+00
    0.28177251967933608645E+00
    0.48281772637784314828E+00
    0.52589379173084049857E+00
    0.41563960585000570003E+00
    0.42034648294124188350E+00
    0.46038830541046815714E+00
    0.45079079533963595239E+00
    0.34814205957596239260E+00
    0.26956088366307678905E+00
    0.44058225266445905088E+00
    0.42808947551895981665E+00
    0.32621164335888708230E+00
    0.42946915377595995533E+00
    0.48388691814255274659E+00
    0.40391885855585718534E+00
    0.47641359233482172275E+00
    0.46669053608841182257E+00
    0.57400566100904160116E+00
    0.41759709104433473392E+00
    0.42248615951928469858E+00
    0.61071475841603273249E+00
    0.41856160369153322387E+00
    0.59272254614371333581E+00
    0.72350881951442191919E+00
    0.81899125908782566263E+00
    0.66200804526035339492E+00
    0.81177753741576275104E+00
    0.41165619722002400049E+00
    0.41736956451453677275E+00
    0.60635471581728772605E+00
    0.52089373471551192463E+00
    0.73315744398884641342E+00
    0.47085785520654216407E+00
    0.22074156398675318091E+00
    0.41125015864017283596E+00
    0.53978073644980018031E+00
    0.45222051695678711081E+00
    0.50826423714543944588E+00
    0.50524611359432503033E+00
    0.59110185701359463373E+00
    0.20985381029734495595E+00
    0.67418687072627325740E+00
    0.48856980005121170008E+00
    0.54979519791046960187E+00
    0.65181802635189767248E+00
    0.54635756046431227517E+00
    0.55356970772651559187E+00
    0.52273089584007703667E+00
    0.46007870870412170827E+00
    0.42574631774622123670E+00
    0.55932105375067386888E+00
    0.86527671774358905221E+00
    0.34727638179548614428E+00
    0.63399425501334027988E+00
    0.61633423478423421393E+00