# vtk DataFile Version 3.0
LAPLACIEN  2D
ASCII
DATASET UNSTRUCTURED_GRID
 POINTS        1083  float
  0.25752000000000003       0.83521000000000001        0.0000000000000000     
  0.26692436000000003       0.82361669999999998        0.0000000000000000     
  0.12755760999999999       0.37286407999999999        0.0000000000000000     
  0.16947000000000001       0.36312000000000000        0.0000000000000000     
  0.20556749999999999       0.30943999999999999        0.0000000000000000     
  0.19808000000000001       0.30240000000000000        0.0000000000000000     
  0.17829000000000000       0.29613000000000000        0.0000000000000000     
  0.16072427000000000       0.27611573000000000        0.0000000000000000     
  0.20518000000000000       0.25756000000000001        0.0000000000000000     
  0.14513182999999999       0.15495659000000001        0.0000000000000000     
  0.18475000000000000       0.25733000000000000        0.0000000000000000     
  0.15320000000000000       0.28981000000000001        0.0000000000000000     
   8.4010000000000001E-002  0.28726000000000002        0.0000000000000000     
  0.12066000000000000       0.31644000000000000        0.0000000000000000     
  0.15419146000000000       0.34997146000000001        0.0000000000000000     
   9.1609999999999997E-002  0.41126000000000001        0.0000000000000000     
   8.2839999999999997E-002  0.24906000000000000        0.0000000000000000     
  0.10719500000000000       0.24906000000000000        0.0000000000000000     
  0.10394500000000000       0.24026000000000000        0.0000000000000000     
  0.10306999999999999       0.16439999999999999        0.0000000000000000     
  0.20605000000000001        7.9089999999999994E-002   0.0000000000000000     
  0.42243181000000002       0.83768843000000004        0.0000000000000000     
  0.40538000000000002       0.78705000000000003        0.0000000000000000     
  0.42062500000000003       0.70743999999999996        0.0000000000000000     
  0.39167000000000002       0.62682000000000004        0.0000000000000000     
  0.38775999999999999       0.57162500000000005        0.0000000000000000     
  0.39058282000000000       0.54871530000000002        0.0000000000000000     
  0.39464117999999998       0.46212064000000003        0.0000000000000000     
  0.39241130000000002       0.45290363000000000        0.0000000000000000     
  0.38384000000000001       0.55516500000000002        0.0000000000000000     
  0.38069999999999998       0.59557000000000004        0.0000000000000000     
  0.36735092000000003       0.72975095999999995        0.0000000000000000     
  0.37138180999999998       0.84873708999999997        0.0000000000000000     
  0.31856716000000002       0.83411802999999995        0.0000000000000000     
  0.65566999999999998       0.71865999999999997        0.0000000000000000     
  0.62348499999999996       0.71865999999999997        0.0000000000000000     
  0.63253999999999999       0.72650000000000003        0.0000000000000000     
  0.63397590999999998       0.79238797000000005        0.0000000000000000     
  0.61133999999999999       0.77437999999999996        0.0000000000000000     
  0.58667000000000002       0.75475999999999999        0.0000000000000000     
  0.51746738999999997       0.83310978000000002        0.0000000000000000     
  0.51022000000000001       0.76192000000000004        0.0000000000000000     
  0.49914890000000001       0.74624727000000002        0.0000000000000000     
  0.50311967000000002       0.80879526000000002        0.0000000000000000     
  0.50158999999999998       0.83067000000000002        0.0000000000000000     
  0.46398766000000002       0.86013877000000005        0.0000000000000000     
  0.41615999999999997       0.37445000000000001        0.0000000000000000     
  0.43026551000000002       0.31678289999999998        0.0000000000000000     
  0.39694000000000002       0.24930500000000000        0.0000000000000000     
  0.41994211999999997       0.11642168999999999        0.0000000000000000     
  0.43478000000000000       0.10487000000000000        0.0000000000000000     
  0.57060999999999995       0.13406000000000001        0.0000000000000000     
  0.69662999999999997       0.19536999999999999        0.0000000000000000     
  0.71886000000000005       0.24690999999999999        0.0000000000000000     
  0.74097999999999997       0.33731000000000000        0.0000000000000000     
  0.72538453999999997       0.37890159000000001        0.0000000000000000     
  0.73320112000000004       0.40760169000000002        0.0000000000000000     
  0.70620000000000005       0.41999999999999998        0.0000000000000000     
  0.74504999999999999       0.48705999999999999        0.0000000000000000     
  0.68996999999999997       0.48530000000000001        0.0000000000000000     
  0.66213999999999995       0.47589999999999999        0.0000000000000000     
  0.63373000000000002       0.47414000000000001        0.0000000000000000     
  0.68861000000000006       0.55347000000000002        0.0000000000000000     
  0.62687669000000001       0.62714972999999996        0.0000000000000000     
  0.51632500000000003       0.26038000000000000        0.0000000000000000     
  0.66345008000000005       0.20335998999999999        0.0000000000000000     
  0.68430000000000002       0.34078999999999998        0.0000000000000000     
  0.59737622999999995       0.42491739000000001        0.0000000000000000     
  0.55410000000000004       0.41776999999999997        0.0000000000000000     
  0.52314000000000005       0.40723999999999999        0.0000000000000000     
  0.46111999999999997       0.32850000000000001        0.0000000000000000     
  0.67330999999999996       0.19785000000000000        0.0000000000000000     
  0.69296999999999997       0.22594000000000000        0.0000000000000000     
  0.40191943000000002       0.86367486999999998        0.0000000000000000     
  0.12271248000000000       0.14762657000000001        0.0000000000000000     
  0.14852475000000001       0.12337326999999999        0.0000000000000000     
  0.74936000000000003       0.44945000000000002        0.0000000000000000     
  0.61883999999999995       0.82247000000000003        0.0000000000000000     
  0.26941311000000001       0.82690965999999999        0.0000000000000000     
  0.14224880000000001       0.37582204000000002        0.0000000000000000     
  0.16781681000000001       0.35746910999999998        0.0000000000000000     
  0.38384000000000001       0.56583499999999998        0.0000000000000000     
  0.17475499999999999       0.26156499999999999        0.0000000000000000     
  0.16588214000000001       0.27095785999999999        0.0000000000000000     
  0.19754658000000000       0.25190794000000000        0.0000000000000000     
  0.18240999999999999       0.26306000000000002        0.0000000000000000     
  0.38775999999999999       0.58301250000000004        0.0000000000000000     
   9.2598787000000002E-002  0.28369930999999998        0.0000000000000000     
  0.12988000000000000       0.31154999999999999        0.0000000000000000     
  0.15971573000000000       0.35549573000000001        0.0000000000000000     
  0.43006250000000001       0.70743999999999996        0.0000000000000000     
  0.40538000000000002       0.77361250000000004        0.0000000000000000     
  0.42100500000000002       0.81830000000000003        0.0000000000000000     
  0.41854986000000000       0.69665306000000005        0.0000000000000000     
  0.38971499999999998       0.61060999999999999        0.0000000000000000     
  0.38773564999999999       0.45901181000000002        0.0000000000000000     
  0.39590059000000000       0.45441031999999998        0.0000000000000000     
  0.38384000000000001       0.54735250000000002        0.0000000000000000     
  0.36502704000000002       0.72473217000000001        0.0000000000000000     
  0.32337357999999999       0.82795901000000005        0.0000000000000000     
  0.70706773000000001       0.36044921000000002        0.0000000000000000     
  0.74097999999999997       0.35293500000000000        0.0000000000000000     
  0.74097999999999997       0.31773499999999999        0.0000000000000000     
  0.71235000000000004       0.23181499999999999        0.0000000000000000     
  0.58099500000000004       0.12427000000000001        0.0000000000000000     
  0.50926802999999998       0.81618526000000002        0.0000000000000000     
  0.39694000000000002       0.25951249999999998        0.0000000000000000     
  0.43692275000000003       0.32087145000000000        0.0000000000000000     
  0.41615999999999997       0.32374500000000000        0.0000000000000000     
  0.43379000000000001       0.30536999999999997        0.0000000000000000     
  0.56120943999999995       0.14292195999999999        0.0000000000000000     
  0.56101000000000001       0.12778999999999999        0.0000000000000000     
  0.72713519000000004       0.36131693999999998        0.0000000000000000     
  0.74289499999999997       0.49852000000000002        0.0000000000000000     
  0.70664000000000005       0.43221999999999999        0.0000000000000000     
  0.53013999999999994       0.41189999999999999        0.0000000000000000     
  0.54561999999999999       0.41584500000000002        0.0000000000000000     
  0.71071649000000003       0.55600200000000000        0.0000000000000000     
  0.67979000000000001       0.56306999999999996        0.0000000000000000     
  0.62555094000000000       0.62995129000000005        0.0000000000000000     
  0.66964504000000002       0.20812000000000000        0.0000000000000000     
  0.58421811000000001       0.42326870000000000        0.0000000000000000     
  0.59798264000000001       0.43157266000000000        0.0000000000000000     
  0.54939000000000004       0.42473000000000000        0.0000000000000000     
  0.52732000000000001       0.40139999999999998        0.0000000000000000     
[...]
 CELL_DATA        1963
 SCALARS Cells_density float
 LOOKUP_TABLE default
    0.64088784371187235145E+00
    0.88576401150204353563E+00
    0.10297153074436591336E+01
    0.97916578705275891803E+00
    0.78944123910534647059E+00
    0.55127540525481166789E+00
    0.92686837932556864761E+00
    0.24334202802133989008E+00
    0.34726624757875923510E+00
    0.41075429772221783153E+00
    0.33858408585558263937E+00
    0.84853529857046683382E+00
    0.28084653739558057550E+00
    0.68321130173577460098E+00
    0.90481668958535144132E+00
    0.10871366876079224806E+01
    0.95932980500784004185E+00
    0.49263708700769631710E+00
    0.56604481698155140190E+00
    0.10495524094890509303E+01
    0.51569410966329987112E+00
    0.45217179844157229240E+00
    0.51155772771878038618E+00
    0.30687750214787012926E+00
    0.38591160016987807735E+00
    0.53755144498123563768E+00
    0.39479979386447705547E+00
    0.46733594164254738113E+00
    0.80829967891279885794E+00
    0.59934203584830392231E+00
    0.79741393804789095778E+00
    0.20245314038427797421E+00
    0.35204833867428453331E+00
    0.81271841110751963377E+00
    0.30870162509303678000E+00
    0.58961150253438199265E+00
    0.89847077646816675411E+00
    0.92511954909781357603E+00
    0.72244645166002730008E+00
    0.76610611653186067027E+00
    0.91739323206100786834E+00
    0.90892589828427172716E+00
    0.83315875245750548039E+00
    0.79637292818232507940E+00
    0.68627222822791977830E+00
    0.80601279104114087470E+00
    0.69192554808794970445E+00
    0.82227241529786321284E+00
    0.25858652462450232301E+00
    0.22972698211957781611E+00
    0.21402367648718312321E+00
    0.27750775020470097587E+00
    0.30656575385207696094E+00
    0.47946022684587408236E+00
    0.36465322092455787484E+00
    0.79868692967811949490E+00
    0.52054091020508264087E+00
    0.27900218900129869493E+00
    0.53165316844192944679E+00
    0.53080094359881224708E+00
    0.79946354683981268874E+00
    0.21825560229341950391E+00
    0.82830440076495370771E+00
    0.32395810232565686038E+00
    0.61402116484062529977E+00
    0.32857002160359538578E+00
    0.60610000135824637635E+00
    0.51627495542594481481E+00
    0.10930127623145919902E+01
    0.96270014309348383996E+00
    0.95437172523522695311E+00
    0.91915880758947110518E+00
    0.36536468474245664684E+00
    0.26252517673090774997E+00
    0.20274088224450648177E+00
    0.10300233446893649614E+01
    0.26940450973347274122E+00
    0.23935264062044031563E+00
    0.68932231635682494897E+00
    0.31481496275198733725E+00
    0.58944852873656772285E+00
    0.10359421682082317062E+01
    0.33353293683567791783E+00
    0.21801755441860404261E+00
    0.95142681030438081002E+00
    0.66016472958916516678E+00
    0.93440831857137707228E+00
    0.11249241455074401319E+01
    0.76451144498167156183E+00
    0.10635319753230236817E+01
    0.36021813072247937937E+00
    0.37302463651418443780E+00
    0.32152330422331076853E+00
    0.57073043572285864222E+00
    0.36518302798259594244E+00
    0.44811074308079096307E+00
    0.70900749065564816487E+00
    0.52690712853776111579E+00
    0.43422132934518137271E+00
    0.33767523179716457671E+00
    0.28901136465133020481E+00
    0.35913471455772860708E+00
    0.51509055820094129530E+00
    0.59083375555332218187E+00
    0.38557326960694393581E+00
    0.33253211060022069834E+00
    0.53840069406365420601E+00
    0.30570125905573553027E+00
    0.44569141305987408641E+00
    0.36030681171386363948E+00
    0.82913058668094496984E+00
    0.71058465322477115667E+00
    0.58256931596419458952E+00
    0.44498055988067042321E+00
    0.82694980364778081228E+00
    0.62876345508131692430E+00
    0.53851484962731299699E+00
    0.78372439847943042857E+00
    0.70387313123805195225E+00
    0.67709152845920161923E+00
    0.64180582361905413880E+00
    0.74982994398440316886E+00
    0.63302830444020774525E+00
    0.79374606177692030862E+00
    0.54955980272351445670E+00
    0.56481876981410861216E+00
    0.25712765510685364756E+00
    0.48364516347015140685E+00
    0.30707402258822419361E+00
    0.40648319058269660742E+00
    0.59450867663982354117E+00
    0.65215274093571917735E+00
    0.59707738927908216020E+00
    0.46400926250631763237E+00
    0.55847517122477796647E+00
    0.81208789162164196629E+00
    0.36433465366056849710E+00
    0.72763327125111898486E+00
    0.55627837614066588667E+00
    0.36975496761714332639E+00
    0.71471419335093988590E+00
    0.10169997503458851895E+01
    0.76583128558943824871E+00
    0.80631716323936841739E+00
    0.35920436897923729846E+00
    0.37548753066159695768E+00
    0.11693072575845588901E+01
    0.38213966068439059187E+00
    0.39341617896781888586E+00
    0.11692955374405564761E+01
    0.10257224060224838791E+01
    0.37592534203009708715E+00
    0.88423330002246658399E+00
    0.87074235064107963211E+00
    0.47886827572796442087E+00
    0.41618743464401891652E+00
    0.39871178427837639102E+00
    0.40232685502960657820E+00
    0.10616888676549169901E+01
    0.47538662467840814285E+00
    0.10463278411207357355E+01
    0.43643420097738838681E+00
    0.89444072768996840672E+00
    0.38635501401671595856E+00
    0.26230861754441398004E+00
    0.99585278241311581127E+00
    0.27944031478349090625E+00
    0.17609952443603560379E+00
    0.34741300248931122896E+00
    0.69135924957627314935E+00
    0.40059537674579442923E+00
    0.11444477698398647370E+01
    0.11896639901297554331E+01
    0.10546328868220986585E+01
    0.11726870084198788291E+01
    0.38862455579439136866E+00
    0.47669885639249454101E+00
    0.11892082413842957056E+01
    0.11727918862341502049E+01
    0.10448793483791323222E+01
    0.44885545896746165129E+00
    0.55272460736287243321E+00
    0.11132671112118170953E+01
    0.11512993335242482917E+01
    0.53991503507272720075E+00
    0.61665802659534252328E+00
    0.55250040300869807108E+00
    0.10722464504400148755E+01
    0.58971972113655390935E+00
    0.10831487540751121301E+01
    0.34879822240838670444E+00
    0.40198932189748581845E+00
    0.48006659377798677202E+00
    0.60282917846996442179E+00
    0.85496587173604465804E+00
    0.29203213860156723714E+00
    0.66881106524346556341E+00
    0.98548497202110163506E+00
    0.83249549068264916407E+00
    0.74870310638621628829E+00
    0.43165291113430714898E+00
    0.14916824713574797223E+00
    0.50540365760943628537E+00
    0.67803338192086082259E+00
    0.52615523287502541372E+00
    0.19406169646596616030E+00
    0.43090437148227400677E+00
    0.11884873053587841074E+01
    0.23722890386304487653E+00
    0.98272506503123002730E+00
    0.56920086564213578928E+00
    0.54856645531246506220E+00
    0.40186144317479927102E+00
    0.54479259611860508805E+00
    0.42326869524099858255E+00
    0.73117443327741815651E+00
    0.75047036355097995752E+00
    0.73514092286548415878E+00
    0.40148621749219587374E+00
    0.60413262118208121976E+00
    0.63699166653723571230E+00
    0.30168651896777659571E+00
    0.67461830483594342756E+00
    0.56093285295481598585E+00
    0.41914787427568478417E+00
    0.26158766714996889435E+00
    0.39881056012640608843E+00
    0.80992143252546033860E+00
    0.25973709241988707230E+00
    0.20104185407773614291E+00
    0.84327101612961197219E+00
    0.52643134915168898758E+00
    0.75416764685614601227E+00
    0.47031611441853443667E+00
    0.22113840244215296482E+00
    0.24715852252737208206E+00
    0.15203831232169151555E+00
    0.70693057510149903688E+00
    0.57120237849556332321E+00
    0.70298734337275647910E+00
    0.63075195861904087558E+00
    0.51570859513156164233E+00
    0.48309878441161113738E+00
    0.55031801064575924798E+00
    0.28780525741640139437E+00
    0.88625815077858327573E+00
    0.24308174034470633740E+00
    0.64864322342639602059E+00
    0.65770157605006007717E+00
    0.61462658259554048268E+00
    0.17282284377908604944E+00
    0.27939209728127978316E+00
    0.15203018908313931101E+00
    0.10891961850390257105E+01
    0.10104206973099649769E+01
    0.17157420862195282840E+00
    0.10287825075151564302E+01
    0.19762165550895505195E+00
    0.14888752078036004978E+00
    0.14888749018945915403E+00
    0.14888748365688853070E+00
    0.20158460086051735449E+00
    0.14889105437099697804E+00
    0.14888749947630849912E+00
    0.10058547231212562334E+01
    0.54744581522525426198E+00
    0.98194771491760579618E+00
    0.45223951440279680503E+00
    0.87386403996135386674E+00
    0.10291751159867572607E+01
    0.43218956471397274033E+00
    0.96805571750849872537E+00
    0.44964087731791996250E+00
    0.94807070925994485489E+00
    0.10225480496195036295E+01
    0.16461699654511896540E+00
    0.45453571025371286574E+00
    0.35939266719769791258E+00
    0.10169585206991411663E+01
    0.14888765760364611190E+00
    0.41399061835820738509E+00
    0.68625692842830454676E+00
    0.26725236886205289144E+00
    0.80871516736196480402E+00
    0.99800105300963326549E+00
    0.76928973103802933409E+00
    0.40291609678154782781E+00
    0.11007898969246419085E+01
    0.10834590776547072810E+01
    0.10203856872803793721E+01
    0.84390797196388755985E+00
    0.38366123311889122061E+00
    0.38603701992969624568E+00
    0.94069773479742158084E+00
    0.47124774482541809117E+00
    0.85262365611354329342E+00
    0.35776544880050403785E+00
    0.87318818487724336741E+00
    0.56457031703805415912E+00
    0.87983471032487448049E+00
    0.10802991765802805180E+01
    0.94909970871565219053E+00
    0.45560020351051577769E+00
    0.91354073571103378004E+00
    0.98881782993020894690E+00
    0.52504373606010767972E+00
    0.84204203261403287595E+00
    0.73480199599125894938E+00
    0.41732911117918630728E+00
    0.37429070078254350618E+00
    0.87645946073913638674E+00
    0.79718589074007328854E+00
    0.29153874662273354668E+00
    0.10527156114809947951E+01
    0.61430030038823790761E+00
    0.95373467021728430826E+00
    0.83894199370643030012E+00
    0.54258551958851353181E+00
    0.35275931273463756455E+00
    0.81543390361263057287E+00
    0.35484578803875194142E+00
    0.35032290713401320614E+00
    0.37391399723649171305E+00
    0.36492961655333444604E+00
    0.93220718084866982522E+00
    0.38925743506676452332E+00
    0.90687073076476520939E+00
    0.90712136399847875801E+00
    0.34408372525006819531E+00
    0.25149162607470659792E+00
    0.89672403099647257640E+00
    0.80714522639367325407E+00
    0.78465207083827614998E+00
    0.74649740831598132562E+00
    0.84467959487890786896E+00
    0.83838934710708579168E+00
    0.16968656296162426544E+00
    0.83626048089069371372E+00
    0.64328398632575478633E+00
    0.68640963479122296675E+00
    0.32361459789999152958E+00
    0.30506867618844513146E+00
    0.74081394735328465195E+00
    0.29182845350219016600E+00
    0.65231997745113057263E+00
    0.28174034600984065868E+00
    0.15832352929538287545E+00
    0.22119674707341399622E+00
    0.76159808104219994807E+00
    0.81237738573209250514E+00
    0.59223181591068463359E+00
    0.39718699280096764204E+00
    0.47652720721555530403E+00
    0.54893563359683306135E+00
    0.94712586977741219929E+00
    0.11089148473467658196E+01
    0.10259880307790463227E+01
    0.75754864209424876975E+00
    0.10520459815010425597E+01
    0.10516554208925401603E+01
    0.81060961016928390066E+00
    0.68219842883226100572E+00
    0.62953481398337196584E+00
    0.84882901135850630236E+00
    0.81921932144439812973E+00
    0.53254141825828005263E+00
    0.91335848699073940438E+00
    0.92259246881635348370E+00
    0.55024161514475933288E+00
    0.30423269614084175183E+00
    0.11632541665113167451E+01
    0.11337057505512191380E+01
    0.91035022693434719532E+00
    0.10200549763059383324E+01
    0.67838061421836581832E+00
    0.63089710882180338736E+00
    0.93242137192096785636E+00
    0.29583459755804358826E+00
    0.89607671917297981867E+00
    0.49280866379484999928E+00
    0.32909614862006097979E+00
    0.10497937191299593351E+01
    0.90451908636489153359E+00
    0.10152986141810891318E+01
    0.10193530092198579418E+01
    0.62267173779591222793E+00
    0.30387264203902730753E+00
    0.41230002636938639649E+00
    0.30146248844639833564E+00
    0.75526494649941477988E+00
    0.87371654619373784190E+00
    0.80739292882945179475E+00
    0.27297555806582979310E+00
    0.91882768417559890217E+00
    0.24818594696517504161E+00
    0.20079807137141969520E+00
    0.57332344119563505291E+00
    0.49480885317270051349E+00
    0.19109728808543932632E+00
    0.68721258388788108995E+00
    0.31853597901119873326E+00
    0.30789796676806802100E+00
    0.69106637628147848940E+00
    0.28499412498372361791E+00
    0.31296253831590259420E+00
    0.20417919990430141719E+00
    0.10313756575468879806E+01
    0.10251974443927220904E+01
    0.27299381134814088012E+00
    0.11043987496097680268E+01
    0.62304103767959262417E+00
    0.57997231666881154943E+00
    0.11442535973451763986E+01
    0.76842417913986738043E+00
    0.36500780728803727815E+00
    0.90361786252479636694E+00
    0.57354737243120235135E+00
    0.10892366486565190353E+01
    0.27571874613728569736E+00
    0.46040062351344313019E+00
    0.17174840083626266574E+00
    0.81667619626368970209E+00
    0.97536339907881075550E+00
    0.31738396622431841454E+00
    0.21501996263848960345E+00
    0.89985648552046060278E+00
    0.16017072837875923064E+00
    0.88804796649488049187E+00
    0.14888809197070312917E+00
    0.15338622094696027776E+00
    0.23464133426149369477E+00
    0.28814670664332070471E+00
    0.23970062066618216812E+00
    0.22650884123729392305E+00
    0.17958649356370318118E+00
    0.32638464424296920185E+00
    0.51924673046680291932E+00
    0.39920256092304373663E+00
    0.23645791102090593649E+00
    0.15120486079519171452E+00
    0.14902003929560231343E+00
    0.14906125838735206912E+00
    0.68729938097540854702E+00
    0.59558627682460285602E+00
    0.41851725077376200623E+00
    0.41006370839830497133E+00
    0.70447193050717593632E+00
    0.10975708819316354337E+01
    0.15951531564884030567E+00
    0.14889988160678008233E+00
    0.14903077216774107683E+00
    0.35080429755177006124E+00
    0.26997345153824975350E+00
    0.24825815464714443004E+00
    0.20151358426402729562E+00
    0.61952159243943583089E+00
    0.18892430775045049307E+00
    0.20594890573141474976E+00
    0.16624318217481298676E+00
    0.34514023933044668535E+00
    0.33712482990421738238E+00
    0.40209211147253554053E+00
    0.39958407558301495266E+00
    0.40053466567266199361E+00
    0.10903957682718716793E+01
    0.38695102354871691031E+00
    0.32201582943771273060E+00
    0.40019795316367207105E+00
    0.31113804348527268617E+00
    0.40007402957748683381E+00
    0.34874710746876624867E+00
    0.38378793111049014364E+00
    0.25287768613968303333E+00
    0.40093288993561088107E+00
    0.14966520967769678108E+00
    0.24415303841395333273E+00
    0.23706480630365750484E+00
    0.65843823773346832340E+00
    0.20966824365375191785E+00
    0.10139372248548539357E+01
    0.89347501044943544724E+00
    0.81722984341157145494E+00
    0.75771561074953841519E+00
    0.39989360480918845209E+00
    0.86819811370595278976E+00
    0.61136015279630639974E+00
    0.66072731365550141369E+00
    0.88509594242978695267E+00
    0.82520532572678606531E+00
    0.66945831034664315951E+00
    0.40002002019250609832E+00
    0.83120768212758799898E+00
    0.40002152265989687763E+00
    0.15053210452692469823E+00
    0.63634139860890537310E+00
    0.85242903459991048454E+00
    0.10417687369981729617E+01
    0.64760667480399947138E+00
    0.84593691527372016914E+00
    0.11253872432789224778E+01
    0.50371484844217961907E+00
    0.99991242096235710690E+00
    0.57144960292568958149E+00
    0.31579044618267021471E+00
    0.47565121009453648071E+00
    0.51534326979321221085E+00
    0.71576813463140820382E+00
    0.65597308560331313299E+00
    0.24943135187490000915E+00
    0.34204215416544792028E+00
    0.21297642310348655070E+00
    0.20245477225125230181E+00
    0.91752064341478845044E+00
    0.10023740794336195581E+01
    0.10322712403103326828E+01
    0.95201419925415287082E+00
    0.61805006300848619460E+00
    0.41218903903534270805E+00
    0.67480827361304873691E+00
    0.37262588286343206745E+00
    0.11699270174988227744E+01
    0.11533092439502794502E+01
    0.11028028984950846159E+01
    0.95545776654036074227E+00
    0.11120909346837895004E+01
    0.10183523826535172407E+01
    0.43789448688683718647E+00
    0.10255332326173653978E+01
    0.85006021646649310153E+00
    0.60588443286013238254E+00
    0.38257661731835873598E+00
    0.26810566717816031179E+00
    0.91938950398285645971E+00
    0.67754446031162696151E+00
    0.32743719784434799358E+00
    0.23278991630013523562E+00
    0.70172580038398413294E+00
    0.18875200814238110580E+00
    0.81934591223691155548E+00
    0.99599453280018912515E+00
    0.87595958092717052246E+00
    0.28153311566348437900E+00
    0.88534836246643888735E+00
    0.30949272222288159995E+00
    0.62511992637981550480E+00
    0.27152666993668683748E+00
    0.10950354666592494457E+01
    0.62459219420686051816E+00
    0.45814911195372026720E+00
    0.11774859833069466486E+01
    0.94979957766020028931E+00
    0.10412197898602950641E+01
    0.10877748941290417140E+01
    0.80517334667967366268E+00
    0.11892532487879254877E+01
    0.10741534612307961361E+01
    0.92935032280845941699E+00
    0.11433301792812502473E+01
    0.42100279553537656163E+00
    0.29562241773452335725E+00
    0.59523368629553852216E+00
    0.52187265499691160020E+00
    0.45457007090160239660E+00
    0.75912791504132048903E+00
    0.21475467909065953931E+00
    0.73519141274144794718E+00
    0.76883354978472462360E+00
    0.53399678807530814861E+00
    0.81006336548803459241E+00
    0.55958806981530262448E+00
    0.41478316353486893719E+00
    0.54313944936305336153E+00
    0.69763111336563721210E+00
    0.34208515233248820708E+00
    0.43445789909474064050E+00
    0.63991067782801624997E+00
    0.71213934969160619382E+00
    0.57858208665014587702E+00
    0.50453648312037313595E+00
    0.60560314100370127299E+00
    0.40234527339001802115E+00
    0.44220188910398544602E+00
    0.42795943544189074537E+00
    0.40127062099184579447E+00
    0.64311854207628127433E+00
    0.64367257798229571275E+00
    0.26015879221163873414E+00
    0.40176901607164833274E+00
    0.44300484735539280567E+00
    0.43037980380547252723E+00
    0.45660529660522486406E+00
    0.46731084628664276703E+00
    0.45871393324705878047E+00
    0.40661624708171595355E+00
    0.58905479062831178627E+00
    0.40478211843521916258E+00
    0.50730391292373533396E+00
    0.47331204692339096107E+00
    0.48849388134761806413E+00
    0.47741598106918747835E+00
    0.57966654375740223060E+00
    0.41414108305648139607E+00
    0.42795643401816935159E+00
    0.53168993923880991659E+00
    0.40523800279248028966E+00
    0.45749396495328303880E+00
    0.42080313601119684330E+00
    0.40848899384048065198E+00
    0.45074512189112708738E+00
    0.42011942778406308197E+00
    0.52339343085309131265E+00
    0.56356652848911159559E+00
    0.47185727897974710787E+00
    0.52798678285839717450E+00
    0.44771616465226449222E+00
    0.43954904445293097037E+00
    0.46134260804953275414E+00
    0.45973791960381693578E+00
    0.49237375369720776108E+00
    0.47512820869884730968E+00
    0.29901866960155054631E+00
    0.44381162743142288374E+00
    0.66302067714201795567E+00
    0.61898887585664441602E+00
    0.88346436231327496458E+00
    0.68088896117008945730E+00
    0.95872636360414431600E+00
    0.55727389806269211903E+00
    0.77189713594312325817E+00
    0.57976991682807166306E+00
    0.11773458704587123069E+01
    0.93598714565938867516E+00
    0.44944454149007750932E+00
    0.11898283000537384080E+01
    0.64119603241090072920E+00
    0.57265725796691491212E+00
    0.48829518871383031930E+00
    0.97315900698391311074E+00
    0.15064944592584232907E+01
    0.47161699585762212328E+00
    0.64759453191659965832E+00
    0.11625954855466886784E+01