# vtk DataFile Version 3.0
LAPLACIEN  2D
ASCII
DATASET UNSTRUCTURED_GRID
 POINTS        1083  float
  0.25752000000000003       0.83521000000000001        0.0000000000000000     
  0.26692436000000003       0.82361669999999998        0.0000000000000000     
  0.12755760999999999       0.37286407999999999        0.0000000000000000     
  0.16947000000000001       0.36312000000000000        0.0000000000000000     
  0.20556749999999999       0.30943999999999999        0.0000000000000000     
  0.19808000000000001       0.30240000000000000        0.0000000000000000     
  0.17829000000000000       0.29613000000000000        0.0000000000000000     
  0.16072427000000000       0.27611573000000000        0.0000000000000000     
  0.20518000000000000       0.25756000000000001        0.0000000000000000     
  0.14513182999999999       0.15495659000000001        0.0000000000000000     
  0.18475000000000000       0.25733000000000000        0.0000000000000000     
  0.15320000000000000       0.28981000000000001        0.0000000000000000     
   8.4010000000000001E-002  0.28726000000000002        0.0000000000000000     
  0.12066000000000000       0.31644000000000000        0.0000000000000000     
  0.15419146000000000       0.34997146000000001        0.0000000000000000     
   9.1609999999999997E-002  0.41126000000000001        0.0000000000000000     
   8.2839999999999997E-002  0.24906000000000000        0.0000000000000000     
  0.10719500000000000       0.24906000000000000        0.0000000000000000     
  0.10394500000000000       0.24026000000000000        0.0000000000000000     
  0.10306999999999999       0.16439999999999999        0.0000000000000000     
  0.20605000000000001        7.9089999999999994E-002   0.0000000000000000     
  0.42243181000000002       0.83768843000000004        0.0000000000000000     
  0.40538000000000002       0.78705000000000003        0.0000000000000000     
  0.42062500000000003       0.70743999999999996        0.0000000000000000     
  0.39167000000000002       0.62682000000000004        0.0000000000000000     
  0.38775999999999999       0.57162500000000005        0.0000000000000000     
  0.39058282000000000       0.54871530000000002        0.0000000000000000     
  0.39464117999999998       0.46212064000000003        0.0000000000000000     
  0.39241130000000002       0.45290363000000000        0.0000000000000000     
  0.38384000000000001       0.55516500000000002        0.0000000000000000     
  0.38069999999999998       0.59557000000000004        0.0000000000000000     
  0.36735092000000003       0.72975095999999995        0.0000000000000000     
  0.37138180999999998       0.84873708999999997        0.0000000000000000     
  0.31856716000000002       0.83411802999999995        0.0000000000000000     
  0.65566999999999998       0.71865999999999997        0.0000000000000000     
  0.62348499999999996       0.71865999999999997        0.0000000000000000     
  0.63253999999999999       0.72650000000000003        0.0000000000000000     
  0.63397590999999998       0.79238797000000005        0.0000000000000000     
  0.61133999999999999       0.77437999999999996        0.0000000000000000     
  0.58667000000000002       0.75475999999999999        0.0000000000000000     
  0.51746738999999997       0.83310978000000002        0.0000000000000000     
  0.51022000000000001       0.76192000000000004        0.0000000000000000     
  0.49914890000000001       0.74624727000000002        0.0000000000000000     
  0.50311967000000002       0.80879526000000002        0.0000000000000000     
  0.50158999999999998       0.83067000000000002        0.0000000000000000     
  0.46398766000000002       0.86013877000000005        0.0000000000000000     
  0.41615999999999997       0.37445000000000001        0.0000000000000000     
  0.43026551000000002       0.31678289999999998        0.0000000000000000     
  0.39694000000000002       0.24930500000000000        0.0000000000000000     
  0.41994211999999997       0.11642168999999999        0.0000000000000000     
  0.43478000000000000       0.10487000000000000        0.0000000000000000     
  0.57060999999999995       0.13406000000000001        0.0000000000000000     
  0.69662999999999997       0.19536999999999999        0.0000000000000000     
  0.71886000000000005       0.24690999999999999        0.0000000000000000     
  0.74097999999999997       0.33731000000000000        0.0000000000000000     
  0.72538453999999997       0.37890159000000001        0.0000000000000000     
  0.73320112000000004       0.40760169000000002        0.0000000000000000     
  0.70620000000000005       0.41999999999999998        0.0000000000000000     
  0.74504999999999999       0.48705999999999999        0.0000000000000000     
  0.68996999999999997       0.48530000000000001        0.0000000000000000     
  0.66213999999999995       0.47589999999999999        0.0000000000000000     
  0.63373000000000002       0.47414000000000001        0.0000000000000000     
  0.68861000000000006       0.55347000000000002        0.0000000000000000     
  0.62687669000000001       0.62714972999999996        0.0000000000000000     
  0.51632500000000003       0.26038000000000000        0.0000000000000000     
  0.66345008000000005       0.20335998999999999        0.0000000000000000     
  0.68430000000000002       0.34078999999999998        0.0000000000000000     
  0.59737622999999995       0.42491739000000001        0.0000000000000000     
  0.55410000000000004       0.41776999999999997        0.0000000000000000     
  0.52314000000000005       0.40723999999999999        0.0000000000000000     
  0.46111999999999997       0.32850000000000001        0.0000000000000000     
  0.67330999999999996       0.19785000000000000        0.0000000000000000     
  0.69296999999999997       0.22594000000000000        0.0000000000000000     
  0.40191943000000002       0.86367486999999998        0.0000000000000000     
  0.12271248000000000       0.14762657000000001        0.0000000000000000     
  0.14852475000000001       0.12337326999999999        0.0000000000000000     
  0.74936000000000003       0.44945000000000002        0.0000000000000000     
  0.61883999999999995       0.82247000000000003        0.0000000000000000     
  0.26941311000000001       0.82690965999999999        0.0000000000000000     
  0.14224880000000001       0.37582204000000002        0.0000000000000000     
  0.16781681000000001       0.35746910999999998        0.0000000000000000     
  0.38384000000000001       0.56583499999999998        0.0000000000000000     
  0.17475499999999999       0.26156499999999999        0.0000000000000000     
  0.16588214000000001       0.27095785999999999        0.0000000000000000     
  0.19754658000000000       0.25190794000000000        0.0000000000000000     
  0.18240999999999999       0.26306000000000002        0.0000000000000000     
  0.38775999999999999       0.58301250000000004        0.0000000000000000     
   9.2598787000000002E-002  0.28369930999999998        0.0000000000000000     
  0.12988000000000000       0.31154999999999999        0.0000000000000000     
  0.15971573000000000       0.35549573000000001        0.0000000000000000     
  0.43006250000000001       0.70743999999999996        0.0000000000000000     
  0.40538000000000002       0.77361250000000004        0.0000000000000000     
  0.42100500000000002       0.81830000000000003        0.0000000000000000     
  0.41854986000000000       0.69665306000000005        0.0000000000000000     
  0.38971499999999998       0.61060999999999999        0.0000000000000000     
  0.38773564999999999       0.45901181000000002        0.0000000000000000     
  0.39590059000000000       0.45441031999999998        0.0000000000000000     
  0.38384000000000001       0.54735250000000002        0.0000000000000000     
  0.36502704000000002       0.72473217000000001        0.0000000000000000     
  0.32337357999999999       0.82795901000000005        0.0000000000000000     
  0.70706773000000001       0.36044921000000002        0.0000000000000000     
  0.74097999999999997       0.35293500000000000        0.0000000000000000     
  0.74097999999999997       0.31773499999999999        0.0000000000000000     
  0.71235000000000004       0.23181499999999999        0.0000000000000000     
  0.58099500000000004       0.12427000000000001        0.0000000000000000     
  0.50926802999999998       0.81618526000000002        0.0000000000000000     
  0.39694000000000002       0.25951249999999998        0.0000000000000000     
  0.43692275000000003       0.32087145000000000        0.0000000000000000     
  0.41615999999999997       0.32374500000000000        0.0000000000000000     
  0.43379000000000001       0.30536999999999997        0.0000000000000000     
  0.56120943999999995       0.14292195999999999        0.0000000000000000     
  0.56101000000000001       0.12778999999999999        0.0000000000000000     
  0.72713519000000004       0.36131693999999998        0.0000000000000000     
  0.74289499999999997       0.49852000000000002        0.0000000000000000     
  0.70664000000000005       0.43221999999999999        0.0000000000000000     
  0.53013999999999994       0.41189999999999999        0.0000000000000000     
  0.54561999999999999       0.41584500000000002        0.0000000000000000     
  0.71071649000000003       0.55600200000000000        0.0000000000000000     
  0.67979000000000001       0.56306999999999996        0.0000000000000000     
  0.62555094000000000       0.62995129000000005        0.0000000000000000     
  0.66964504000000002       0.20812000000000000        0.0000000000000000     
  0.58421811000000001       0.42326870000000000        0.0000000000000000     
  0.59798264000000001       0.43157266000000000        0.0000000000000000     
  0.54939000000000004       0.42473000000000000        0.0000000000000000     
  0.52732000000000001       0.40139999999999998        0.0000000000000000     
[...]
 CELL_DATA        1963
 SCALARS Cells_density float
 LOOKUP_TABLE default
    0.18599153941073756635E+00
    0.81191907992994571952E+00
    0.81524811200877411732E+00
    0.79357289021458499167E+00
    0.74228604165046785379E+00
    0.69316982703454887993E+00
    0.81470159599156843910E+00
    0.10243438054806393300E+00
    0.10353970213951142754E+00
    0.75474713026445816588E+00
    0.11908603308124754427E+00
    0.81177867434332029450E+00
    0.69028645799901933167E+00
    0.77188042409281798495E+00
    0.78782277325362326525E+00
    0.81576315203036164903E+00
    0.79859799092666650111E+00
    0.12119061609964483506E+00
    0.12998587789596749431E+00
    0.81545655875089684272E+00
    0.12466144863736484949E+00
    0.12649926521801596602E+00
    0.25698805636301419453E+00
    0.10425452694044951008E+00
    0.11886060974078144215E+00
    0.74041880191269726641E+00
    0.12898899394100352134E+00
    0.73529675055874843537E+00
    0.79402873307857757545E+00
    0.76448864908515279382E+00
    0.78327618588384750886E+00
    0.10220837958017583991E+00
    0.10298702971203192724E+00
    0.76659408453382726911E+00
    0.11941121376367952456E+00
    0.13761264106106732563E+00
    0.81173672903092242148E+00
    0.81304516527255221714E+00
    0.17707574113343108047E+00
    0.80672200857993736633E+00
    0.79250357274593108414E+00
    0.79150132263757777551E+00
    0.78942309143440014818E+00
    0.74672151686055121544E+00
    0.18079509200642537858E+00
    0.77604817796727842971E+00
    0.76401529433138037906E+00
    0.79926884578755019728E+00
    0.11377183330797061012E+00
    0.10237907181995872796E+00
    0.10235624434037897401E+00
    0.11585467983395737746E+00
    0.11191304446811922713E+00
    0.75700341990119790481E+00
    0.11521746066418254995E+00
    0.79969351152627321522E+00
    0.76792972461070796442E+00
    0.11330096801674890972E+00
    0.74975502187595888248E+00
    0.77343775535912129282E+00
    0.78545613827080529301E+00
    0.10242524470347141863E+00
    0.78818745107405630002E+00
    0.11818177731085784121E+00
    0.12698539234455458180E+00
    0.11395468832410987625E+00
    0.74743825096916838291E+00
    0.74922167828387886690E+00
    0.81577119835311284746E+00
    0.79922477844169692585E+00
    0.78775582384455167251E+00
    0.79347451088611486991E+00
    0.11150623946551328769E+00
    0.10251254960675883210E+00
    0.10221297990857881877E+00
    0.80768998033033578832E+00
    0.10847800161771456451E+00
    0.10826566992613789742E+00
    0.78762575537519230462E+00
    0.10972009020051573525E+00
    0.76813415006578522615E+00
    0.80864185823032175282E+00
    0.11039082101897390586E+00
    0.10225960001476272487E+00
    0.80438654691821964704E+00
    0.15712581078497658837E+00
    0.74402799008218822863E+00
    0.81613787529810044585E+00
    0.77847353196280721921E+00
    0.81527346774454778622E+00
    0.11599549127801017656E+00
    0.11900498107530123326E+00
    0.11068866961678008876E+00
    0.78302433255318204530E+00
    0.11534531148586564531E+00
    0.11857722605862801302E+00
    0.78106371968392196425E+00
    0.74515153054799554422E+00
    0.11864186897946722710E+00
    0.11139835995805245916E+00
    0.11196837870824910555E+00
    0.11864746055246250256E+00
    0.76938207601664776458E+00
    0.78386527109988657358E+00
    0.11696560908715041005E+00
    0.11186432033170447264E+00
    0.77276503221877823613E+00
    0.11314008078035081573E+00
    0.11610848481555038902E+00
    0.11851096376915892794E+00
    0.80918876246256887796E+00
    0.78782952848590881434E+00
    0.14818201141660183873E+00
    0.12385956954186674861E+00
    0.77355296097972658931E+00
    0.76862277987890159636E+00
    0.76045733730957798535E+00
    0.79036328038318892641E+00
    0.78074882508355403221E+00
    0.77641861914338272666E+00
    0.77803226183567086860E+00
    0.81214980280858195538E+00
    0.15750227804157979072E+00
    0.78788817298145452650E+00
    0.77401183375049109614E+00
    0.12997410887473428986E+00
    0.10251820788585333522E+00
    0.12189992634982282915E+00
    0.11040776089137448179E+00
    0.11800052701644413167E+00
    0.74906325187995315140E+00
    0.77478166743259513360E+00
    0.13924936194406523082E+00
    0.12317895231955673652E+00
    0.66097099408564097267E+00
    0.81346030317515194419E+00
    0.11680924954308234687E+00
    0.78794237927384558340E+00
    0.77576781124233673559E+00
    0.76435402732905000089E+00
    0.76550007158741539826E+00
    0.81474949872333979339E+00
    0.81192060921510822435E+00
    0.81203931885118951772E+00
    0.11359125058315104606E+00
    0.11657883880492675432E+00
    0.81617024378849145627E+00
    0.71012331454259325358E+00
    0.11226762576107897351E+00
    0.81610868863639185466E+00
    0.80664817248561215823E+00
    0.11344617399011455716E+00
    0.80105204198742696597E+00
    0.78233885955640680709E+00
    0.78565384305523422448E+00
    0.11499450314520243133E+00
    0.11193762358864940698E+00
    0.11910705929573191242E+00
    0.80877050800656791196E+00
    0.12510223736866735167E+00
    0.80950222532854654300E+00
    0.11318838925607843660E+00
    0.80606971461837129134E+00
    0.11762488987252722739E+00
    0.10724833016789381279E+00
    0.80967939495256213700E+00
    0.10773794413342878407E+00
    0.10209216284422009680E+00
    0.11171033997804194482E+00
    0.77635907148455873816E+00
    0.11911850794326279968E+00
    0.81606103623731429675E+00
    0.81617735108283939738E+00
    0.81541079425983231665E+00
    0.81611401052080212448E+00
    0.12195789716301332073E+00
    0.11285401323988579481E+00
    0.81617725727235945765E+00
    0.81611313306406385593E+00
    0.80999658285161457716E+00
    0.80727370259567787780E+00
    0.81557777324471569802E+00
    0.81588117328426357222E+00
    0.81603726779457508300E+00
    0.81614535660785048066E+00
    0.13938664617839657822E+00
    0.81578358952373641877E+00
    0.80616740925280261365E+00
    0.81594698444966695661E+00
    0.81597904046542335532E+00
    0.11627315193840667695E+00
    0.11226803969478546530E+00
    0.12981398764870272222E+00
    0.76295675346474978173E+00
    0.79417569668602083777E+00
    0.10922135350814010657E+00
    0.76348293014255341760E+00
    0.80172736276046296933E+00
    0.81010299812409825027E+00
    0.68711146782483445428E+00
    0.81460568440569181003E+00
    0.10202219058867895152E+00
    0.76621150762780221299E+00
    0.19603621378401417386E+00
    0.81252810347127801816E+00
    0.10225488329578576174E+00
    0.11363461970563440429E+00
    0.81617709748851352547E+00
    0.10232688710671800081E+00
    0.81342951138600549932E+00
    0.14146036331329633895E+00
    0.12258264502401870766E+00
    0.12357198123483945085E+00
    0.26541215898289088893E+00
    0.11341817092460344807E+00
    0.78870757717308859203E+00
    0.78875034753063066884E+00
    0.79008839281104825680E+00
    0.61466118265115121666E+00
    0.30833441115214066386E+00
    0.74983141432821609484E+00
    0.10516656351203307329E+00
    0.77885684351839890027E+00
    0.71860638921125341572E+00
    0.11586593381684107129E+00
    0.11152969404718998669E+00
    0.12646164395325854013E+00
    0.78845724971759467703E+00
    0.11014972407156892187E+00
    0.10227572849909186137E+00
    0.81282737482509404003E+00
    0.13101130184408699142E+00
    0.77801747107148522264E+00
    0.74426280196665306477E+00
    0.10244460936974303378E+00
    0.10961579240516974854E+00
    0.10202283326971560429E+00
    0.76970120237975436783E+00
    0.21100985536314964541E+00
    0.80063101417101634194E+00
    0.73861861019661667616E+00
    0.74822197272577928295E+00
    0.75366234204913162831E+00
    0.74957830434157224353E+00
    0.11013651648465221100E+00
    0.79999936242566394018E+00
    0.11074622065183048480E+00
    0.79214570638253678503E+00
    0.77805424267345923983E+00
    0.77667174298282648515E+00
    0.10210319745965606986E+00
    0.10811913664538948254E+00
    0.10202262318444284273E+00
    0.81583957709197196806E+00
    0.81307938841888327541E+00
    0.10211203692237209861E+00
    0.81528672429954807122E+00
    0.10220935624859719959E+00
    0.10202218735646217951E+00
    0.10202218738021785749E+00
    0.10202218727853955282E+00
    0.10236417759595316246E+00
    0.10202218749298773426E+00
    0.10202218736827031731E+00
    0.81515512517877719567E+00
    0.71739627670926009451E+00
    0.78646658419675885554E+00
    0.80218231516499538536E+00
    0.81310160535929332237E+00
    0.81529730265902644604E+00
    0.81588636369377831592E+00
    0.81460745718283156247E+00
    0.79981891222461520830E+00
    0.81469615950361673473E+00
    0.81505375062862162050E+00
    0.10206735249180580449E+00
    0.81598320201843443922E+00
    0.11654483707628134070E+00
    0.81078206164778565679E+00
    0.10202218730480823450E+00
    0.81572642949724327721E+00
    0.75747574543266282809E+00
    0.11703377107740832452E+00
    0.79823611497374469259E+00
    0.79290599552122875693E+00
    0.20696106962610741342E+00
    0.15387209160869017022E+00
    0.81583151534440467856E+00
    0.81565053724041636229E+00
    0.81275524883887984018E+00
    0.79880826911305902183E+00
    0.11450964340312738687E+00
    0.11543220146434263196E+00
    0.80296284122762151547E+00
    0.11576874913147119917E+00
    0.78500954485323970466E+00
    0.11036591691209246546E+00
    0.79580035013423056078E+00
    0.11985586170652305638E+00
    0.78839673708206436942E+00
    0.81577196255137107705E+00
    0.81439198021711101116E+00
    0.77587796060940272813E+00
    0.81399059332646916953E+00
    0.79888727190708475057E+00
    0.81568811109919248103E+00
    0.78039172390766520238E+00
    0.78293078870538268532E+00
    0.11705511957359227004E+00
    0.11469612315854206541E+00
    0.79351094540191502436E+00
    0.77508672830922087371E+00
    0.11236190777932664187E+00
    0.81535764113409403553E+00
    0.13974630439751303812E+00
    0.78622705647212431934E+00
    0.79938885100731371658E+00
    0.77868923188482819242E+00
    0.11120407486358438454E+00
    0.79798997230238577494E+00
    0.11311680179982408490E+00
    0.11333733149454636169E+00
    0.11382760906831448922E+00
    0.11309263738698778490E+00
    0.80431248428200874390E+00
    0.11488201063617545228E+00
    0.80746698989966980697E+00
    0.80259638743478511902E+00
    0.11380363880257220177E+00
    0.10776520042116954912E+00
    0.80258915502597383274E+00
    0.79091495827790747608E+00
    0.79877710514001531994E+00
    0.79362639902996678920E+00
    0.81289142490818866449E+00
    0.78819733609046205292E+00
    0.10207808320899693089E+00
    0.78326427947761090298E+00
    0.20076535800893832717E+00
    0.76637797603814294956E+00
    0.11495938917024441095E+00
    0.11189916775159168549E+00
    0.76865694558661845637E+00
    0.10320505380734557033E+00
    0.78466527782185702122E+00
    0.10251121468556186056E+00
    0.10202474012821591276E+00
    0.10251889249556370154E+00
    0.79177375840811226038E+00
    0.79501426842569489217E+00
    0.78374132109017191627E+00
    0.11546230962122301655E+00
    0.12016123572180792412E+00
    0.18396278576614252809E+00
    0.79432002108708232857E+00
    0.81576750907441619720E+00
    0.81483356072582480145E+00
    0.19747761971956329097E+00
    0.81530838008145289919E+00
    0.81471607727793093900E+00
    0.78593839503286733184E+00
    0.18641981451960845662E+00
    0.16494326681217233443E+00
    0.78467579153519673163E+00
    0.79290669393622970063E+00
    0.11964257879573922394E+00
    0.79701274659519305565E+00
    0.79240752081772214410E+00
    0.12643205764255829870E+00
    0.10272434313893177849E+00
    0.81607999147842169574E+00
    0.81582527961732209665E+00
    0.78913674044301496124E+00
    0.79858612120113225963E+00
    0.15156306029901048249E+00
    0.21844720428131172985E+00
    0.80170639470753957134E+00
    0.10831556378045774369E+00
    0.79583856539486297343E+00
    0.11788882273763207076E+00
    0.10943000504045578836E+00
    0.81529469860985226415E+00
    0.80236235783704257241E+00
    0.80513832304387167316E+00
    0.78628798275682720842E+00
    0.60341700517227869760E+00
    0.10899555882677153251E+00
    0.77691174013475516880E+00
    0.10977719760111120939E+00
    0.78618498237299205833E+00
    0.80240113430426163177E+00
    0.80102354542496156942E+00
    0.10776946616065667672E+00
    0.80551142502197081718E+00
    0.10859438132359428009E+00
    0.10225302643726756624E+00
    0.78736677772736030079E+00
    0.75339313403605578934E+00
    0.10217324359048159110E+00
    0.78519014572782486194E+00
    0.11528153009842564969E+00
    0.11372559503503992806E+00
    0.78838843179836415320E+00
    0.11235832228506321961E+00
    0.11165516420399856923E+00
    0.10218873043800416611E+00
    0.80555247782737282591E+00
    0.80764245793131472784E+00
    0.10272053885065000889E+00
    0.81587307333610936677E+00
    0.75523934579444529369E+00
    0.15743913386538838095E+00
    0.81606887038950504110E+00
    0.76160762795412562109E+00
    0.11678859743328939835E+00
    0.79477840903068919243E+00
    0.76408010292156391952E+00
    0.81560437699288856894E+00
    0.11264798385673496783E+00
    0.14797688978373724211E+00
    0.10212697711512153109E+00
    0.79352565318685475138E+00
    0.81498875596433340007E+00
    0.11336407785113794544E+00
    0.10231148320186765621E+00
    0.81544418130181695048E+00
    0.10208406219924830161E+00
    0.80354010499347838792E+00
    0.10202218757760006529E+00
    0.10202353505105386799E+00
    0.11247403888397865257E+00
    0.11473448801902701166E+00
    0.11565140016515509935E+00
    0.11437966440450163252E+00
    0.10212266772550235294E+00
    0.11327007403168241895E+00
    0.77740426344037971695E+00
    0.11460419117690472113E+00
    0.11032733699110897074E+00
    0.10202265462496355741E+00
    0.10202218851758410034E+00
    0.10202219071936759198E+00
    0.79255243886102999529E+00
    0.77076139095552731462E+00
    0.11688012233382405469E+00
    0.11860715976634829405E+00
    0.79769417150952093287E+00
    0.81584148333637218631E+00
    0.10206407900148378731E+00
    0.10202218764743314905E+00
    0.10202219061599179795E+00
    0.11533749145476134002E+00
    0.10281607055256258842E+00
    0.11149435508802137129E+00
    0.11411755284852186099E+00
    0.77736334134388040962E+00
    0.10218604750450054064E+00
    0.11435165711037140190E+00
    0.10214029243545598435E+00
    0.11563891891477248719E+00
    0.18337329899020246571E+00
    0.24095824490441614119E+00
    0.78472521559741481578E+00
    0.78842619447115880327E+00
    0.81557902936623982715E+00
    0.77408179167312041180E+00
    0.10487778370302175412E+00
    0.78938186040390700970E+00
    0.70635753244004784168E+00
    0.76916015738846454930E+00
    0.75374023020516633942E+00
    0.76719989511485064959E+00
    0.11725228661013427367E+00
    0.77258579210847644347E+00
    0.10202238709337278777E+00
    0.11258217589857906493E+00
    0.11875344828258405094E+00
    0.74754022475505288448E+00
    0.10226116677629085161E+00
    0.81542136858229996577E+00
    0.79295506313026387080E+00
    0.79900989975067193694E+00
    0.79484588182083282248E+00
    0.71477476667203110328E+00
    0.79328975812284197033E+00
    0.18614175880962241516E+00
    0.78697298601133547358E+00
    0.81259161465620921572E+00
    0.78348442107723470507E+00
    0.79408747396417433961E+00
    0.73904220231225137283E+00
    0.78993002006506607415E+00
    0.78203125980531662531E+00
    0.10202222219234072242E+00
    0.78983549758105653371E+00
    0.77733809923161945044E+00
    0.80663436872118365883E+00
    0.24153329585514665689E+00
    0.77305948364404564188E+00
    0.81598624817907094986E+00
    0.12051615183879529902E+00
    0.80566907505306306625E+00
    0.73412339569929285776E+00
    0.71059221817869488991E+00
    0.75852672435543966323E+00
    0.12230818282017620613E+00
    0.72761799307213914645E+00
    0.71477976823647026983E+00
    0.10836374085858967165E+00
    0.11177967813497959038E+00
    0.10222893483306762230E+00
    0.10218526590396692644E+00
    0.78768114741654449151E+00
    0.81439257023109756783E+00
    0.81528098461784181961E+00
    0.80189237091837339833E+00
    0.26924787139213113285E+00
    0.66265509074107820098E+00
    0.15297763310567352724E+00
    0.11072518486266218207E+00
    0.81609844161976119459E+00
    0.81602693919746382978E+00
    0.80830347478018749197E+00
    0.81507893619113758188E+00
    0.81579807752741306803E+00
    0.80177336109501384787E+00
    0.11521366420772004291E+00
    0.81541849078411954288E+00
    0.79651830885532481918E+00
    0.15399190718151778423E+00
    0.71198171496320183937E+00
    0.11549577962030413425E+00
    0.80481809292661932176E+00
    0.78902630984450872198E+00
    0.11383939877441122401E+00
    0.11098648065957128495E+00
    0.74358857188206251010E+00
    0.10217975681040480929E+00
    0.79247482950126646450E+00
    0.81520272792528858385E+00
    0.81089364191811774685E+00
    0.10756261477456485753E+00
    0.78909130397430238268E+00
    0.11065959932220331696E+00
    0.17270002617246119070E+00
    0.10760925132749390998E+00
    0.81567731361434325787E+00
    0.14294256301343608029E+00
    0.81611841361261139305E+00
    0.81617358480487989247E+00
    0.79123743180493300020E+00
    0.80381755824240930242E+00
    0.81557994219326912511E+00
    0.75649869681121351128E+00
    0.81617751892338363806E+00
    0.80802855705897846939E+00
    0.81091697868037382335E+00
    0.81593649264513701258E+00
    0.81442580591224800202E+00
    0.10267788443626629791E+00
    0.14152814255280252165E+00
    0.33494444121673261350E+00
    0.74724814321698518338E+00
    0.79923025669082736755E+00
    0.11435570477742147688E+00
    0.71566836638575137552E+00
    0.77629437113066246390E+00
    0.76758212614336640556E+00
    0.81242379025855637753E+00
    0.77243346834592074845E+00
    0.81544908261976234432E+00
    0.76154767983591331593E+00
    0.81600573843412260722E+00
    0.11263626520273435638E+00
    0.11284012184737773898E+00
    0.80119675324701211672E+00
    0.81608148432604743494E+00
    0.80353503320269603627E+00
    0.12142660745014521861E+00
    0.80876955613172130111E+00
    0.76553475528966119512E+00
    0.14461557621627246784E+00
    0.11503234046574602190E+00
    0.10873918154286189852E+00
    0.81605339904969220743E+00
    0.80352937767512488954E+00
    0.10907453516141600580E+00
    0.10944969646890678749E+00
    0.74887068232472464580E+00
    0.80544073307615327018E+00
    0.80760760912249307530E+00
    0.18790247969972376230E+00
    0.17239492559520250281E+00
    0.79339975700535048109E+00
    0.11056142294670127935E+00
    0.11526966446101769015E+00
    0.10528276487315528509E+00
    0.11193599122206027152E+00
    0.10299130277069475092E+00
    0.77458829107225701804E+00
    0.10995332849002567577E+00
    0.12510081370292672198E+00
    0.79430941782606467871E+00
    0.11243795722117895519E+00
    0.81484637523019620708E+00
    0.81505655317769620805E+00
    0.11841738327479006676E+00
    0.80079737986678423134E+00
    0.11086099682708398795E+00
    0.73463813897891461213E+00
    0.79830466307857006480E+00
    0.81602629130162929183E+00
    0.80751505670127987635E+00
    0.81617654772659575801E+00
    0.79377639007525924164E+00
    0.12912602218590762959E+00
    0.81584937275879521046E+00
    0.79452598445011979322E+00
    0.81608760256370616037E+00
    0.11291218539917395602E+00
    0.10385015786203793953E+00
    0.11354186920498315905E+00
    0.10294210205858900231E+00
    0.11056567818791193658E+00
    0.23422211338851128826E+00
    0.23204849584758824310E+00
    0.33151610483747495639E+00
    0.10260373942888389998E+00
    0.12037462562909731489E+00
    0.12272817006914077398E+00
    0.22747569485747790030E+00
    0.15061988823697880502E+00
    0.92179342307845091309E+00
    0.83123676614224906167E+00
    0.77127313416340159691E+00
    0.11616061435819023673E+00
    0.77957211631591316614E+00
    0.31619796581453119000E+00
    0.21936216137933309267E+00
    0.10219507980281798687E+00
    0.74989608630104809261E+00
    0.86545844154925533065E+00