# vtk DataFile Version 3.0
LAPLACIEN  2D
ASCII
DATASET UNSTRUCTURED_GRID
 POINTS        1083  float
  0.25752000000000003       0.83521000000000001        0.0000000000000000     
  0.26692436000000003       0.82361669999999998        0.0000000000000000     
  0.12755760999999999       0.37286407999999999        0.0000000000000000     
  0.16947000000000001       0.36312000000000000        0.0000000000000000     
  0.20556749999999999       0.30943999999999999        0.0000000000000000     
  0.19808000000000001       0.30240000000000000        0.0000000000000000     
  0.17829000000000000       0.29613000000000000        0.0000000000000000     
  0.16072427000000000       0.27611573000000000        0.0000000000000000     
  0.20518000000000000       0.25756000000000001        0.0000000000000000     
  0.14513182999999999       0.15495659000000001        0.0000000000000000     
  0.18475000000000000       0.25733000000000000        0.0000000000000000     
  0.15320000000000000       0.28981000000000001        0.0000000000000000     
   8.4010000000000001E-002  0.28726000000000002        0.0000000000000000     
  0.12066000000000000       0.31644000000000000        0.0000000000000000     
  0.15419146000000000       0.34997146000000001        0.0000000000000000     
   9.1609999999999997E-002  0.41126000000000001        0.0000000000000000     
   8.2839999999999997E-002  0.24906000000000000        0.0000000000000000     
  0.10719500000000000       0.24906000000000000        0.0000000000000000     
  0.10394500000000000       0.24026000000000000        0.0000000000000000     
  0.10306999999999999       0.16439999999999999        0.0000000000000000     
  0.20605000000000001        7.9089999999999994E-002   0.0000000000000000     
  0.42243181000000002       0.83768843000000004        0.0000000000000000     
  0.40538000000000002       0.78705000000000003        0.0000000000000000     
  0.42062500000000003       0.70743999999999996        0.0000000000000000     
  0.39167000000000002       0.62682000000000004        0.0000000000000000     
  0.38775999999999999       0.57162500000000005        0.0000000000000000     
  0.39058282000000000       0.54871530000000002        0.0000000000000000     
  0.39464117999999998       0.46212064000000003        0.0000000000000000     
  0.39241130000000002       0.45290363000000000        0.0000000000000000     
  0.38384000000000001       0.55516500000000002        0.0000000000000000     
  0.38069999999999998       0.59557000000000004        0.0000000000000000     
  0.36735092000000003       0.72975095999999995        0.0000000000000000     
  0.37138180999999998       0.84873708999999997        0.0000000000000000     
  0.31856716000000002       0.83411802999999995        0.0000000000000000     
  0.65566999999999998       0.71865999999999997        0.0000000000000000     
  0.62348499999999996       0.71865999999999997        0.0000000000000000     
  0.63253999999999999       0.72650000000000003        0.0000000000000000     
  0.63397590999999998       0.79238797000000005        0.0000000000000000     
  0.61133999999999999       0.77437999999999996        0.0000000000000000     
  0.58667000000000002       0.75475999999999999        0.0000000000000000     
  0.51746738999999997       0.83310978000000002        0.0000000000000000     
  0.51022000000000001       0.76192000000000004        0.0000000000000000     
  0.49914890000000001       0.74624727000000002        0.0000000000000000     
  0.50311967000000002       0.80879526000000002        0.0000000000000000     
  0.50158999999999998       0.83067000000000002        0.0000000000000000     
  0.46398766000000002       0.86013877000000005        0.0000000000000000     
  0.41615999999999997       0.37445000000000001        0.0000000000000000     
  0.43026551000000002       0.31678289999999998        0.0000000000000000     
  0.39694000000000002       0.24930500000000000        0.0000000000000000     
  0.41994211999999997       0.11642168999999999        0.0000000000000000     
  0.43478000000000000       0.10487000000000000        0.0000000000000000     
  0.57060999999999995       0.13406000000000001        0.0000000000000000     
  0.69662999999999997       0.19536999999999999        0.0000000000000000     
  0.71886000000000005       0.24690999999999999        0.0000000000000000     
  0.74097999999999997       0.33731000000000000        0.0000000000000000     
  0.72538453999999997       0.37890159000000001        0.0000000000000000     
  0.73320112000000004       0.40760169000000002        0.0000000000000000     
  0.70620000000000005       0.41999999999999998        0.0000000000000000     
  0.74504999999999999       0.48705999999999999        0.0000000000000000     
  0.68996999999999997       0.48530000000000001        0.0000000000000000     
  0.66213999999999995       0.47589999999999999        0.0000000000000000     
  0.63373000000000002       0.47414000000000001        0.0000000000000000     
  0.68861000000000006       0.55347000000000002        0.0000000000000000     
  0.62687669000000001       0.62714972999999996        0.0000000000000000     
  0.51632500000000003       0.26038000000000000        0.0000000000000000     
  0.66345008000000005       0.20335998999999999        0.0000000000000000     
  0.68430000000000002       0.34078999999999998        0.0000000000000000     
  0.59737622999999995       0.42491739000000001        0.0000000000000000     
  0.55410000000000004       0.41776999999999997        0.0000000000000000     
  0.52314000000000005       0.40723999999999999        0.0000000000000000     
  0.46111999999999997       0.32850000000000001        0.0000000000000000     
  0.67330999999999996       0.19785000000000000        0.0000000000000000     
  0.69296999999999997       0.22594000000000000        0.0000000000000000     
  0.40191943000000002       0.86367486999999998        0.0000000000000000     
  0.12271248000000000       0.14762657000000001        0.0000000000000000     
  0.14852475000000001       0.12337326999999999        0.0000000000000000     
  0.74936000000000003       0.44945000000000002        0.0000000000000000     
  0.61883999999999995       0.82247000000000003        0.0000000000000000     
  0.26941311000000001       0.82690965999999999        0.0000000000000000     
  0.14224880000000001       0.37582204000000002        0.0000000000000000     
  0.16781681000000001       0.35746910999999998        0.0000000000000000     
  0.38384000000000001       0.56583499999999998        0.0000000000000000     
  0.17475499999999999       0.26156499999999999        0.0000000000000000     
  0.16588214000000001       0.27095785999999999        0.0000000000000000     
  0.19754658000000000       0.25190794000000000        0.0000000000000000     
  0.18240999999999999       0.26306000000000002        0.0000000000000000     
  0.38775999999999999       0.58301250000000004        0.0000000000000000     
   9.2598787000000002E-002  0.28369930999999998        0.0000000000000000     
  0.12988000000000000       0.31154999999999999        0.0000000000000000     
  0.15971573000000000       0.35549573000000001        0.0000000000000000     
  0.43006250000000001       0.70743999999999996        0.0000000000000000     
  0.40538000000000002       0.77361250000000004        0.0000000000000000     
  0.42100500000000002       0.81830000000000003        0.0000000000000000     
  0.41854986000000000       0.69665306000000005        0.0000000000000000     
  0.38971499999999998       0.61060999999999999        0.0000000000000000     
  0.38773564999999999       0.45901181000000002        0.0000000000000000     
  0.39590059000000000       0.45441031999999998        0.0000000000000000     
  0.38384000000000001       0.54735250000000002        0.0000000000000000     
  0.36502704000000002       0.72473217000000001        0.0000000000000000     
  0.32337357999999999       0.82795901000000005        0.0000000000000000     
  0.70706773000000001       0.36044921000000002        0.0000000000000000     
  0.74097999999999997       0.35293500000000000        0.0000000000000000     
  0.74097999999999997       0.31773499999999999        0.0000000000000000     
  0.71235000000000004       0.23181499999999999        0.0000000000000000     
  0.58099500000000004       0.12427000000000001        0.0000000000000000     
  0.50926802999999998       0.81618526000000002        0.0000000000000000     
  0.39694000000000002       0.25951249999999998        0.0000000000000000     
  0.43692275000000003       0.32087145000000000        0.0000000000000000     
  0.41615999999999997       0.32374500000000000        0.0000000000000000     
  0.43379000000000001       0.30536999999999997        0.0000000000000000     
  0.56120943999999995       0.14292195999999999        0.0000000000000000     
  0.56101000000000001       0.12778999999999999        0.0000000000000000     
  0.72713519000000004       0.36131693999999998        0.0000000000000000     
  0.74289499999999997       0.49852000000000002        0.0000000000000000     
  0.70664000000000005       0.43221999999999999        0.0000000000000000     
  0.53013999999999994       0.41189999999999999        0.0000000000000000     
  0.54561999999999999       0.41584500000000002        0.0000000000000000     
  0.71071649000000003       0.55600200000000000        0.0000000000000000     
  0.67979000000000001       0.56306999999999996        0.0000000000000000     
  0.62555094000000000       0.62995129000000005        0.0000000000000000     
  0.66964504000000002       0.20812000000000000        0.0000000000000000     
  0.58421811000000001       0.42326870000000000        0.0000000000000000     
  0.59798264000000001       0.43157266000000000        0.0000000000000000     
  0.54939000000000004       0.42473000000000000        0.0000000000000000     
  0.52732000000000001       0.40139999999999998        0.0000000000000000     
[...]
 CELL_DATA        1963
 SCALARS Cells_density float
 LOOKUP_TABLE default
    0.19337935010730247787E+00
    0.81273560343398099093E+00
    0.81669632167889116836E+00
    0.79332465265561080692E+00
    0.73781604269972012045E+00
    0.68617810509416576892E+00
    0.81603457284057723253E+00
    0.10272296832413026213E+00
    0.10404504526958892330E+00
    0.75035640911740009162E+00
    0.12091356344256348754E+00
    0.81259283613084687392E+00
    0.68084248145818548892E+00
    0.76932544380476797219E+00
    0.78679127779703839085E+00
    0.81731174379703996902E+00
    0.79854754806158068092E+00
    0.12330240666526898208E+00
    0.13289559357340732793E+00
    0.81694340614194604910E+00
    0.12712218242572706495E+00
    0.12902102713498084241E+00
    0.26903740817407606478E+00
    0.10488717510681590250E+00
    0.12066041182093943662E+00
    0.73622529092066224532E+00
    0.13170945298988512295E+00
    0.72953563266733256754E+00
    0.79342656799785948873E+00
    0.76186465176852313785E+00
    0.78210128816013502195E+00
    0.10245097126653603115E+00
    0.10339226666690276568E+00
    0.76405508432946400710E+00
    0.12123797380920295352E+00
    0.14168116840392680489E+00
    0.81253005094014818521E+00
    0.81410104937887761700E+00
    0.18398828696802252414E+00
    0.80660764909936777389E+00
    0.79190862180461008002E+00
    0.79085687844802943225E+00
    0.78849581519809741614E+00
    0.74282110059559147697E+00
    0.18787584501850707053E+00
    0.77388572810100053623E+00
    0.76127570417741630138E+00
    0.79916404287759967850E+00
    0.11504598060055841457E+00
    0.10265662452665953730E+00
    0.10262845857613261957E+00
    0.11735600542141436109E+00
    0.11309221445550984853E+00
    0.75284665246221504908E+00
    0.11672770930658470101E+00
    0.79962782687441102958E+00
    0.76441293345887273425E+00
    0.11457049019101134268E+00
    0.74444912477140523510E+00
    0.77082799716462435669E+00
    0.78417363469642498153E+00
    0.10271123192733734586E+00
    0.78724299870042702132E+00
    0.11990497990033559261E+00
    0.12980878263065795397E+00
    0.11530166316414514061E+00
    0.74297559578700678173E+00
    0.74442829681358058114E+00
    0.81732185462109441243E+00
    0.79924532672452086590E+00
    0.78685131341137259930E+00
    0.79295072011823108937E+00
    0.11266761802858656083E+00
    0.10281185223586283839E+00
    0.10245670451907487597E+00
    0.80848719837646454422E+00
    0.10932203163125138456E+00
    0.10906373311193542919E+00
    0.78644634169215765773E+00
    0.11068889093100112153E+00
    0.76518363011916012972E+00
    0.80953000807334907218E+00
    0.11144433549326861199E+00
    0.10251303614372500594E+00
    0.80483640136480860683E+00
    0.16243659182328998303E+00
    0.74028179815666439456E+00
    0.81775951188925732893E+00
    0.77654411466305717227E+00
    0.81672712574459327417E+00
    0.11754573002235571555E+00
    0.12085286892265108272E+00
    0.11175734855976640625E+00
    0.78111509327708728012E+00
    0.11685218053257991067E+00
    0.12040039501772149821E+00
    0.77931402284738660047E+00
    0.74031394390233284941E+00
    0.12048774477090254398E+00
    0.11253990053261085647E+00
    0.11314140305773498496E+00
    0.12043157562524763049E+00
    0.76639527690220221601E+00
    0.78213771581703095404E+00
    0.11862975840764085345E+00
    0.11304387869026527591E+00
    0.77012974344842066721E+00
    0.11442520294285919713E+00
    0.11776158682150199286E+00
    0.12028387400054776912E+00
    0.80954436913894189942E+00
    0.78662831307308012097E+00
    0.15268835699536117967E+00
    0.12616228261972387004E+00
    0.77216581932445704783E+00
    0.76577135123571171693E+00
    0.75680183619192642475E+00
    0.78954387760218536219E+00
    0.77897547375646780665E+00
    0.77426074343881690076E+00
    0.77598502370524713445E+00
    0.81298825401755803188E+00
    0.16285578644572412665E+00
    0.78684331552236652652E+00
    0.77125901152858633569E+00
    0.13294725009990299158E+00
    0.10282390142845568293E+00
    0.12413529613987320244E+00
    0.11145217256640550796E+00
    0.11976483550652509968E+00
    0.74471448311469756742E+00
    0.77241377255459664486E+00
    0.14294454349082144629E+00
    0.12543756152053570085E+00
    0.65152279836750659481E+00
    0.81454935346822388009E+00
    0.11845798223517071956E+00
    0.78689176838826602189E+00
    0.77375245903415912352E+00
    0.76089918493162134183E+00
    0.76271329237678553437E+00
    0.81610078778527417320E+00
    0.81272251614072532622E+00
    0.81287000912690687837E+00
    0.11493591712888971690E+00
    0.11817302436834156709E+00
    0.81780190969368449228E+00
    0.70167765861356656831E+00
    0.11351140340513762861E+00
    0.81772841286673914052E+00
    0.80734006674814240423E+00
    0.11477317044625753861E+00
    0.80117583107447531976E+00
    0.78094282159672578914E+00
    0.78425126660152022495E+00
    0.11649683319603652831E+00
    0.11316332395101061370E+00
    0.12094806005676589367E+00
    0.80968371361653801443E+00
    0.12746175019500352588E+00
    0.81046962828675439550E+00
    0.11456089754784057333E+00
    0.80663072504937527452E+00
    0.11933393193123423281E+00
    0.10797619133905814182E+00
    0.81064662501451312249E+00
    0.10851887354035046063E+00
    0.10231107055514299109E+00
    0.11288410155316550010E+00
    0.77418022921533979908E+00
    0.12096338758498546839E+00
    0.81767061939466800791E+00
    0.81781129195984703095E+00
    0.81688954335757435476E+00
    0.81773483583356199045E+00
    0.12394783110853749286E+00
    0.11421384018370529800E+00
    0.81781116748863846855E+00
    0.81773383191428128391E+00
    0.81100734142561103912E+00
    0.80726702218536550149E+00
    0.81722586963332699561E+00
    0.81745530788552356327E+00
    0.81764228330278443391E+00
    0.81776917944753058087E+00
    0.14314797988204105983E+00
    0.81733717925864668441E+00
    0.80684718566355106972E+00
    0.81751048338901322055E+00
    0.81755446028063216701E+00
    0.11784232373147235373E+00
    0.11351081323800907286E+00
    0.13278087325533347030E+00
    0.75953046793427025918E+00
    0.79364120848306274336E+00
    0.11014534891180439991E+00
    0.76032647490121629819E+00
    0.80203746583894386379E+00
    0.81059737197941517106E+00
    0.68062904991340655858E+00
    0.81593348375821062035E+00
    0.10222644268416754276E+00
    0.76355639138234543406E+00
    0.20400641837149138813E+00
    0.81345980250074945150E+00
    0.10250603348740500165E+00
    0.11500308418731321203E+00
    0.81781095660472091780E+00
    0.10259371970846242750E+00
    0.81453737018077521093E+00
    0.14566300277918095563E+00
    0.12499306217831795962E+00
    0.12581265183338086189E+00
    0.27701701015843521736E+00
    0.11477691861246799854E+00
    0.78764789141470725742E+00
    0.78770287978203146206E+00
    0.78913055130035858475E+00
    0.60566047180914062142E+00
    0.32252030663146824541E+00
    0.74680649590666769999E+00
    0.10593587059215443802E+00
    0.77688842697125204406E+00
    0.71376003690850764460E+00
    0.11744792915854038173E+00
    0.11263515825322564790E+00
    0.12871487776912302059E+00
    0.78745474396540460216E+00
    0.11113322436463819731E+00
    0.10253171212208987695E+00
    0.81381083278637811329E+00
    0.13435506161324628494E+00
    0.77631674975564457508E+00
    0.73799804000523561154E+00
    0.10273669981643061833E+00
    0.11053631556699038130E+00
    0.10222729427068939778E+00
    0.76705364626787009286E+00
    0.22002303538885684131E+00
    0.79965531257935917875E+00
    0.73500055531900265748E+00
    0.74367941573075768691E+00
    0.74881000835853550601E+00
    0.74496961382907667115E+00
    0.11113807701032947517E+00
    0.80002476877519079768E+00
    0.11176696795713399191E+00
    0.79112872436102110729E+00
    0.77599405374978502881E+00
    0.77452338927144026570E+00
    0.10232420273260370291E+00
    0.10894557684342236203E+00
    0.10222701777630278930E+00
    0.81740326840691390764E+00
    0.81412965895540978511E+00
    0.10233491489250173823E+00
    0.81673948747768698730E+00
    0.10245222926902221305E+00
    0.10222643805353567870E+00
    0.10222643807589396059E+00
    0.10222643797682738620E+00
    0.10263682274532943961E+00
    0.10222643820543904358E+00
    0.10222643806552854373E+00
    0.81658147389398338944E+00
    0.71110891785361873829E+00
    0.78556276609607045280E+00
    0.80138117141876263894E+00
    0.81413490149452893974E+00
    0.81675230958528266534E+00
    0.81745738618166552403E+00
    0.81592683342816141323E+00
    0.80003010817377073760E+00
    0.81602959617866166475E+00
    0.81646199817697273637E+00
    0.10228098989957747078E+00
    0.81755789465587702658E+00
    0.11815572123103687541E+00
    0.81184692639626376831E+00
    0.10222643800294414773E+00
    0.81726428694774200245E+00
    0.75434307029146085988E+00
    0.11864956103171724056E+00
    0.79807954300989425445E+00
    0.79255336815515897708E+00
    0.21586442161983251942E+00
    0.15672058993313012221E+00
    0.81739436118660757646E+00
    0.81717848769612244642E+00
    0.81375110773036152256E+00
    0.79870647987154386183E+00
    0.11595557534598741056E+00
    0.11694343834749684752E+00
    0.80328461547104879070E+00
    0.11738461359560360686E+00
    0.78373031748032961907E+00
    0.11142324730218440554E+00
    0.79543578445919416176E+00
    0.12200067800274587426E+00
    0.78745321123210698655E+00
    0.81732220295384638842E+00
    0.81566827609088665696E+00
    0.77381217363425713884E+00
    0.81518838470388743644E+00
    0.79891475937799460993E+00
    0.81723698968718327951E+00
    0.77873225558115244382E+00
    0.78134617686600038589E+00
    0.11873998763573127835E+00
    0.11614100431952603665E+00
    0.79297359993739136019E+00
    0.77295497909927313174E+00
    0.11354925281984734609E+00
    0.81682643557303946658E+00
    0.14355857135267294233E+00
    0.78523032327579156409E+00
    0.79934136632991759086E+00
    0.77745826224607905708E+00
    0.11233626996503651152E+00
    0.79781145541128550835E+00
    0.11442008148188165251E+00
    0.11464211926400282027E+00
    0.11520016570077243334E+00
    0.11439825662885791391E+00
    0.80476475773507216704E+00
    0.11636284950138062189E+00
    0.80816773769574090647E+00
    0.80287460683605349487E+00
    0.11516095094996629811E+00
    0.10853387207459232189E+00
    0.80286545385887553294E+00
    0.79011614055879564322E+00
    0.79860754607837103336E+00
    0.79299766706783747505E+00
    0.81387916534277715552E+00
    0.78733896347595389020E+00
    0.10229398754614024702E+00
    0.78199501013883243594E+00
    0.20953624973160978051E+00
    0.76342791596322900904E+00
    0.11640917922798933726E+00
    0.11305748516616301313E+00
    0.76598720506901307736E+00
    0.10364418027897716323E+00
    0.78320661503129962444E+00
    0.10281882380096205032E+00
    0.10222981418744030158E+00
    0.10282247008055600546E+00
    0.79098230032102090359E+00
    0.79452960188510401984E+00
    0.78211340606639134787E+00
    0.11697388954385572191E+00
    0.12217730969360544868E+00
    0.19119783030103482124E+00
    0.79390288687809351664E+00
    0.81731898664299851287E+00
    0.81620090103904419099E+00
    0.20583135497181243023E+00
    0.81676778510364356212E+00
    0.81606455927996179867E+00
    0.78465977493905125772E+00
    0.19367397050640511313E+00
    0.17088438137052269772E+00
    0.78337476993158727812E+00
    0.79221302074687793837E+00
    0.12175345432419734659E+00
    0.79684770162729090526E+00
    0.79187840694810085473E+00
    0.12935508008308566064E+00
    0.10307274165954669054E+00
    0.81769387736936327560E+00
    0.81738910032680112128E+00
    0.78824834495980977689E+00
    0.79859476033335696776E+00
    0.15639861232147492243E+00
    0.22865836316961329899E+00
    0.80190496698680657772E+00
    0.10914355307306294884E+00
    0.79551696733516719107E+00
    0.11972926325058033670E+00
    0.11038070217336248824E+00
    0.81675031195064651257E+00
    0.80261652325951560183E+00
    0.80570866340660285410E+00
    0.78540360334843206669E+00
    0.59224783948230463881E+00
    0.10990155026821832318E+00
    0.77486252790253928868E+00
    0.11075119939987289330E+00
    0.78507928424304007642E+00
    0.80265736946823218467E+00
    0.80109318554084496533E+00
    0.10855646850933718672E+00
    0.80605922837424714977E+00
    0.10943388716398981531E+00
    0.10250456809260903579E+00
    0.78591584131828606807E+00
    0.74925548079639991972E+00
    0.10240878032355101024E+00
    0.78383080191556009364E+00
    0.11677271422385981925E+00
    0.11506467552483518046E+00
    0.78724976754255759914E+00
    0.11356574101389280140E+00
    0.11280148413700098742E+00
    0.10242761055621443789E+00
    0.80617964457921897914E+00
    0.80842911540015605087E+00
    0.10306638139677171129E+00
    0.81744410065927985976E+00
    0.75131036521618266288E+00
    0.16271044845850063387E+00
    0.81767983598442184334E+00
    0.75827219510873455910E+00
    0.11842256399696175773E+00
    0.79434362545005654521E+00
    0.76062434021622982172E+00
    0.81712242257036571402E+00
    0.11385383564378770416E+00
    0.15276927713698013056E+00
    0.10235262813354356615E+00
    0.79294825576796146294E+00
    0.81638259347210506700E+00
    0.11467323096490189549E+00
    0.10257518366487443362E+00
    0.81692835130990981707E+00
    0.10230076953805994355E+00
    0.80389768951704276834E+00
    0.10222643827102988190E+00
    0.10222822117818869403E+00
    0.11365991210638815012E+00
    0.11615015784471063864E+00
    0.11707334597774882168E+00
    0.11564826875465451794E+00
    0.10234780141769998785E+00
    0.11457761755655762603E+00
    0.77529748086336780499E+00
    0.11607661715774317268E+00
    0.11133629319984807149E+00
    0.10222705816265917345E+00
    0.10222643966108839464E+00
    0.10222644275515824219E+00
    0.79179247691571896794E+00
    0.76807731694529690625E+00
    0.11855368264155585756E+00
    0.12040694413299091181E+00
    0.79739554805652779201E+00
    0.81740594083789608337E+00
    0.10227695285384862112E+00
    0.10222643834647841821E+00
    0.10222644269364866698E+00
    0.11683239466813659380E+00
    0.10317987339379360023E+00
    0.11259554062435377098E+00
    0.11530157755352134219E+00
    0.77526440528000717389E+00
    0.10242396531836533979E+00
    0.11566546650576567390E+00
    0.10236588674993467307E+00
    0.11717396074233242531E+00
    0.19090930247495196959E+00
    0.24912394497226969525E+00
    0.78325600431676378754E+00
    0.78737554724388780780E+00
    0.81709249656631444125E+00
    0.77165620866671780220E+00
    0.10558880111973714677E+00
    0.78837198241505013208E+00
    0.69910358870636035711E+00
    0.76631131163079402313E+00
    0.74938619107952719745E+00
    0.76409301764608839047E+00
    0.11882431189029279972E+00
    0.76988936889719616907E+00
    0.10222670227684053923E+00
    0.11380148285127524022E+00
    0.12021736268365196265E+00
    0.74308068033008412012E+00
    0.10251451237435590946E+00
    0.81690024528714777485E+00
    0.79250473109172914210E+00
    0.79897300214915611960E+00
    0.79438228851570713562E+00
    0.70756064744574409531E+00
    0.79276222765270176751E+00
    0.19324332332874796792E+00
    0.78574362983745904554E+00
    0.81353066287683828417E+00
    0.78215958879960978400E+00
    0.79349836116371674777E+00
    0.73310050222564238087E+00
    0.78903178726763323336E+00
    0.78034357316610425404E+00
    0.10222648870993347736E+00
    0.78871382190750494168E+00
    0.77550624574782367482E+00
    0.80734100475733072688E+00
    0.25220888513216777049E+00
    0.77100168763563248220E+00
    0.81757992628274311908E+00
    0.12285429715772280823E+00
    0.80626422888974158543E+00
    0.72927385586647541782E+00
    0.70233336553248215672E+00
    0.75436694271869508821E+00
    0.12478480700677326010E+00
    0.72239265515830319853E+00
    0.70842340478494891798E+00
    0.10919607441299118700E+00
    0.11295528547731474578E+00
    0.10247757224352960215E+00
    0.10242350146045173243E+00
    0.78668355196289041498E+00
    0.81567920016666073391E+00
    0.81673241484157321768E+00
    0.80212204790945840216E+00
    0.28132134568323741153E+00
    0.65199010003339552544E+00
    0.15793715497636784395E+00
    0.11182244493778377425E+00
    0.81771622619176387303E+00
    0.81763005763491869438E+00
    0.80920533492694346478E+00
    0.81648428409572437747E+00
    0.81735471260854042352E+00
    0.80205081904111164004E+00
    0.11677036163271695135E+00
    0.81690004057305121155E+00
    0.79622499266955115704E+00
    0.15935219853217869046E+00
    0.70398477391069058662E+00
    0.11688954556540386009E+00
    0.80529583830227946528E+00
    0.78795690708968901816E+00
    0.11521083367108442275E+00
    0.11199064203132787221E+00
    0.73884384320253382317E+00
    0.10241557195358734489E+00
    0.79184898138905646103E+00
    0.81663815097222069994E+00
    0.81152582036017073541E+00
    0.10832790916307162565E+00
    0.78831538356314279081E+00
    0.11169560816559953587E+00
    0.17921400505657789082E+00
    0.10836418719402522715E+00
    0.81720943952331559501E+00
    0.14703005842388155999E+00
    0.81773358953605024269E+00
    0.81780631369219425331E+00
    0.79053588983773448451E+00
    0.80428563912087402965E+00
    0.81709155477785122557E+00
    0.75318715013872550301E+00
    0.81781151296501097825E+00
    0.80888859583405758880E+00
    0.81158705340359516001E+00
    0.81752145762456518430E+00
    0.81570916896289646925E+00
    0.10301627855718868687E+00
    0.14543904603638627138E+00
    0.34909587208851772244E+00
    0.74325531468314454120E+00
    0.79911073075782701469E+00
    0.11567227154551464052E+00
    0.70931639591394912703E+00
    0.77429375275323297778E+00
    0.76457684296701766691E+00
    0.81332673623646312144E+00
    0.76979487748756214582E+00
    0.81693433810244708848E+00
    0.75792495220470990080E+00
    0.81760418254243705238E+00
    0.11388191570167663369E+00
    0.11412969722474308742E+00
    0.80137847282299601304E+00
    0.81769543932444188616E+00
    0.80394153227238751569E+00
    0.12357104678766295258E+00
    0.80968954747114807446E+00
    0.76249954690552612657E+00
    0.14888207525210678250E+00
    0.11650592893849497089E+00
    0.10961394786878304874E+00
    0.81766166849349242174E+00
    0.80392570416648201359E+00
    0.10997722364569477438E+00
    0.11040717805963261300E+00
    0.74499920055938917418E+00
    0.80602344748075605008E+00
    0.80769113535168735041E+00
    0.19580787680413572205E+00
    0.17897720662587232598E+00
    0.79277540864601370174E+00
    0.11148269302729658936E+00
    0.11678149602351906022E+00
    0.10598974385661344422E+00
    0.11315755330793658695E+00
    0.10336883576043227884E+00
    0.77237575157969795558E+00
    0.11110768670579192208E+00
    0.12755142625033485948E+00
    0.79374027730866003605E+00
    0.11333422251609059916E+00
    0.81620971917795259731E+00
    0.81645729325062965653E+00
    0.12014547747846474057E+00
    0.80086241929107182536E+00
    0.11188164552016015285E+00
    0.72896058371933614151E+00
    0.79819278598888510068E+00
    0.81762895154326342695E+00
    0.80831198544732929534E+00
    0.81781022541310832707E+00
    0.79318707061052462493E+00
    0.13197713053727222476E+00
    0.81741637784665421851E+00
    0.79411612230321593220E+00
    0.81770300289375341674E+00
    0.11422452096549710887E+00
    0.10440833429050436210E+00
    0.11487780840656121317E+00
    0.10341015547184539969E+00
    0.11166024233088281403E+00
    0.23864167037615607869E+00
    0.23674725165501642188E+00
    0.33544827671663657309E+00
    0.10292587510349225643E+00
    0.12314380301788964422E+00
    0.12502331399209032359E+00
    0.23524980351654015132E+00
    0.15610502057045813618E+00
    0.92383702023632419120E+00
    0.82301373633545638064E+00
    0.76882067262863018620E+00
    0.11775596333700742713E+00
    0.77763558641933339111E+00
    0.32186101632908226122E+00
    0.22820429018466803495E+00
    0.10243789086480878381E+00
    0.74581488675517193521E+00
    0.86075686528549599785E+00