# vtk DataFile Version 3.0
LAPLACIEN  2D
ASCII
DATASET UNSTRUCTURED_GRID
 POINTS        1083  float
  0.25752000000000003       0.83521000000000001        0.0000000000000000     
  0.26692436000000003       0.82361669999999998        0.0000000000000000     
  0.12755760999999999       0.37286407999999999        0.0000000000000000     
  0.16947000000000001       0.36312000000000000        0.0000000000000000     
  0.20556749999999999       0.30943999999999999        0.0000000000000000     
  0.19808000000000001       0.30240000000000000        0.0000000000000000     
  0.17829000000000000       0.29613000000000000        0.0000000000000000     
  0.16072427000000000       0.27611573000000000        0.0000000000000000     
  0.20518000000000000       0.25756000000000001        0.0000000000000000     
  0.14513182999999999       0.15495659000000001        0.0000000000000000     
  0.18475000000000000       0.25733000000000000        0.0000000000000000     
  0.15320000000000000       0.28981000000000001        0.0000000000000000     
   8.4010000000000001E-002  0.28726000000000002        0.0000000000000000     
  0.12066000000000000       0.31644000000000000        0.0000000000000000     
  0.15419146000000000       0.34997146000000001        0.0000000000000000     
   9.1609999999999997E-002  0.41126000000000001        0.0000000000000000     
   8.2839999999999997E-002  0.24906000000000000        0.0000000000000000     
  0.10719500000000000       0.24906000000000000        0.0000000000000000     
  0.10394500000000000       0.24026000000000000        0.0000000000000000     
  0.10306999999999999       0.16439999999999999        0.0000000000000000     
  0.20605000000000001        7.9089999999999994E-002   0.0000000000000000     
  0.42243181000000002       0.83768843000000004        0.0000000000000000     
  0.40538000000000002       0.78705000000000003        0.0000000000000000     
  0.42062500000000003       0.70743999999999996        0.0000000000000000     
  0.39167000000000002       0.62682000000000004        0.0000000000000000     
  0.38775999999999999       0.57162500000000005        0.0000000000000000     
  0.39058282000000000       0.54871530000000002        0.0000000000000000     
  0.39464117999999998       0.46212064000000003        0.0000000000000000     
  0.39241130000000002       0.45290363000000000        0.0000000000000000     
  0.38384000000000001       0.55516500000000002        0.0000000000000000     
  0.38069999999999998       0.59557000000000004        0.0000000000000000     
  0.36735092000000003       0.72975095999999995        0.0000000000000000     
  0.37138180999999998       0.84873708999999997        0.0000000000000000     
  0.31856716000000002       0.83411802999999995        0.0000000000000000     
  0.65566999999999998       0.71865999999999997        0.0000000000000000     
  0.62348499999999996       0.71865999999999997        0.0000000000000000     
  0.63253999999999999       0.72650000000000003        0.0000000000000000     
  0.63397590999999998       0.79238797000000005        0.0000000000000000     
  0.61133999999999999       0.77437999999999996        0.0000000000000000     
  0.58667000000000002       0.75475999999999999        0.0000000000000000     
  0.51746738999999997       0.83310978000000002        0.0000000000000000     
  0.51022000000000001       0.76192000000000004        0.0000000000000000     
  0.49914890000000001       0.74624727000000002        0.0000000000000000     
  0.50311967000000002       0.80879526000000002        0.0000000000000000     
  0.50158999999999998       0.83067000000000002        0.0000000000000000     
  0.46398766000000002       0.86013877000000005        0.0000000000000000     
  0.41615999999999997       0.37445000000000001        0.0000000000000000     
  0.43026551000000002       0.31678289999999998        0.0000000000000000     
  0.39694000000000002       0.24930500000000000        0.0000000000000000     
  0.41994211999999997       0.11642168999999999        0.0000000000000000     
  0.43478000000000000       0.10487000000000000        0.0000000000000000     
  0.57060999999999995       0.13406000000000001        0.0000000000000000     
  0.69662999999999997       0.19536999999999999        0.0000000000000000     
  0.71886000000000005       0.24690999999999999        0.0000000000000000     
  0.74097999999999997       0.33731000000000000        0.0000000000000000     
  0.72538453999999997       0.37890159000000001        0.0000000000000000     
  0.73320112000000004       0.40760169000000002        0.0000000000000000     
  0.70620000000000005       0.41999999999999998        0.0000000000000000     
  0.74504999999999999       0.48705999999999999        0.0000000000000000     
  0.68996999999999997       0.48530000000000001        0.0000000000000000     
  0.66213999999999995       0.47589999999999999        0.0000000000000000     
  0.63373000000000002       0.47414000000000001        0.0000000000000000     
  0.68861000000000006       0.55347000000000002        0.0000000000000000     
  0.62687669000000001       0.62714972999999996        0.0000000000000000     
  0.51632500000000003       0.26038000000000000        0.0000000000000000     
  0.66345008000000005       0.20335998999999999        0.0000000000000000     
  0.68430000000000002       0.34078999999999998        0.0000000000000000     
  0.59737622999999995       0.42491739000000001        0.0000000000000000     
  0.55410000000000004       0.41776999999999997        0.0000000000000000     
  0.52314000000000005       0.40723999999999999        0.0000000000000000     
  0.46111999999999997       0.32850000000000001        0.0000000000000000     
  0.67330999999999996       0.19785000000000000        0.0000000000000000     
  0.69296999999999997       0.22594000000000000        0.0000000000000000     
  0.40191943000000002       0.86367486999999998        0.0000000000000000     
  0.12271248000000000       0.14762657000000001        0.0000000000000000     
  0.14852475000000001       0.12337326999999999        0.0000000000000000     
  0.74936000000000003       0.44945000000000002        0.0000000000000000     
  0.61883999999999995       0.82247000000000003        0.0000000000000000     
  0.26941311000000001       0.82690965999999999        0.0000000000000000     
  0.14224880000000001       0.37582204000000002        0.0000000000000000     
  0.16781681000000001       0.35746910999999998        0.0000000000000000     
  0.38384000000000001       0.56583499999999998        0.0000000000000000     
  0.17475499999999999       0.26156499999999999        0.0000000000000000     
  0.16588214000000001       0.27095785999999999        0.0000000000000000     
  0.19754658000000000       0.25190794000000000        0.0000000000000000     
  0.18240999999999999       0.26306000000000002        0.0000000000000000     
  0.38775999999999999       0.58301250000000004        0.0000000000000000     
   9.2598787000000002E-002  0.28369930999999998        0.0000000000000000     
  0.12988000000000000       0.31154999999999999        0.0000000000000000     
  0.15971573000000000       0.35549573000000001        0.0000000000000000     
  0.43006250000000001       0.70743999999999996        0.0000000000000000     
  0.40538000000000002       0.77361250000000004        0.0000000000000000     
  0.42100500000000002       0.81830000000000003        0.0000000000000000     
  0.41854986000000000       0.69665306000000005        0.0000000000000000     
  0.38971499999999998       0.61060999999999999        0.0000000000000000     
  0.38773564999999999       0.45901181000000002        0.0000000000000000     
  0.39590059000000000       0.45441031999999998        0.0000000000000000     
  0.38384000000000001       0.54735250000000002        0.0000000000000000     
  0.36502704000000002       0.72473217000000001        0.0000000000000000     
  0.32337357999999999       0.82795901000000005        0.0000000000000000     
  0.70706773000000001       0.36044921000000002        0.0000000000000000     
  0.74097999999999997       0.35293500000000000        0.0000000000000000     
  0.74097999999999997       0.31773499999999999        0.0000000000000000     
  0.71235000000000004       0.23181499999999999        0.0000000000000000     
  0.58099500000000004       0.12427000000000001        0.0000000000000000     
  0.50926802999999998       0.81618526000000002        0.0000000000000000     
  0.39694000000000002       0.25951249999999998        0.0000000000000000     
  0.43692275000000003       0.32087145000000000        0.0000000000000000     
  0.41615999999999997       0.32374500000000000        0.0000000000000000     
  0.43379000000000001       0.30536999999999997        0.0000000000000000     
  0.56120943999999995       0.14292195999999999        0.0000000000000000     
  0.56101000000000001       0.12778999999999999        0.0000000000000000     
  0.72713519000000004       0.36131693999999998        0.0000000000000000     
  0.74289499999999997       0.49852000000000002        0.0000000000000000     
  0.70664000000000005       0.43221999999999999        0.0000000000000000     
  0.53013999999999994       0.41189999999999999        0.0000000000000000     
  0.54561999999999999       0.41584500000000002        0.0000000000000000     
  0.71071649000000003       0.55600200000000000        0.0000000000000000     
  0.67979000000000001       0.56306999999999996        0.0000000000000000     
  0.62555094000000000       0.62995129000000005        0.0000000000000000     
  0.66964504000000002       0.20812000000000000        0.0000000000000000     
  0.58421811000000001       0.42326870000000000        0.0000000000000000     
  0.59798264000000001       0.43157266000000000        0.0000000000000000     
  0.54939000000000004       0.42473000000000000        0.0000000000000000     
  0.52732000000000001       0.40139999999999998        0.0000000000000000     
[...]
 CELL_DATA        1963
 SCALARS Cells_density float
 LOOKUP_TABLE default
    0.44864776029241976163E+00
    0.82305793152017836523E+00
    0.89669148448999214107E+00
    0.83913888657318624897E+00
    0.67211855540913834073E+00
    0.56179249786583940196E+00
    0.86984773630890321883E+00
    0.13579476749361563126E+00
    0.17016716881338930789E+00
    0.53437901589651903844E+00
    0.21666373725025517283E+00
    0.82689802992166039353E+00
    0.35495715720310067054E+00
    0.67262100031797567024E+00
    0.77410691104650253269E+00
    0.91292100776880602542E+00
    0.82346040726618718875E+00
    0.25864673579641944690E+00
    0.30199331428389625254E+00
    0.90120270485481257516E+00
    0.28027968724121210542E+00
    0.26470822332555588030E+00
    0.51466458436071849114E+00
    0.17570175746375232828E+00
    0.22075863766127204468E+00
    0.61600885118099490967E+00
    0.26097541833862719640E+00
    0.51253864863427112120E+00
    0.76581258228028625812E+00
    0.68198573211805157968E+00
    0.76765264369389973886E+00
    0.12570393415798636338E+00
    0.16315225107014380557E+00
    0.72897396177647522109E+00
    0.20954103661498407751E+00
    0.36912246097160389402E+00
    0.82848649912744054546E+00
    0.85408759233591713400E+00
    0.46951352612753577409E+00
    0.74505889985894446781E+00
    0.79605101605963457523E+00
    0.79641559420154162119E+00
    0.76589168543089281016E+00
    0.68939737762394570630E+00
    0.45640668274866957876E+00
    0.71307859852760413499E+00
    0.69325777401339228057E+00
    0.79165411420232301154E+00
    0.17552425660960171983E+00
    0.13350622422539865086E+00
    0.13121991724158427184E+00
    0.19229449607693294144E+00
    0.18630026990664377839E+00
    0.55845871716844730503E+00
    0.21018986215988305633E+00
    0.79058680406841097543E+00
    0.60164628942563769254E+00
    0.18030239393487118571E+00
    0.54559689538965794320E+00
    0.63291907748644338216E+00
    0.74990574576305812915E+00
    0.13331819427218949414E+00
    0.77193757048066913296E+00
    0.20937716158301397651E+00
    0.32312193247400666785E+00
    0.19363256500163819607E+00
    0.60757857278214200125E+00
    0.56672643851472515042E+00
    0.91394598553381622974E+00
    0.82895778432927647028E+00
    0.80069958364247906246E+00
    0.79855407031044245425E+00
    0.19389482254064335787E+00
    0.13958529064248215157E+00
    0.12644107957960781796E+00
    0.87135070803937231254E+00
    0.16418403312147011874E+00
    0.15536319616269456123E+00
    0.72680895025509717478E+00
    0.17567128517561689249E+00
    0.63891995025045911216E+00
    0.87661312631067545009E+00
    0.18508721652398146817E+00
    0.12900837870851328271E+00
    0.84114118951594474272E+00
    0.40983468047714971538E+00
    0.74447327918513273026E+00
    0.92469479429641421309E+00
    0.71160126742518925447E+00
    0.90027578622539317088E+00
    0.20943594331830792110E+00
    0.22621248780618216645E+00
    0.18204502168462888267E+00
    0.64850174145213124177E+00
    0.20886687544728443910E+00
    0.23469491217659396720E+00
    0.70817004467363264819E+00
    0.56407002838279973744E+00
    0.23693810905538864597E+00
    0.18925760022364809809E+00
    0.18252665062657263961E+00
    0.21710574563041787344E+00
    0.61277132918729315669E+00
    0.67973640383616928951E+00
    0.21951179236075857304E+00
    0.18971091172391449375E+00
    0.63287336326166532263E+00
    0.19008249960960113545E+00
    0.23437216935280902330E+00
    0.21820977790071630076E+00
    0.79442055506320363722E+00
    0.72381538210820484114E+00
    0.36672093917148634867E+00
    0.25592846480418196542E+00
    0.77526733066932307370E+00
    0.65239738112983980400E+00
    0.61115078794443822297E+00
    0.76000886447249882405E+00
    0.70624910536323548538E+00
    0.68772215147434523352E+00
    0.68326378356415640170E+00
    0.79988730876910307810E+00
    0.41095869261900097591E+00
    0.75912487456599764268E+00
    0.61648844453153084366E+00
    0.31405887080759781194E+00
    0.13935009564325123721E+00
    0.27044410267877799781E+00
    0.18086333075121904801E+00
    0.22688286733418477903E+00
    0.60947507747777718290E+00
    0.66594979740813320390E+00
    0.35249915270050552474E+00
    0.25844571812061567506E+00
    0.51194568269016405004E+00
    0.83090041998681629654E+00
    0.21552193708321890075E+00
    0.74638671777467024970E+00
    0.65939803433040922176E+00
    0.56534354016873378246E+00
    0.69419923893760637768E+00
    0.88439846788179199422E+00
    0.80104658195657629793E+00
    0.81185935571563283553E+00
    0.20037123893888292292E+00
    0.21001388329725634296E+00
    0.93105162770441585174E+00
    0.39463879562995674011E+00
    0.20181178179203312917E+00
    0.92954718277648029634E+00
    0.86415665994912871373E+00
    0.20092897974846929410E+00
    0.81681419914538377913E+00
    0.76678334790339353066E+00
    0.70433181837756342336E+00
    0.21722234084966957068E+00
    0.20316096356693591485E+00
    0.22699945370645047138E+00
    0.88204863845224112939E+00
    0.25789707037837072967E+00
    0.88137869968475313076E+00
    0.21746241887659761849E+00
    0.83449001950192414068E+00
    0.21891913524018072335E+00
    0.15801260323681912134E+00
    0.87407892230712969095E+00
    0.16301580436655421780E+00
    0.12075494231309449877E+00
    0.19183528687302828231E+00
    0.68648009472290383304E+00
    0.22825328144406598074E+00
    0.92632043678245090668E+00
    0.93312791312920895237E+00
    0.90125605097743255456E+00
    0.92988257132368601354E+00
    0.22259854193202108230E+00
    0.22434553168619447705E+00
    0.93309103167071250073E+00
    0.92993201893065946528E+00
    0.88278695951854857515E+00
    0.62675883785676311799E+00
    0.48938993553899640121E+00
    0.91935984017052230222E+00
    0.92607393945286120562E+00
    0.90633863183580853917E+00
    0.34348856592465731863E+00
    0.89640917427574051679E+00
    0.87274408502198241866E+00
    0.87362468462592846041E+00
    0.90999541151437801645E+00
    0.20635607118314885922E+00
    0.20251131402748306920E+00
    0.29755910827603615498E+00
    0.61882646804222241066E+00
    0.78023797373509862219E+00
    0.17200912434138471152E+00
    0.66192809810436559204E+00
    0.84855550007498714571E+00
    0.79697789931167051236E+00
    0.63450882067162617250E+00
    0.75151666406677974930E+00
    0.11666021801172020422E+00
    0.71382908197348426960E+00
    0.47971316919821627156E+00
    0.81708055922951139394E+00
    0.12626913658085170411E+00
    0.22661819105090641457E+00
    0.93303302458912906747E+00
    0.13108383043800556078E+00
    0.86258289239218599587E+00
    0.36863494534903917810E+00
    0.29420928956779168750E+00
    0.24786862596250572310E+00
    0.50610421365043134490E+00
    0.21306858178299778461E+00
    0.73986277853235726809E+00
    0.74548268015445973145E+00
    0.74119794893944646041E+00
    0.35591601457957261490E+00
    0.56134207177819372969E+00
    0.68198965856449056400E+00
    0.17593720911077279090E+00
    0.69271592190062691863E+00
    0.60274610271928863447E+00
    0.22135142471101557082E+00
    0.17065511252024492816E+00
    0.24087216638333713847E+00
    0.76271944951071779517E+00
    0.16701026236015439896E+00
    0.12794069746733752191E+00
    0.82924761432937221795E+00
    0.32901465277808233933E+00
    0.73833075541787951401E+00
    0.48985198384017314410E+00
    0.13534655748477261716E+00
    0.16196540488829158644E+00
    0.11689009387372886750E+00
    0.68562977274838232677E+00
    0.47928458892922864987E+00
    0.72758623606819117224E+00
    0.65886037864376800766E+00
    0.58260537056316497040E+00
    0.54476728442462263313E+00
    0.56388251148445722727E+00
    0.17413606073286402864E+00
    0.81196812301122978095E+00
    0.16469312828327684062E+00
    0.71927151645488007770E+00
    0.68334108545166283299E+00
    0.67731411964878052157E+00
    0.12083846777555874719E+00
    0.16669976993969504164E+00
    0.11684643589776674832E+00
    0.91499662288646754771E+00
    0.86264783805241551651E+00
    0.12118332162988788847E+00
    0.89507357815366839215E+00
    0.12598849054428240546E+00
    0.11665181440792007916E+00
    0.11665181394282006511E+00
    0.11665181611517533300E+00
    0.12963381816619612419E+00
    0.11665183101254571196E+00
    0.11665181403359743684E+00
    0.88978776197618469901E+00
    0.55418314554876990652E+00
    0.81241263568070531953E+00
    0.45115735188638256270E+00
    0.83809000392606447516E+00
    0.89555805346914785225E+00
    0.51543425229633121898E+00
    0.87459890717533506077E+00
    0.49385577235212313463E+00
    0.87210765281727353759E+00
    0.89000493858873652719E+00
    0.11910839051703636660E+00
    0.63549926154437896830E+00
    0.21224413941400990802E+00
    0.87992020160763650960E+00
    0.11665181525898357662E+00
    0.55058815391988380483E+00
    0.67822361473765746531E+00
    0.20220242174596525508E+00
    0.79359790397281582131E+00
    0.83187058083340281733E+00
    0.51027130894780103887E+00
    0.25911656382484354877E+00
    0.91634884108501357680E+00
    0.91102543892445075890E+00
    0.86191125674100899090E+00
    0.79953954462391796376E+00
    0.21004464188521523860E+00
    0.21018563712979335123E+00
    0.83434335474824661283E+00
    0.23452136707805731897E+00
    0.75814018210649447571E+00
    0.18820090870480854495E+00
    0.79286142141866511324E+00
    0.28266956187063202455E+00
    0.77890695506371465662E+00
    0.91269031556189528231E+00
    0.86676377255577741199E+00
    0.42885105313170773789E+00
    0.85480263680088164335E+00
    0.83696758955726591189E+00
    0.58568189800155534552E+00
    0.74483784458346524726E+00
    0.71697359784129732763E+00
    0.22541411860936313993E+00
    0.20612767198088344234E+00
    0.79061679479066326870E+00
    0.72010060105290663035E+00
    0.18068217728203242456E+00
    0.90043974802884607644E+00
    0.34879627421032871615E+00
    0.79837876072622060430E+00
    0.80189900211949804998E+00
    0.50371120523595724894E+00
    0.19115731821749248898E+00
    0.79271463428941102425E+00
    0.19840771569304524458E+00
    0.19587343445528662689E+00
    0.20425557615741893325E+00
    0.20020464202979981749E+00
    0.84135677184992030408E+00
    0.21248098021691980142E+00
    0.84437844007174300831E+00
    0.82849404174447893734E+00
    0.19849678289756561567E+00
    0.15784546957666978351E+00
    0.82726761913176205532E+00
    0.76811036302349389171E+00
    0.78256754731950739501E+00
    0.75827586304707195186E+00
    0.82835333292821078377E+00
    0.78806851984334125305E+00
    0.11981344569505310294E+00
    0.77409890140183179597E+00
    0.50686926985014402192E+00
    0.66642649165379630460E+00
    0.19983560608007513992E+00
    0.18160927644063054598E+00
    0.69465231548797057304E+00
    0.15764365251855605443E+00
    0.70915886711889464245E+00
    0.14334455562343828561E+00
    0.11747996773409588589E+00
    0.13522821876690330201E+00
    0.75531016050947985541E+00
    0.77501705058749148503E+00
    0.68545096761388379925E+00
    0.21140365902475780069E+00
    0.25337822829337453001E+00
    0.42590208389584921500E+00
    0.80915895153548411667E+00
    0.91616506493937721611E+00
    0.88659382873296466165E+00
    0.49985834892337083213E+00
    0.89909863766369013671E+00
    0.88901271435756301642E+00
    0.74566145362963009990E+00
    0.45161994713089576026E+00
    0.42317979631163527010E+00
    0.75855133083552661599E+00
    0.76535107626114240453E+00
    0.27557078162861375903E+00
    0.81728552918714958420E+00
    0.80416492477203060929E+00
    0.31947459032781239108E+00
    0.14940956214117218082E+00
    0.92831473447367951479E+00
    0.92001294605886108080E+00
    0.78436552433331352407E+00
    0.84021320049812531217E+00
    0.39465057369820033539E+00
    0.47288309157364721846E+00
    0.82715432936147281762E+00
    0.16554901077915681884E+00
    0.80221640907182845126E+00
    0.25044560435747492688E+00
    0.17778702053779432690E+00
    0.89765183275192939050E+00
    0.82631140711551698264E+00
    0.85997791588660588147E+00
    0.82162907099188187132E+00
    0.51457185077154721231E+00
    0.17240023195135614764E+00
    0.66726663214141290759E+00
    0.17501985192489663556E+00
    0.75485078039810304951E+00
    0.82351605090124646580E+00
    0.80026146199643821699E+00
    0.16331314267803612172E+00
    0.84229839057431454830E+00
    0.15955230893650862445E+00
    0.12739095527349353354E+00
    0.67773780715744369463E+00
    0.58738301404773141101E+00
    0.12445179639035351682E+00
    0.72333023704762389183E+00
    0.20254112762299164574E+00
    0.19313530914320964360E+00
    0.72839202049372353542E+00
    0.18399067465590401849E+00
    0.18383364771273499882E+00
    0.12573500555369501730E+00
    0.86717345216699703858E+00
    0.86949363756944009207E+00
    0.14593673894340619679E+00
    0.91758052978517334886E+00
    0.61623449055688273024E+00
    0.39031410817410422398E+00
    0.92630179756300556893E+00
    0.66803192416536483211E+00
    0.21326937615306471030E+00
    0.79517256970066529931E+00
    0.60489272466900789738E+00
    0.90956031005200532746E+00
    0.17868278203524562420E+00
    0.35541873024079440047E+00
    0.12143660583574479583E+00
    0.77771192326983196175E+00
    0.88419129685414465936E+00
    0.19282617936352916543E+00
    0.13037045603665173288E+00
    0.89635054011041248589E+00
    0.11914074757654342929E+00
    0.82954663439320830420E+00
    0.11665181162514114133E+00
    0.11708825858469736059E+00
    0.17138950023440790993E+00
    0.19140943317297715032E+00
    0.17616025929774925540E+00
    0.16680501128729124938E+00
    0.12202267457621900071E+00
    0.19529909478055981764E+00
    0.67243751115279648545E+00
    0.21600716250803900231E+00
    0.17019005435455697439E+00
    0.11683440671256772880E+00
    0.11665524515631169045E+00
    0.11665737732768058366E+00
    0.74246584958865113890E+00
    0.65281675406407757567E+00
    0.22514323791668006125E+00
    0.22597494560230996230E+00
    0.76385324012915933878E+00
    0.91596235234658640589E+00
    0.11870019275184658103E+00
    0.11665196301576262472E+00
    0.11665730426628731498E+00
    0.20531489164523358815E+00
    0.14740099620355101573E+00
    0.17160289008414097989E+00
    0.16005571807173232801E+00
    0.68176090722734739025E+00
    0.12452737853506462562E+00
    0.16610827421339363630E+00
    0.11978549198751363425E+00
    0.20855031234800447404E+00
    0.39999889519981801644E+00
    0.39123429106196666583E+00
    0.57268695030024507897E+00
    0.66232122251611535990E+00
    0.90923704619039580344E+00
    0.59690355943355444257E+00
    0.17386407197963707483E+00
    0.70366225181502384256E+00
    0.40749310393897814064E+00
    0.62198145006727734163E+00
    0.49994118549303495636E+00
    0.56369400414993686699E+00
    0.18664811012151710790E+00
    0.61687863679669263650E+00
    0.11671769045201149662E+00
    0.17821323369120492530E+00
    0.16743752976698464408E+00
    0.62001182266848098301E+00
    0.12823645163737701358E+00
    0.89764972863829017857E+00
    0.81019404059182853484E+00
    0.81355714562274228374E+00
    0.78011235933968769984E+00
    0.43467658187634472533E+00
    0.79359421551282283147E+00
    0.43496813351489849175E+00
    0.72673524138510381398E+00
    0.83297140018563009534E+00
    0.76174564787261589416E+00
    0.75917885946381113982E+00
    0.46568229000730637646E+00
    0.76568820903194312333E+00
    0.67532488912245103307E+00
    0.11673253081934686914E+00
    0.70881807713727140730E+00
    0.75090833559742464764E+00
    0.87003347170966616186E+00
    0.49700705738009420820E+00
    0.74640125159158587920E+00
    0.92215119031715819808E+00
    0.28754763538464128692E+00
    0.85651596418236575214E+00
    0.59424538504480295398E+00
    0.41389892428516095180E+00
    0.56238573847211825729E+00
    0.29004022972752246945E+00
    0.63788220992878386095E+00
    0.59724655378158097996E+00
    0.16145211651647931039E+00
    0.19063344846561941504E+00
    0.12894712111403131005E+00
    0.12559602757674334650E+00
    0.78543681860720182542E+00
    0.87864000597264646508E+00
    0.89528500337741101500E+00
    0.83220139108137036743E+00
    0.50369257174702664059E+00
    0.40331667057348941086E+00
    0.39862558163558942104E+00
    0.19428127695504288086E+00
    0.92941278895506507229E+00
    0.92603151198004740596E+00
    0.88987430708847226057E+00
    0.88100903217225201569E+00
    0.91632211890895332029E+00
    0.84909040318299866534E+00
    0.22720462951750841629E+00
    0.90355549146732128118E+00
    0.79436068311401941688E+00
    0.40799336238370353946E+00
    0.43888712505967897304E+00
    0.17778483617330750888E+00
    0.83772660290201872435E+00
    0.72784303117868087707E+00
    0.19886337764602141087E+00
    0.16004190415302294026E+00
    0.62170051631121991953E+00
    0.12362449538242316349E+00
    0.77892389702075170987E+00
    0.89051145057558378504E+00
    0.80844467274584885796E+00
    0.16241852278276591726E+00
    0.79753875431910270510E+00
    0.17701358179685772187E+00
    0.43502347651544293061E+00
    0.15872767800007436811E+00
    0.91139464368647304937E+00
    0.35943061707952372874E+00
    0.47898639198406667283E+00
    0.93193120083076774751E+00
    0.79586428560299549151E+00
    0.86089830592269711573E+00
    0.90746385764388415307E+00
    0.70408549237943307553E+00
    0.93315164436510045221E+00
    0.88268538802045914959E+00
    0.83403265446666408067E+00
    0.92272055798888752420E+00
    0.59206983270205704173E+00
    0.14694779630813686877E+00
    0.34535583631224164858E+00
    0.50515864413471889272E+00
    0.49935051311233141780E+00
    0.78228298723773337375E+00
    0.16734559072892907228E+00
    0.62672174122746016067E+00
    0.72443347334769669921E+00
    0.62907184112242531260E+00
    0.81566614156415595538E+00
    0.63839352438462548811E+00
    0.81357665151398517178E+00
    0.61025976004392257224E+00
    0.92079224423819616696E+00
    0.19312281950409856957E+00
    0.20683881702032963501E+00
    0.83013506811198278790E+00
    0.92494274131242559811E+00
    0.83766449736816694926E+00
    0.27280773082219345049E+00
    0.87571910588936374698E+00
    0.61257495547700135941E+00
    0.38378345583248163475E+00
    0.20323403449187374403E+00
    0.17138428016785206554E+00
    0.92021237054171245440E+00
    0.84297199082468610154E+00
    0.16507851417532720673E+00
    0.18359116113633369705E+00
    0.66743949840699512421E+00
    0.75164017631144863785E+00
    0.58783810011146020447E+00
    0.44545437114559188752E+00
    0.51446272771862133766E+00
    0.71390801562287076187E+00
    0.18582801199915233159E+00
    0.21182052789208119514E+00
    0.27852220018559992187E+00
    0.37973380509533871674E+00
    0.14494111991366342984E+00
    0.47383458496738861676E+00
    0.43448677347170250318E+00
    0.28762165763354385906E+00
    0.68303346726657054866E+00
    0.17903330448306656320E+00
    0.82931193679147696685E+00
    0.61729453665279065966E+00
    0.23511109215733344557E+00
    0.76937192823332190006E+00
    0.27012065436937882090E+00
    0.60682039787513875062E+00
    0.78813484912782338920E+00
    0.90542577751038066936E+00
    0.82036098536132651127E+00
    0.91165368298891069632E+00
    0.45098695069422978232E+00
    0.34643607703605061587E+00
    0.82096321538922900629E+00
    0.71459606833520927793E+00
    0.88620799182737863831E+00
    0.26192749164722578525E+00
    0.16813480893037682784E+00
    0.19669244936263088896E+00
    0.27850632062028818359E+00
    0.19128503961640408448E+00
    0.39495868757890439937E+00
    0.38116608475896129882E+00
    0.44347073380087770333E+00
    0.14548164908305152854E+00
    0.29243526913096962172E+00
    0.43527685186514630811E+00
    0.50261059299816179813E+00
    0.36764880513255943084E+00
    0.67090129201038861684E+00
    0.67332694348446053834E+00
    0.45000841842275390858E+00
    0.41953024204230165983E+00
    0.42041073191949918098E+00
    0.45766053524052663359E+00
    0.60427344701318075337E+00
    0.13344123492492529492E+00
    0.64292616806140423513E+00
    0.66581456445878195449E+00