# vtk DataFile Version 3.0
LAPLACIEN  2D
ASCII
DATASET UNSTRUCTURED_GRID
 POINTS        1083  float
  0.25752000000000003       0.83521000000000001        0.0000000000000000     
  0.26692436000000003       0.82361669999999998        0.0000000000000000     
  0.12755760999999999       0.37286407999999999        0.0000000000000000     
  0.16947000000000001       0.36312000000000000        0.0000000000000000     
  0.20556749999999999       0.30943999999999999        0.0000000000000000     
  0.19808000000000001       0.30240000000000000        0.0000000000000000     
  0.17829000000000000       0.29613000000000000        0.0000000000000000     
  0.16072427000000000       0.27611573000000000        0.0000000000000000     
  0.20518000000000000       0.25756000000000001        0.0000000000000000     
  0.14513182999999999       0.15495659000000001        0.0000000000000000     
  0.18475000000000000       0.25733000000000000        0.0000000000000000     
  0.15320000000000000       0.28981000000000001        0.0000000000000000     
   8.4010000000000001E-002  0.28726000000000002        0.0000000000000000     
  0.12066000000000000       0.31644000000000000        0.0000000000000000     
  0.15419146000000000       0.34997146000000001        0.0000000000000000     
   9.1609999999999997E-002  0.41126000000000001        0.0000000000000000     
   8.2839999999999997E-002  0.24906000000000000        0.0000000000000000     
  0.10719500000000000       0.24906000000000000        0.0000000000000000     
  0.10394500000000000       0.24026000000000000        0.0000000000000000     
  0.10306999999999999       0.16439999999999999        0.0000000000000000     
  0.20605000000000001        7.9089999999999994E-002   0.0000000000000000     
  0.42243181000000002       0.83768843000000004        0.0000000000000000     
  0.40538000000000002       0.78705000000000003        0.0000000000000000     
  0.42062500000000003       0.70743999999999996        0.0000000000000000     
  0.39167000000000002       0.62682000000000004        0.0000000000000000     
  0.38775999999999999       0.57162500000000005        0.0000000000000000     
  0.39058282000000000       0.54871530000000002        0.0000000000000000     
  0.39464117999999998       0.46212064000000003        0.0000000000000000     
  0.39241130000000002       0.45290363000000000        0.0000000000000000     
  0.38384000000000001       0.55516500000000002        0.0000000000000000     
  0.38069999999999998       0.59557000000000004        0.0000000000000000     
  0.36735092000000003       0.72975095999999995        0.0000000000000000     
  0.37138180999999998       0.84873708999999997        0.0000000000000000     
  0.31856716000000002       0.83411802999999995        0.0000000000000000     
  0.65566999999999998       0.71865999999999997        0.0000000000000000     
  0.62348499999999996       0.71865999999999997        0.0000000000000000     
  0.63253999999999999       0.72650000000000003        0.0000000000000000     
  0.63397590999999998       0.79238797000000005        0.0000000000000000     
  0.61133999999999999       0.77437999999999996        0.0000000000000000     
  0.58667000000000002       0.75475999999999999        0.0000000000000000     
  0.51746738999999997       0.83310978000000002        0.0000000000000000     
  0.51022000000000001       0.76192000000000004        0.0000000000000000     
  0.49914890000000001       0.74624727000000002        0.0000000000000000     
  0.50311967000000002       0.80879526000000002        0.0000000000000000     
  0.50158999999999998       0.83067000000000002        0.0000000000000000     
  0.46398766000000002       0.86013877000000005        0.0000000000000000     
  0.41615999999999997       0.37445000000000001        0.0000000000000000     
  0.43026551000000002       0.31678289999999998        0.0000000000000000     
  0.39694000000000002       0.24930500000000000        0.0000000000000000     
  0.41994211999999997       0.11642168999999999        0.0000000000000000     
  0.43478000000000000       0.10487000000000000        0.0000000000000000     
  0.57060999999999995       0.13406000000000001        0.0000000000000000     
  0.69662999999999997       0.19536999999999999        0.0000000000000000     
  0.71886000000000005       0.24690999999999999        0.0000000000000000     
  0.74097999999999997       0.33731000000000000        0.0000000000000000     
  0.72538453999999997       0.37890159000000001        0.0000000000000000     
  0.73320112000000004       0.40760169000000002        0.0000000000000000     
  0.70620000000000005       0.41999999999999998        0.0000000000000000     
  0.74504999999999999       0.48705999999999999        0.0000000000000000     
  0.68996999999999997       0.48530000000000001        0.0000000000000000     
  0.66213999999999995       0.47589999999999999        0.0000000000000000     
  0.63373000000000002       0.47414000000000001        0.0000000000000000     
  0.68861000000000006       0.55347000000000002        0.0000000000000000     
  0.62687669000000001       0.62714972999999996        0.0000000000000000     
  0.51632500000000003       0.26038000000000000        0.0000000000000000     
  0.66345008000000005       0.20335998999999999        0.0000000000000000     
  0.68430000000000002       0.34078999999999998        0.0000000000000000     
  0.59737622999999995       0.42491739000000001        0.0000000000000000     
  0.55410000000000004       0.41776999999999997        0.0000000000000000     
  0.52314000000000005       0.40723999999999999        0.0000000000000000     
  0.46111999999999997       0.32850000000000001        0.0000000000000000     
  0.67330999999999996       0.19785000000000000        0.0000000000000000     
  0.69296999999999997       0.22594000000000000        0.0000000000000000     
  0.40191943000000002       0.86367486999999998        0.0000000000000000     
  0.12271248000000000       0.14762657000000001        0.0000000000000000     
  0.14852475000000001       0.12337326999999999        0.0000000000000000     
  0.74936000000000003       0.44945000000000002        0.0000000000000000     
  0.61883999999999995       0.82247000000000003        0.0000000000000000     
  0.26941311000000001       0.82690965999999999        0.0000000000000000     
  0.14224880000000001       0.37582204000000002        0.0000000000000000     
  0.16781681000000001       0.35746910999999998        0.0000000000000000     
  0.38384000000000001       0.56583499999999998        0.0000000000000000     
  0.17475499999999999       0.26156499999999999        0.0000000000000000     
  0.16588214000000001       0.27095785999999999        0.0000000000000000     
  0.19754658000000000       0.25190794000000000        0.0000000000000000     
  0.18240999999999999       0.26306000000000002        0.0000000000000000     
  0.38775999999999999       0.58301250000000004        0.0000000000000000     
   9.2598787000000002E-002  0.28369930999999998        0.0000000000000000     
  0.12988000000000000       0.31154999999999999        0.0000000000000000     
  0.15971573000000000       0.35549573000000001        0.0000000000000000     
  0.43006250000000001       0.70743999999999996        0.0000000000000000     
  0.40538000000000002       0.77361250000000004        0.0000000000000000     
  0.42100500000000002       0.81830000000000003        0.0000000000000000     
  0.41854986000000000       0.69665306000000005        0.0000000000000000     
  0.38971499999999998       0.61060999999999999        0.0000000000000000     
  0.38773564999999999       0.45901181000000002        0.0000000000000000     
  0.39590059000000000       0.45441031999999998        0.0000000000000000     
  0.38384000000000001       0.54735250000000002        0.0000000000000000     
  0.36502704000000002       0.72473217000000001        0.0000000000000000     
  0.32337357999999999       0.82795901000000005        0.0000000000000000     
  0.70706773000000001       0.36044921000000002        0.0000000000000000     
  0.74097999999999997       0.35293500000000000        0.0000000000000000     
  0.74097999999999997       0.31773499999999999        0.0000000000000000     
  0.71235000000000004       0.23181499999999999        0.0000000000000000     
  0.58099500000000004       0.12427000000000001        0.0000000000000000     
  0.50926802999999998       0.81618526000000002        0.0000000000000000     
  0.39694000000000002       0.25951249999999998        0.0000000000000000     
  0.43692275000000003       0.32087145000000000        0.0000000000000000     
  0.41615999999999997       0.32374500000000000        0.0000000000000000     
  0.43379000000000001       0.30536999999999997        0.0000000000000000     
  0.56120943999999995       0.14292195999999999        0.0000000000000000     
  0.56101000000000001       0.12778999999999999        0.0000000000000000     
  0.72713519000000004       0.36131693999999998        0.0000000000000000     
  0.74289499999999997       0.49852000000000002        0.0000000000000000     
  0.70664000000000005       0.43221999999999999        0.0000000000000000     
  0.53013999999999994       0.41189999999999999        0.0000000000000000     
  0.54561999999999999       0.41584500000000002        0.0000000000000000     
  0.71071649000000003       0.55600200000000000        0.0000000000000000     
  0.67979000000000001       0.56306999999999996        0.0000000000000000     
  0.62555094000000000       0.62995129000000005        0.0000000000000000     
  0.66964504000000002       0.20812000000000000        0.0000000000000000     
  0.58421811000000001       0.42326870000000000        0.0000000000000000     
  0.59798264000000001       0.43157266000000000        0.0000000000000000     
  0.54939000000000004       0.42473000000000000        0.0000000000000000     
  0.52732000000000001       0.40139999999999998        0.0000000000000000     
[...]
 CELL_DATA        1963
 SCALARS Cells_density float
 LOOKUP_TABLE default
    0.24010481947152578774E+00
    0.81706894118762873891E+00
    0.82651681331600612701E+00
    0.79312540476078718932E+00
    0.71176635447843683568E+00
    0.64843679439772383688E+00
    0.82474478627562253230E+00
    0.10495818176511333142E+00
    0.10823140518817976619E+00
    0.72045502327575716706E+00
    0.13332006522151321204E+00
    0.81707457280662032506E+00
    0.62053172462074968063E+00
    0.75262225485884559628E+00
    0.78044429432513118261E+00
    0.82803185080798979989E+00
    0.79862320639760142615E+00
    0.13804813109172867081E+00
    0.15287090314062945495E+00
    0.82709250280600854488E+00
    0.14429030950750901252E+00
    0.14612011490971987815E+00
    0.33963734163493392026E+00
    0.11010377582651816042E+00
    0.13289327271149672938E+00
    0.71230376871160849817E+00
    0.14992758377580969742E+00
    0.69221398859369076551E+00
    0.78924845742769367263E+00
    0.74657131605776472227E+00
    0.77563802355443101089E+00
    0.10425522773540625565E+00
    0.10675160981647420499E+00
    0.74939985933313613131E+00
    0.13349492276004801261E+00
    0.17063375756012810758E+00
    0.81676674570140794795E+00
    0.82067755151851506934E+00
    0.22901974449367956677E+00
    0.80329805757565408975E+00
    0.78845923288791819328E+00
    0.78723990591988990406E+00
    0.78261518187280265657E+00
    0.72076178099167220736E+00
    0.23328659004253898823E+00
    0.75995599912767020090E+00
    0.74516208444411458078E+00
    0.79832155686555561491E+00
    0.12351540516561153316E+00
    0.10479035184273680081E+00
    0.10470551959898148631E+00
    0.12747510227782810066E+00
    0.12128822237787213745E+00
    0.72465317819124019927E+00
    0.12722980603680464351E+00
    0.79902495039446763681E+00
    0.73996009486693825608E+00
    0.12314610026757434602E+00
    0.70831763508476353053E+00
    0.75291587087560263303E+00
    0.77601454940039427122E+00
    0.10491373969640023500E+00
    0.78160737370964172843E+00
    0.13154220452836612454E+00
    0.15000618823533820589E+00
    0.12452736395336119757E+00
    0.71506594568567405368E+00
    0.71286546861674249254E+00
    0.82806526420428638868E+00
    0.79984689425104993354E+00
    0.78191714945789203561E+00
    0.78990249010331337054E+00
    0.12085709868080474205E+00
    0.10510615657343558293E+00
    0.10427387642178731486E+00
    0.81421042588914782634E+00
    0.11521570657286134276E+00
    0.11452673324216695872E+00
    0.77845926612015503565E+00
    0.11746605417518785064E+00
    0.74562471700184085321E+00
    0.81586765821283591116E+00
    0.11888936267350197484E+00
    0.10442339456475732695E+00
    0.80805280585264260829E+00
    0.19781093266535557107E+00
    0.72087998496928862302E+00
    0.82913454609621950464E+00
    0.76405860486793597541E+00
    0.82660456346204203015E+00
    0.12819484959825433457E+00
    0.13354160212425769672E+00
    0.11923641196270688691E+00
    0.76704110507628842086E+00
    0.12727743268428248768E+00
    0.13302658816565907096E+00
    0.76774383706438564801E+00
    0.70920463871304650905E+00
    0.13333239190527859663E+00
    0.12054745108527156749E+00
    0.12123709377132640963E+00
    0.13255344062355947643E+00
    0.74593676103530837107E+00
    0.76981527762881907240E+00
    0.13013447454978160911E+00
    0.12127605801726776269E+00
    0.75213589201122188488E+00
    0.12328553754482106386E+00
    0.12951548817512875678E+00
    0.13234479882756911007E+00
    0.81028485849861653367E+00
    0.77834761230168714174E+00
    0.18281433393548285338E+00
    0.14190879125094885138E+00
    0.76593661560694537016E+00
    0.74709493110210878353E+00
    0.73274973351055294746E+00
    0.78433091109560260090E+00
    0.76726477551019334200E+00
    0.76007236626681029534E+00
    0.76233612974816145069E+00
    0.81730381271876595406E+00
    0.19853988902703692543E+00
    0.78026960934291766936E+00
    0.75167752710399249327E+00
    0.15360215680055419596E+00
    0.10521933499872224149E+00
    0.13993108165458495451E+00
    0.11878149934581723468E+00
    0.13195821791838976966E+00
    0.71745650930010673729E+00
    0.75655323526504292264E+00
    0.16812754243482314065E+00
    0.14098329463688982766E+00
    0.60047861253119916292E+00
    0.82105940544026589922E+00
    0.12984026840115395207E+00
    0.78016514784568036234E+00
    0.76044209034769061351E+00
    0.73731134689149424588E+00
    0.74584069524128226991E+00
    0.82506016819480576530E+00
    0.81677992287553391471E+00
    0.81723874804128104898E+00
    0.12428781665238998466E+00
    0.12903805706881288362E+00
    0.82930150586060713547E+00
    0.64635462468914239853E+00
    0.12230587355265454264E+00
    0.82912202554672087551E+00
    0.81232470442945592382E+00
    0.12400093370087154898E+00
    0.80213731537440680075E+00
    0.77273853915074619536E+00
    0.77460497824046847803E+00
    0.12703397457776993695E+00
    0.12189365845488907281E+00
    0.13353791006219939419E+00
    0.81625422865138397288E+00
    0.14339922501416113576E+00
    0.81733318701791590755E+00
    0.12440317283226452749E+00
    0.81036065160107173533E+00
    0.13106155194848256862E+00
    0.11309262288372176619E+00
    0.81741516441799866310E+00
    0.11402459966792066748E+00
    0.10389381493165032733E+00
    0.12111968975416925742E+00
    0.75979688531431566201E+00
    0.13360027965767903857E+00
    0.82896469623567259344E+00
    0.82934044344161872431E+00
    0.82697438523934363452E+00
    0.82913899064706353403E+00
    0.13704415663552768634E+00
    0.12408003022326857812E+00
    0.82933990669582591249E+00
    0.82913731253405553723E+00
    0.81814478308836069420E+00
    0.80495892016005043956E+00
    0.82976008798743028372E+00
    0.82842621072260180792E+00
    0.82889655227078962163E+00
    0.82916917406709744753E+00
    0.16867298181598927576E+00
    0.82811178833164755808E+00
    0.81191321257909976339E+00
    0.82818262779942997120E+00
    0.82840287120413325095E+00
    0.12856567669264923337E+00
    0.12229836410134496683E+00
    0.15331525772793899720E+00
    0.73686120658411313755E+00
    0.79015968886476650734E+00
    0.11662633210821513052E+00
    0.74036445772056780346E+00
    0.80476055888166186936E+00
    0.81231108490320758087E+00
    0.64908756418005919553E+00
    0.82472905114163885809E+00
    0.10366773030446363446E+00
    0.74797784294869640309E+00
    0.25386480324281840426E+00
    0.81879540169917108816E+00
    0.10438201775627493906E+00
    0.12462203243296207655E+00
    0.82933901493199058130E+00
    0.10462620669072901503E+00
    0.82144636858487996012E+00
    0.17481225450969287150E+00
    0.14239629916053525571E+00
    0.14109023400961273609E+00
    0.34234116996044683390E+00
    0.12439357894655915515E+00
    0.78055887842703852719E+00
    0.78076169583224208637E+00
    0.78259903122959673105E+00
    0.55029193528187769768E+00
    0.40035265976991940562E+00
    0.73103222133215850498E+00
    0.11207320018049732324E+00
    0.76380020429875816745E+00
    0.68825421082450410903E+00
    0.12850832042516285858E+00
    0.12011714649111340791E+00
    0.14329249650612310707E+00
    0.78113712694595416330E+00
    0.11786930559272761065E+00
    0.10445827108017852192E+00
    0.81951752134492561463E+00
    0.15829098260170676449E+00
    0.76621286111693343024E+00
    0.69427795974138217794E+00
    0.10501184246721378956E+00
    0.11680208791906930565E+00
    0.10367135367478026720E+00
    0.75022714610088025999E+00
    0.27522717121316092603E+00
    0.79082375960251172220E+00
    0.71639849362190799464E+00
    0.71459815201081389180E+00
    0.71581384350889776247E+00
    0.71456051064912518012E+00
    0.11809693518262645573E+00
    0.80033248632161357872E+00
    0.11865761911752650826E+00
    0.78345365942328049069E+00
    0.76221177505927739659E+00
    0.76026398621514912346E+00
    0.10392500732370801853E+00
    0.11479639350364966022E+00
    0.10367023296999558490E+00
    0.82825954814590152520E+00
    0.82061325855210276448E+00
    0.10395373309566600939E+00
    0.82657484229539790466E+00
    0.10426026294720185106E+00
    0.10366769958070624902E+00
    0.10366769950312426651E+00
    0.10366769972324664517E+00
    0.10470672065440971010E+00
    0.10366769942136691562E+00
    0.10366769957303315075E+00
    0.82617289357299361630E+00
    0.67396582236406021860E+00
    0.78109273706284043648E+00
    0.79327546268892590309E+00
    0.82027582398447651535E+00
    0.82660945657632722838E+00
    0.82791317909360939709E+00
    0.82456148001859230767E+00
    0.80218956373833572027E+00
    0.82475832000124882359E+00
    0.82590851720395652702E+00
    0.10381206290181337060E+00
    0.82836824653541041297E+00
    0.12923441191552201279E+00
    0.81924779166722594415E+00
    0.10366769964623812061E+00
    0.82751586656699660516E+00
    0.73620575812424637885E+00
    0.12953639884232645563E+00
    0.79707258018267912458E+00
    0.79149914910813012892E+00
    0.27120502626594900075E+00
    0.17027618339102651435E+00
    0.82825097162208527468E+00
    0.82772553842281071379E+00
    0.81982371674397547245E+00
    0.79808381509699644063E+00
    0.12605857034847350873E+00
    0.12738832662848736943E+00
    0.80566537204248600545E+00
    0.12888075518711061829E+00
    0.77577531843399216704E+00
    0.11892861472169637127E+00
    0.79316742735423095834E+00
    0.13760812059339225244E+00
    0.78181330294556916627E+00
    0.82805584103000517970E+00
    0.82390714609204507290E+00
    0.76083435745538152695E+00
    0.82272297561533447308E+00
    0.79973716129265659536E+00
    0.82814921216660974945E+00
    0.76846196419323697935E+00
    0.77083976435642009850E+00
    0.13044992395387633444E+00
    0.12615005204903961822E+00
    0.78973998019136126825E+00
    0.75962703751119398099E+00
    0.12165006239411629840E+00
    0.82682642901667058322E+00
    0.16949930853131611741E+00
    0.77984251040835939062E+00
    0.79907890447194229733E+00
    0.77225249737367751557E+00
    0.12032332211547556999E+00
    0.79666390233471628957E+00
    0.12350859788933975236E+00
    0.12366098600529562557E+00
    0.12477064598875671486E+00
    0.12352715021976007348E+00
    0.80803249589449643864E+00
    0.12670141590988925895E+00
    0.81287352456561856595E+00
    0.80491735872137404328E+00
    0.12456049770574283142E+00
    0.11388402672365700863E+00
    0.80488587772058217684E+00
    0.78502873751442336925E+00
    0.79723909400679293658E+00
    0.78864993104087999232E+00
    0.81957524445724794226E+00
    0.78264454751340983840E+00
    0.10384720959102930471E+00
    0.77478241374846235079E+00
    0.26534914766901862571E+00
    0.74457851603485003533E+00
    0.12635326108461822359E+00
    0.12102340863728358600E+00
    0.74931188406443816064E+00
    0.10722695811378264719E+00
    0.77333546845808309733E+00
    0.10526132277924950265E+00
    0.10368188183193886853E+00
    0.10517638430186165843E+00
    0.78562345169451930360E+00
    0.79124024560595740407E+00
    0.77075462631411084669E+00
    0.12741888547618285266E+00
    0.13628874326069473355E+00
    0.23690748478120859932E+00
    0.79168403452112001695E+00
    0.82808437305798543449E+00
    0.82530080628057944647E+00
    0.25862575135274773475E+00
    0.82668515356859384458E+00
    0.82503433044586194089E+00
    0.77635813839432732397E+00
    0.23914751163024483560E+00
    0.20999420074551530813E+00
    0.77532128018543322590E+00
    0.78749652187356911082E+00
    0.13706447727354439947E+00
    0.79628054613021292951E+00
    0.78911979449349389792E+00
    0.15057664198846809622E+00
    0.10587459822826761346E+00
    0.82903291189689209961E+00
    0.82827611431880987514E+00
    0.78294091127732778901E+00
    0.79934467780887641375E+00
    0.18881846182355729868E+00
    0.28822613855773387970E+00
    0.80344312685526297901E+00
    0.11493621959831251678E+00
    0.79370830961246474633E+00
    0.13283287342227320660E+00
    0.11708508082895462132E+00
    0.82662412625856040993E+00
    0.80448631396017289408E+00
    0.80996593182575471470E+00
    0.78122974897735841804E+00
    0.53848190688609942622E+00
    0.11627943972216073232E+00
    0.76172375256158808554E+00
    0.11755912258341980059E+00
    0.77839763451399901495E+00
    0.80452294884088559890E+00
    0.80144654861343767038E+00
    0.11411460943158645287E+00
    0.80988402745842436037E+00
    0.11521966058486098061E+00
    0.10439147583405701536E+00
    0.77510380832330838530E+00
    0.72249346441817829945E+00
    0.10414830546128356348E+00
    0.77484155137984034312E+00
    0.12703446109955646159E+00
    0.12428311231078040255E+00
    0.77943889848756453542E+00
    0.12188435866521386830E+00
    0.12074294657061794556E+00
    0.10420053295128263449E+00
    0.81090146187362110997E+00
    0.81405368197757088655E+00
    0.10582720906192717714E+00
    0.82837445621536565099E+00
    0.72614718760473229153E+00
    0.19749462540191475846E+00
    0.82898480489606196642E+00
    0.73719938156660036466E+00
    0.12965139804060307749E+00
    0.79172413523351858888E+00
    0.73725810716524009525E+00
    0.82757417403001531930E+00
    0.12203285500601418478E+00
    0.18531613058508153435E+00
    0.10399496352848210112E+00
    0.78924843442456427134E+00
    0.82568186940639509697E+00
    0.12371190628821999991E+00
    0.10457835388820065081E+00
    0.82705064321446863929E+00
    0.10385732284612768372E+00
    0.80642255019034658758E+00
    0.10366769918939348905E+00
    0.10367520960334046520E+00
    0.12162861937330515794E+00
    0.12578576915015168836E+00
    0.12637372370633834229E+00
    0.12383602307567413703E+00
    0.10398885585290620903E+00
    0.12364404582337826244E+00
    0.76120584052895834404E+00
    0.12644521336276076662E+00
    0.11829186835416623247E+00
    0.10367036659666657716E+00
    0.10366770943403466609E+00
    0.10366772738142734922E+00
    0.78642198264523843765E+00
    0.75035385340272831023E+00
    0.13020697792156499251E+00
    0.13274590649936049425E+00
    0.79500996826331449263E+00
    0.82827346055510864264E+00
    0.10379989550774186557E+00
    0.10366769928680191759E+00
    0.10366772848413012553E+00
    0.12712397402417863201E+00
    0.10609442041524598521E+00
    0.12008299140632784641E+00
    0.12277693406645878715E+00
    0.76132238499316962077E+00
    0.10418351138345015305E+00
    0.12424444412382878999E+00
    0.10398825689526967897E+00
    0.12778254832939001107E+00
    0.23918135402010962109E+00
    0.29093671427139089491E+00
    0.77325767529708744341E+00
    0.78042438980524175829E+00
    0.82750651389222396048E+00
    0.75545016683909083088E+00
    0.11121247584917724749E+00
    0.78154511587817188101E+00
    0.65346737297029022784E+00
    0.74741885661844909006E+00
    0.71992726306201881847E+00
    0.74319055488446983393E+00
    0.12915333240074319821E+00
    0.75158272886215626851E+00
    0.10366881151656261173E+00
    0.12213708463784066216E+00
    0.12899151937550171199E+00
    0.71537040313549593584E+00
    0.10441997729846275167E+00
    0.82696627417170687213E+00
    0.79039544062936883950E+00
    0.79899986544457735071E+00
    0.79138398050654135130E+00
    0.66145558477723076507E+00
    0.78970268816622934960E+00
    0.23749378354011169145E+00
    0.77748137022069818691E+00
    0.81888582171431589796E+00
    0.77423685264068287104E+00
    0.78940169339924126657E+00
    0.69299791487681750013E+00
    0.78327150222901920085E+00
    0.76903493129915045934E+00
    0.10366804741319979311E+00
    0.78049042402521795481E+00
    0.76456341270283101341E+00
    0.81251161841004126973E+00
    0.31428979730437139883E+00
    0.75913071547052080046E+00
    0.82871905552691804697E+00
    0.14009126024380663678E+00
    0.81057481030434463953E+00
    0.70082949753814260951E+00
    0.64915420023538239480E+00
    0.72601864589536313499E+00
    0.14279043471504515583E+00
    0.69294265991982018082E+00
    0.67207399368581954846E+00
    0.11499797658414837032E+00
    0.12118019363021946544E+00
    0.10435471927623320154E+00
    0.10419085635007548085E+00
    0.78079436440938254638E+00
    0.82410275479427064216E+00
    0.82655516441134035954E+00
    0.80393176550219269672E+00
    0.34895897407558706949E+00
    0.58857356675451633077E+00
    0.19113809383128263497E+00
    0.11964642039377075544E+00
    0.82909315737796984713E+00
    0.82886858743669411531E+00
    0.81585643292843568197E+00
    0.82583391107362658090E+00
    0.82815928493916268760E+00
    0.80445926006518730933E+00
    0.12782655948634424892E+00
    0.82702286587013951191E+00
    0.79443357501550415645E+00
    0.19586231729522718403E+00
    0.65274705298232515993E+00
    0.12594589522376545276E+00
    0.80863005009019628400E+00
    0.78060643625915071553E+00
    0.12474053976743203209E+00
    0.11860463173741757348E+00
    0.70948379461263777479E+00
    0.10414913445976761719E+00
    0.78800772279853115165E+00
    0.82630847995526113259E+00
    0.81434325518432681967E+00
    0.11373315272763444284E+00
    0.78419326246933851454E+00
    0.11883932246803140254E+00
    0.22151597508678141923E+00
    0.11363211433502563852E+00
    0.82778555946055032422E+00
    0.17469799698104013230E+00
    0.82899553958956495592E+00
    0.82931952979596335052E+00
    0.78644386957810052952E+00
    0.80796986643179924403E+00
    0.82747138054658397888E+00
    0.73404859374977349251E+00
    0.82934132385244452301E+00
    0.81517963672929205643E+00
    0.81501158958332953208E+00
    0.82859273714848857839E+00
    0.82400502284129395481E+00
    0.10572007366779684334E+00
    0.17176698025312225893E+00
    0.42059448294626605724E+00
    0.71969943524100676857E+00
    0.79808741092791379845E+00
    0.12427725169416312112E+00
    0.67290225068192155433E+00
    0.76188806722713164898E+00
    0.74460475518611668466E+00
    0.81829626661148036071E+00
    0.75190512576063106565E+00
    0.82706868567336644382E+00
    0.73390805468745101692E+00
    0.82879536104341711145E+00
    0.12253220689968236101E+00
    0.12319378789759527493E+00
    0.80295436205332004764E+00
    0.82903268291091847253E+00
    0.80704494662012937756E+00
    0.13859698240367615552E+00
    0.81634391518609683569E+00
    0.74313911562905021757E+00
    0.17786453713614056027E+00
    0.12669575461977847231E+00
    0.11575993631118434990E+00
    0.82894605877131666283E+00
    0.80691930430199043656E+00
    0.11625350210801090045E+00
    0.11717713162887735678E+00
    0.72293089026991097512E+00
    0.81029735663827329173E+00
    0.80637708419541442861E+00
    0.24745618111348754997E+00
    0.22226803649593551704E+00
    0.78858815690805650345E+00
    0.11774358013217808838E+00
    0.12729949177805074956E+00
    0.11124393693071446543E+00
    0.12183901298725233198E+00
    0.10625870100930806528E+00
    0.75838218272471225045E+00
    0.11959144597350482297E+00
    0.14444452246287220465E+00
    0.78978026759848718452E+00
    0.11878374516743003819E+00
    0.82521038215795905479E+00
    0.82577598498407578376E+00
    0.13176341534276506118E+00
    0.80127321162106102115E+00
    0.11876841873493990120E+00
    0.69298736386983728064E+00
    0.79769241341270513690E+00
    0.82885991287572757802E+00
    0.81411684137389384031E+00
    0.82933584252729741770E+00
    0.78923662307274600192E+00
    0.15165235668926513313E+00
    0.82831751715951895676E+00
    0.79188424765420084572E+00
    0.82905586516388329876E+00
    0.12351685153153085794E+00
    0.10899468063619172087E+00
    0.12413879256985010935E+00
    0.10782993617303032741E+00
    0.11963188671435892596E+00
    0.26766864816950147743E+00
    0.26676393211220550405E+00
    0.35173369310232788232E+00
    0.10550207259629562628E+00
    0.14403451979417333795E+00
    0.14128970835631754488E+00
    0.27865374508217621852E+00
    0.19081872563486013128E+00
    0.94077096312913421894E+00
    0.77509585144223214215E+00
    0.75368781385786720595E+00
    0.12891077304291781447E+00
    0.76460244473811944665E+00
    0.35087672891880428150E+00
    0.28088068825758549796E+00
    0.10427344143259004161E+00
    0.72106406996488137118E+00
    0.83319680130071049895E+00