# vtk DataFile Version 3.0
LAPLACIEN  2D
ASCII
DATASET UNSTRUCTURED_GRID
 POINTS        1083  float
  0.25752000000000003       0.83521000000000001        0.0000000000000000     
  0.26692436000000003       0.82361669999999998        0.0000000000000000     
  0.12755760999999999       0.37286407999999999        0.0000000000000000     
  0.16947000000000001       0.36312000000000000        0.0000000000000000     
  0.20556749999999999       0.30943999999999999        0.0000000000000000     
  0.19808000000000001       0.30240000000000000        0.0000000000000000     
  0.17829000000000000       0.29613000000000000        0.0000000000000000     
  0.16072427000000000       0.27611573000000000        0.0000000000000000     
  0.20518000000000000       0.25756000000000001        0.0000000000000000     
  0.14513182999999999       0.15495659000000001        0.0000000000000000     
  0.18475000000000000       0.25733000000000000        0.0000000000000000     
  0.15320000000000000       0.28981000000000001        0.0000000000000000     
   8.4010000000000001E-002  0.28726000000000002        0.0000000000000000     
  0.12066000000000000       0.31644000000000000        0.0000000000000000     
  0.15419146000000000       0.34997146000000001        0.0000000000000000     
   9.1609999999999997E-002  0.41126000000000001        0.0000000000000000     
   8.2839999999999997E-002  0.24906000000000000        0.0000000000000000     
  0.10719500000000000       0.24906000000000000        0.0000000000000000     
  0.10394500000000000       0.24026000000000000        0.0000000000000000     
  0.10306999999999999       0.16439999999999999        0.0000000000000000     
  0.20605000000000001        7.9089999999999994E-002   0.0000000000000000     
  0.42243181000000002       0.83768843000000004        0.0000000000000000     
  0.40538000000000002       0.78705000000000003        0.0000000000000000     
  0.42062500000000003       0.70743999999999996        0.0000000000000000     
  0.39167000000000002       0.62682000000000004        0.0000000000000000     
  0.38775999999999999       0.57162500000000005        0.0000000000000000     
  0.39058282000000000       0.54871530000000002        0.0000000000000000     
  0.39464117999999998       0.46212064000000003        0.0000000000000000     
  0.39241130000000002       0.45290363000000000        0.0000000000000000     
  0.38384000000000001       0.55516500000000002        0.0000000000000000     
  0.38069999999999998       0.59557000000000004        0.0000000000000000     
  0.36735092000000003       0.72975095999999995        0.0000000000000000     
  0.37138180999999998       0.84873708999999997        0.0000000000000000     
  0.31856716000000002       0.83411802999999995        0.0000000000000000     
  0.65566999999999998       0.71865999999999997        0.0000000000000000     
  0.62348499999999996       0.71865999999999997        0.0000000000000000     
  0.63253999999999999       0.72650000000000003        0.0000000000000000     
  0.63397590999999998       0.79238797000000005        0.0000000000000000     
  0.61133999999999999       0.77437999999999996        0.0000000000000000     
  0.58667000000000002       0.75475999999999999        0.0000000000000000     
  0.51746738999999997       0.83310978000000002        0.0000000000000000     
  0.51022000000000001       0.76192000000000004        0.0000000000000000     
  0.49914890000000001       0.74624727000000002        0.0000000000000000     
  0.50311967000000002       0.80879526000000002        0.0000000000000000     
  0.50158999999999998       0.83067000000000002        0.0000000000000000     
  0.46398766000000002       0.86013877000000005        0.0000000000000000     
  0.41615999999999997       0.37445000000000001        0.0000000000000000     
  0.43026551000000002       0.31678289999999998        0.0000000000000000     
  0.39694000000000002       0.24930500000000000        0.0000000000000000     
  0.41994211999999997       0.11642168999999999        0.0000000000000000     
  0.43478000000000000       0.10487000000000000        0.0000000000000000     
  0.57060999999999995       0.13406000000000001        0.0000000000000000     
  0.69662999999999997       0.19536999999999999        0.0000000000000000     
  0.71886000000000005       0.24690999999999999        0.0000000000000000     
  0.74097999999999997       0.33731000000000000        0.0000000000000000     
  0.72538453999999997       0.37890159000000001        0.0000000000000000     
  0.73320112000000004       0.40760169000000002        0.0000000000000000     
  0.70620000000000005       0.41999999999999998        0.0000000000000000     
  0.74504999999999999       0.48705999999999999        0.0000000000000000     
  0.68996999999999997       0.48530000000000001        0.0000000000000000     
  0.66213999999999995       0.47589999999999999        0.0000000000000000     
  0.63373000000000002       0.47414000000000001        0.0000000000000000     
  0.68861000000000006       0.55347000000000002        0.0000000000000000     
  0.62687669000000001       0.62714972999999996        0.0000000000000000     
  0.51632500000000003       0.26038000000000000        0.0000000000000000     
  0.66345008000000005       0.20335998999999999        0.0000000000000000     
  0.68430000000000002       0.34078999999999998        0.0000000000000000     
  0.59737622999999995       0.42491739000000001        0.0000000000000000     
  0.55410000000000004       0.41776999999999997        0.0000000000000000     
  0.52314000000000005       0.40723999999999999        0.0000000000000000     
  0.46111999999999997       0.32850000000000001        0.0000000000000000     
  0.67330999999999996       0.19785000000000000        0.0000000000000000     
  0.69296999999999997       0.22594000000000000        0.0000000000000000     
  0.40191943000000002       0.86367486999999998        0.0000000000000000     
  0.12271248000000000       0.14762657000000001        0.0000000000000000     
  0.14852475000000001       0.12337326999999999        0.0000000000000000     
  0.74936000000000003       0.44945000000000002        0.0000000000000000     
  0.61883999999999995       0.82247000000000003        0.0000000000000000     
  0.26941311000000001       0.82690965999999999        0.0000000000000000     
  0.14224880000000001       0.37582204000000002        0.0000000000000000     
  0.16781681000000001       0.35746910999999998        0.0000000000000000     
  0.38384000000000001       0.56583499999999998        0.0000000000000000     
  0.17475499999999999       0.26156499999999999        0.0000000000000000     
  0.16588214000000001       0.27095785999999999        0.0000000000000000     
  0.19754658000000000       0.25190794000000000        0.0000000000000000     
  0.18240999999999999       0.26306000000000002        0.0000000000000000     
  0.38775999999999999       0.58301250000000004        0.0000000000000000     
   9.2598787000000002E-002  0.28369930999999998        0.0000000000000000     
  0.12988000000000000       0.31154999999999999        0.0000000000000000     
  0.15971573000000000       0.35549573000000001        0.0000000000000000     
  0.43006250000000001       0.70743999999999996        0.0000000000000000     
  0.40538000000000002       0.77361250000000004        0.0000000000000000     
  0.42100500000000002       0.81830000000000003        0.0000000000000000     
  0.41854986000000000       0.69665306000000005        0.0000000000000000     
  0.38971499999999998       0.61060999999999999        0.0000000000000000     
  0.38773564999999999       0.45901181000000002        0.0000000000000000     
  0.39590059000000000       0.45441031999999998        0.0000000000000000     
  0.38384000000000001       0.54735250000000002        0.0000000000000000     
  0.36502704000000002       0.72473217000000001        0.0000000000000000     
  0.32337357999999999       0.82795901000000005        0.0000000000000000     
  0.70706773000000001       0.36044921000000002        0.0000000000000000     
  0.74097999999999997       0.35293500000000000        0.0000000000000000     
  0.74097999999999997       0.31773499999999999        0.0000000000000000     
  0.71235000000000004       0.23181499999999999        0.0000000000000000     
  0.58099500000000004       0.12427000000000001        0.0000000000000000     
  0.50926802999999998       0.81618526000000002        0.0000000000000000     
  0.39694000000000002       0.25951249999999998        0.0000000000000000     
  0.43692275000000003       0.32087145000000000        0.0000000000000000     
  0.41615999999999997       0.32374500000000000        0.0000000000000000     
  0.43379000000000001       0.30536999999999997        0.0000000000000000     
  0.56120943999999995       0.14292195999999999        0.0000000000000000     
  0.56101000000000001       0.12778999999999999        0.0000000000000000     
  0.72713519000000004       0.36131693999999998        0.0000000000000000     
  0.74289499999999997       0.49852000000000002        0.0000000000000000     
  0.70664000000000005       0.43221999999999999        0.0000000000000000     
  0.53013999999999994       0.41189999999999999        0.0000000000000000     
  0.54561999999999999       0.41584500000000002        0.0000000000000000     
  0.71071649000000003       0.55600200000000000        0.0000000000000000     
  0.67979000000000001       0.56306999999999996        0.0000000000000000     
  0.62555094000000000       0.62995129000000005        0.0000000000000000     
  0.66964504000000002       0.20812000000000000        0.0000000000000000     
  0.58421811000000001       0.42326870000000000        0.0000000000000000     
  0.59798264000000001       0.43157266000000000        0.0000000000000000     
  0.54939000000000004       0.42473000000000000        0.0000000000000000     
  0.52732000000000001       0.40139999999999998        0.0000000000000000     
[...]
 CELL_DATA        1963
 SCALARS Endothelial_cells float
 LOOKUP_TABLE default
    0.17061902293899236516E+00
    0.81010958304160662902E+00
    0.81231415782137750270E+00
    0.79425949898368020108E+00
    0.75186165078751143742E+00
    0.70872008639317241041E+00
    0.81196505177804678688E+00
    0.10188115658886830184E+00
    0.10260537514274216397E+00
    0.76360939953120865464E+00
    0.11538852482943805222E+00
    0.80998795574392257191E+00
    0.70987025603209408242E+00
    0.77712344536643329640E+00
    0.78998326044462996443E+00
    0.81265234823619214577E+00
    0.79874638941496722833E+00
    0.11696366550145015362E+00
    0.12412185608232802203E+00
    0.81245325594691053528E+00
    0.11973615045836685788E+00
    0.12139176296373110908E+00
    0.23116568985062799224E+00
    0.10308811218618742223E+00
    0.11521828897293714955E+00
    0.74956370785687764791E+00
    0.12345572544513121194E+00
    0.74717151243514046133E+00
    0.79523338036120183592E+00
    0.77014993167414758091E+00
    0.78585427082246628316E+00
    0.10173490315389949190E+00
    0.10223401581859546672E+00
    0.77205664287173625393E+00
    0.11569840478383462690E+00
    0.12958193275674392830E+00
    0.80997616185564924596E+00
    0.81082452113910752356E+00
    0.16285533752648526096E+00
    0.80660437401965612292E+00
    0.79377403339791086090E+00
    0.79289417414872098711E+00
    0.79134579509705593736E+00
    0.75518858666602373120E+00
    0.16613945749615674496E+00
    0.78050162634389030902E+00
    0.76988983692992718488E+00
    0.79946385550419107879E+00
    0.11117153576737033582E+00
    0.10184511744963319069E+00
    0.10183110095251292349E+00
    0.11280846435245008019E+00
    0.10954860178345521282E+00
    0.76540397810522320388E+00
    0.11219036335662949111E+00
    0.79980751973971953017E+00
    0.77490233494036331319E+00
    0.11072834509045900719E+00
    0.76036489280782260103E+00
    0.77868945802966949010E+00
    0.78811190128790375997E+00
    0.10187602096298833954E+00
    0.79019308441243263363E+00
    0.11468698436635028914E+00
    0.12139677463302953053E+00
    0.11123698329695570763E+00
    0.75675870579191550913E+00
    0.75899919668726045785E+00
    0.81265708571792338866E+00
    0.79923506767281338181E+00
    0.78972717763643518474E+00
    0.79459036430249552208E+00
    0.10918993340814681092E+00
    0.10193758943845869502E+00
    0.10173767594727667340E+00
    0.80611111250808631379E+00
    0.10678835946749207220E+00
    0.10665532130465088523E+00
    0.79001449814189061982E+00
    0.10778161388126103470E+00
    0.77415768101202464546E+00
    0.80687880794762645298E+00
    0.10829181323462908071E+00
    0.10176760269456416874E+00
    0.80349360422762761136E+00
    0.14629906815606347203E+00
    0.75238792895377604175E+00
    0.81289839478038672382E+00
    0.78244759798360652425E+00
    0.81233033113361174937E+00
    0.11287111046155312577E+00
    0.11528211528723840418E+00
    0.10855143968748058592E+00
    0.78674622139928285236E+00
    0.11231782235315367069E+00
    0.11491463192576918673E+00
    0.78463831623022817219E+00
    0.75515002269665365553E+00
    0.11494155936234061455E+00
    0.10911696515244086181E+00
    0.10960992017871715176E+00
    0.11503785371001608306E+00
    0.77539926432513883725E+00
    0.78727737584076162847E+00
    0.11362115926214515216E+00
    0.10950231624849092460E+00
    0.77808323014729796618E+00
    0.11055502339129728850E+00
    0.11282413169321527102E+00
    0.11492528226014900317E+00
    0.80823385538332126465E+00
    0.79024278482877197138E+00
    0.13900896855267214081E+00
    0.11921201866423146443E+00
    0.77683053065988916241E+00
    0.77447202185543884134E+00
    0.76793312674936275997E+00
    0.79206855610637894038E+00
    0.78437424831249913382E+00
    0.78083773386893473578E+00
    0.78220360686356726898E+00
    0.81028662275906693235E+00
    0.14659211793435930615E+00
    0.79006285731673653316E+00
    0.77945798363873530779E+00
    0.12401317692444432939E+00
    0.10193534290461807312E+00
    0.11745024116127084080E+00
    0.10832122492246507028E+00
    0.11445420328725314230E+00
    0.75813522151144485672E+00
    0.77959694445271054963E+00
    0.13176447335410690354E+00
    0.11863194373080017396E+00
    0.68188092981688164240E+00
    0.81115230951061978448E+00
    0.11349494442934103533E+00
    0.79011938404641179901E+00
    0.77993960554051777745E+00
    0.77132538646265325077E+00
    0.77139516230009275155E+00
    0.81198659373878911971E+00
    0.81012694844832666696E+00
    0.81019867056294081475E+00
    0.11089505529934720607E+00
    0.11335708459720615637E+00
    0.81291552486202522942E+00
    0.72740088130600111249E+00
    0.10978976984411904783E+00
    0.81287505755342115421E+00
    0.80527951971882305582E+00
    0.11078441591782574316E+00
    0.80081464664573298595E+00
    0.78531593401566901491E+00
    0.78847654919832244058E+00
    0.11199215319714544981E+00
    0.10950334758391062906E+00
    0.11539052730337021058E+00
    0.80696376995623575468E+00
    0.12031191573889639390E+00
    0.80757728159776343002E+00
    0.11047097761708726815E+00
    0.80492464535499874678E+00
    0.11417998565204484640E+00
    0.10579477540901478794E+00
    0.80774489580008079770E+00
    0.10618034608872556346E+00
    0.10165974672065732076E+00
    0.10936491282689408955E+00
    0.78081338693666269002E+00
    0.11539610900049029896E+00
    0.81284469712709683797E+00
    0.81291922743697742071E+00
    0.81242231175813761634E+00
    0.81287848281480246104E+00
    0.11787654057285172626E+00
    0.11017374539100847908E+00
    0.81291917884766129454E+00
    0.81287785872687201572E+00
    0.80798168901693612209E+00
    0.80696351193421711478E+00
    0.81189887510707159368E+00
    0.81272697829234463729E+00
    0.81282903069176326571E+00
    0.81290246299960133847E+00
    0.13177331083899507247E+00
    0.81266464853889863740E+00
    0.80484174959441601160E+00
    0.81279658387538133990E+00
    0.81281184867697364727E+00
    0.11310531507629903447E+00
    0.10979190312180170386E+00
    0.12386396975892309535E+00
    0.76995496592795775737E+00
    0.79527154047504888812E+00
    0.10737482295053431269E+00
    0.77004501770897315627E+00
    0.80117415117824963833E+00
    0.80888106399132608804E+00
    0.70206667540832579100E+00
    0.81188554509548538363E+00
    0.10161491441097846022E+00
    0.77188027351998600434E+00
    0.17934279884069734279E+00
    0.81051345878291547464E+00
    0.10176599141185818653E+00
    0.11088462884243795170E+00
    0.81291909475424006803E+00
    0.10181145936473437463E+00
    0.81110457942889202521E+00
    0.13305408408860519565E+00
    0.11783251533292797564E+00
    0.11904144471327217369E+00
    0.24004811994793900931E+00
    0.11071135282389410470E+00
    0.79086329977014258041E+00
    0.79088734403687521723E+00
    0.79202213436588653206E+00
    0.63409269384403676995E+00
    0.27705525742760489516E+00
    0.75668312787552893806E+00
    0.10373478576228509218E+00
    0.78287005809312881777E+00
    0.72958425836041318480E+00
    0.11270038009406642410E+00
    0.10929175149336047002E+00
    0.12178742570721438898E+00
    0.79054117453475658550E+00
    0.10816637981027492355E+00
    0.10177882741027276248E+00
    0.81071629268726963513E+00
    0.12442407044632314284E+00
    0.78164801695145857963E+00
    0.75663507947465846737E+00
    0.10188605585985031909E+00
    0.10775419514894732376E+00
    0.10161524656239082076E+00
    0.77519194412456338128E+00
    0.19199875874293070854E+00
    0.80221938731124720068E+00
    0.74686248351071116147E+00
    0.75762546242269190877E+00
    0.76338518655513243338E+00
    0.75900792564095709292E+00
    0.10812756686588856359E+00
    0.79996244941313621180E+00
    0.10867632891026053621E+00
    0.79409041693486015490E+00
    0.78224503336167139356E+00
    0.78105952658111021947E+00
    0.10166704540774032517E+00
    0.10647399394864540123E+00
    0.10161513649639231094E+00
    0.81270227713477638520E+00
    0.81086264507993432993E+00
    0.10167267957206335693E+00
    0.81234284909961085308E+00
    0.10173545403331728243E+00
    0.10161491312293073619E+00
    0.10161491312639144013E+00
    0.10161491311518143499E+00
    0.10183752868382969781E+00
    0.10161491313344478415E+00
    0.10161491312394989317E+00
    0.81225728437808364379E+00
    0.73086738345656043769E+00
    0.78849651216964933287E+00
    0.80339006843978866268E+00
    0.81090105434854253819E+00
    0.81234959387130178943E+00
    0.81273259139584019817E+00
    0.81189802846292014049E+00
    0.79951071211012725293E+00
    0.81195980300020043074E+00
    0.81218892932626707282E+00
    0.10164392792119121556E+00
    0.81281535566615059629E+00
    0.11330098814415226482E+00
    0.80864609911865292791E+00
    0.10161491311924872316E+00
    0.81262984483486955245E+00
    0.76424372850814659142E+00
    0.11375583609715617106E+00
    0.79855938472299237141E+00
    0.79378420028985618995E+00
    0.18829380971310238913E+00
    0.14718259454418569643E+00
    0.81269620891242111416E+00
    0.81257694558254034423E+00
    0.81063996471693955392E+00
    0.79902135606991275818E+00
    0.11161580934485296202E+00
    0.11239418511750207119E+00
    0.80233319489647492162E+00
    0.11255807912297922935E+00
    0.78768143013215707882E+00
    0.10826279058940850575E+00
    0.79655971892010168922E+00
    0.11564207150805003166E+00
    0.79039464038618834074E+00
    0.81265819345244472149E+00
    0.81175775076439316003E+00
    0.78017895748511567611E+00
    0.81149453802487292453E+00
    0.79890408954701730426E+00
    0.81255553477820174901E+00
    0.78386492146749264798E+00
    0.78616439580760588690E+00
    0.11367567931363607714E+00
    0.11179432030580245538E+00
    0.79464437688572142626E+00
    0.77953363221759286450E+00
    0.10996287326411473273E+00
    0.81238697625318601059E+00
    0.13203842605121327014E+00
    0.78840933662236711843E+00
    0.79949126398773673330E+00
    0.77954895958719261362E+00
    0.10894652574010578461E+00
    0.79835855967185154203E+00
    0.11050644609284543396E+00
    0.11071402555260580203E+00
    0.11107806081655403896E+00
    0.11048019287031009272E+00
    0.80341926523644324742E+00
    0.11191726004640070724E+00
    0.80604237920557364472E+00
    0.80205019220946183189E+00
    0.11107762822712091699E+00
    0.10622427761854971728E+00
    0.80204600410596449400E+00
    0.79256943597225315568E+00
    0.79909342739749356088E+00
    0.79488884117311142674E+00
    0.81076829247862625127E+00
    0.79007250567247178097E+00
    0.10165078452974794787E+00
    0.78600291930172860866E+00
    0.18256893898635423445E+00
    0.77248667355820455072E+00
    0.11203662560265234549E+00
    0.10956652870137352507E+00
    0.77423088440184872905E+00
    0.10238671558992329391E+00
    0.78762079206704915801E+00
    0.10192709933043531123E+00
    0.10161623752192110171E+00
    0.10193824654693878218E+00
    0.79337468140381117720E+00
    0.79599275604967478781E+00
    0.78699800642302497611E+00
    0.11242274866613728712E+00
    0.11612959886073249971E+00
    0.16891182862585360502E+00
    0.79523307817251154272E+00
    0.81265296197015479684E+00
    0.81204215331234741448E+00
    0.18008643509233135394E+00
    0.81235438195665998773E+00
    0.81196056507010871961E+00
    0.78856514991935133807E+00
    0.17125180603987547046E+00
    0.15277820956149831821E+00
    0.78739741389272599470E+00
    0.79430546960618320096E+00
    0.11549016840403311668E+00
    0.79741096018389023836E+00
    0.79357891806584202055E+00
    0.12070274881528074429E+00
    0.10206789710370244018E+00
    0.81285648708655944272E+00
    0.81268971779670717837E+00
    0.79101634850821256340E+00
    0.79864688377808945585E+00
    0.14172878938249680592E+00
    0.19669157533293030182E+00
    0.80132485228273908628E+00
    0.10665862557878287575E+00
    0.79653126521555706052E+00
    0.11423443368127876585E+00
    0.10753360886234469840E+00
    0.81234666960685031345E+00
    0.80186383674537620170E+00
    0.80402744878314214017E+00
    0.78829782983507767913E+00
    0.62930562299152992267E+00
    0.10718750419641250027E+00
    0.78114520097866491088E+00
    0.10782789168823105064E+00
    0.78852804180510704946E+00
    0.80189700701903010582E+00
    0.80086811435584814856E+00
    0.10620106918685512376E+00
    0.80441451704450950277E+00
    0.10690525612544797551E+00
    0.10176394792392928768E+00
    0.79018175313698502116E+00
    0.76192837384018607949E+00
    0.10171207217810047940E+00
    0.78796991358686141460E+00
    0.11228001431306354474E+00
    0.11103032877548807411E+00
    0.79068025106608841313E+00
    0.10992891009605378072E+00
    0.10935313723436838884E+00
    0.10172189044210075415E+00
    0.80433578705569153122E+00
    0.80608178568829036426E+00
    0.10206738105419292661E+00
    0.81272339818156991154E+00
    0.76337114344495293761E+00
    0.14665512472184868975E+00
    0.81284999731805851475E+00
    0.76853764747841513127E+00
    0.11349758567977963342E+00
    0.79569444715076875774E+00
    0.77107238973029745832E+00
    0.81254769085110523097E+00
    0.11020641591821764282E+00
    0.13833195942390624777E+00
    0.10168264253965422772E+00
    0.79471782703048554630E+00
    0.81214813885051173603E+00
    0.11073195349971751145E+00
    0.10180148771557688547E+00
    0.81244541419640170510E+00
    0.10165510024302550074E+00
    0.80282717080154442080E+00
    0.10161491314527251739E+00
    0.10161561148275811972E+00
    0.11006694717630684244E+00
    0.11187303325085427852E+00
    0.11273317713141790819E+00
    0.11175935302102447955E+00
    0.10167946363043096902E+00
    0.11064539317862998047E+00
    0.78169406824762388553E+00
    0.11166625688743066214E+00
    0.10829745314920491417E+00
    0.10161515380765895333E+00
    0.10161491353845929220E+00
    0.10161491445047099447E+00
    0.79406522716892224967E+00
    0.77625145893645719486E+00
    0.11352619804051747310E+00
    0.11497745617844377930E+00
    0.79825681503338330458E+00
    0.81270311043130161188E+00
    0.10164191520255648482E+00
    0.10161491315413619108E+00
    0.10161491446651228776E+00
    0.11232819261462767546E+00
    0.10213081230781405340E+00
    0.10926724154336964201E+00
    0.11164527431486451214E+00
    0.78164597971579830027E+00
    0.10172060016758946444E+00
    0.11165726864835712195E+00
    0.10169448552597165625E+00
    0.11255405757883163442E+00
    0.16783329494428222972E+00
    0.22237357414000955003E+00
    0.78769502125954826699E+00
    0.79057874676982542450E+00
    0.81253064320488732619E+00
    0.77901931418568559629E+00
    0.10354814124687056198E+00
    0.79142865769665116105E+00
    0.72161858921660027022E+00
    0.77497770164266199799E+00
    0.76256685083766528876E+00
    0.77350556629819666732E+00
    0.11403066416321029630E+00
    0.77802511729225143355E+00
    0.10161501666202307770E+00
    0.11012274578260745905E+00
    0.11563220228572095027E+00
    0.75686738220898763796E+00
    0.10176906087649369159E+00
    0.81243134945491035648E+00
    0.79398109280383655229E+00
    0.79911596461218614706E+00
    0.79580033344365552761E+00
    0.72977460132616445154E+00
    0.79441780388519833700E+00
    0.17124558201960937698E+00
    0.78946980761996676801E+00
    0.81056079826488547369E+00
    0.78629505524504217373E+00
    0.79526751832228603778E+00
    0.75105397195145207068E+00
    0.79178424942507807938E+00
    0.78546341572740629999E+00
    0.10161492754218544310E+00
    0.79202970718898968450E+00
    0.78122116058773127811E+00
    0.80524515628167492309E+00
    0.21856366414073055693E+00
    0.77748415359661404711E+00
    0.81279706083096059377E+00
    0.11596436844094358543E+00
    0.80449436858565581687E+00
    0.74457469897010486459E+00
    0.72758557720870142838E+00
    0.76689137477373092722E+00
    0.11745701787560286489E+00
    0.73899164019811480753E+00
    0.72851859305578425818E+00
    0.10669690543101369162E+00
    0.10942790103395758083E+00
    0.10174613142790463194E+00
    0.10171957988835822473E+00
    0.78979909979349083304E+00
    0.81174673494156202036E+00
    0.81233935188611117173E+00
    0.80145493049481120185E+00
    0.24289234212498261867E+00
    0.68541040462825530977E+00
    0.14288601114778970436E+00
    0.10854553689299248354E+00
    0.81286826948349322208E+00
    0.81282212441100698541E+00
    0.80653769109711903607E+00
    0.81221416935187074060E+00
    0.81267393133013909878E+00
    0.80127091306862774367E+00
    0.11211894060953067620E+00
    0.81242594359528652603E+00
    0.79713388982653277104E+00
    0.14320191878675425645E+00
    0.72847967635910548800E+00
    0.11262678068608990289E+00
    0.80386105583570488520E+00
    0.79117980921666919425E+00
    0.11108975516719941934E+00
    0.10892938754858129402E+00
    0.75352890844978070994E+00
    0.10171746893136378309E+00
    0.79378989881940864581E+00
    0.81228875471675554554E+00
    0.80941883504115963444E+00
    0.10603728061587418263E+00
    0.79079944690727677070E+00
    0.10857383722709675056E+00
    0.15928997070635411704E+00
    0.10609703133639315775E+00
    0.81259571831836485689E+00
    0.13466144015548117685E+00
    0.81288845103597906494E+00
    0.81291726796686558654E+00
    0.79273202344514570594E+00
    0.80292699784422683074E+00
    0.81253353050146037706E+00
    0.76362069903078355626E+00
    0.81291931474339829133E+00
    0.80633887221638522735E+00
    0.80939606260129248749E+00
    0.81276332418678998160E+00
    0.81177944404971102976E+00
    0.10203845459990092126E+00
    0.13358508925158810166E+00
    0.30272836207864861624E+00
    0.75580951661364004224E+00
    0.79944758202513721557E+00
    0.11165663524739677381E+00
    0.72935703466553092333E+00
    0.78048218801410629286E+00
    0.77371369511205001501E+00
    0.81045340856614911385E+00
    0.77777326662256929257E+00
    0.81244835887293975762E+00
    0.76892805948978582009E+00
    0.81280879449123866198E+00
    0.11013666256422044443E+00
    0.11026480971212683502E+00
    0.80086659033244500527E+00
    0.81285770492943421051E+00
    0.80275044878581180985E+00
    0.11713960577433769894E+00
    0.80695306520362874991E+00
    0.77181810011508078517E+00
    0.13598298827602142702E+00
    0.11206876795882700359E+00
    0.10699128669637300582E+00
    0.81283949975683655875E+00
    0.80276041211965687427E+00
    0.10726574685204293136E+00
    0.10754202231175635784E+00
    0.75720123307130582369E+00
    0.80429091155246035250E+00
    0.80715612587538965172E+00
    0.17162657090580779595E+00
    0.15878555571122332513E+00
    0.79466772134685659257E+00
    0.10167726584726809180E+00
    0.11223879266232497653E+00
    0.10218974856672650986E+00
    0.10933424474410056992E+00
    0.10169995584001549627E+00
    0.77904781782873178120E+00
    0.10594709779979069597E+00
    0.12016932006798566879E+00
    0.79544481882748752088E+00
    0.10173814025582543497E+00
    0.81205769225095569830E+00
    0.81219808946687033213E+00
    0.11490480359706745084E+00
    0.80066085355229077436E+00
    0.10878607123525521616E+00
    0.74642896989060869561E+00
    0.79855927624299960499E+00
    0.81282205807531848762E+00
    0.80594594647786710340E+00
    0.81291881376980046348E+00
    0.79497313555200066482E+00
    0.12339262499797168382E+00
    0.81270720062099599534E+00
    0.79541723635937622294E+00
    0.81286144930674419928E+00
    0.11029932235693797049E+00
    0.10281768737237718947E+00
    0.11086029327278115741E+00
    0.10175661450544215558E+00
    0.10164348249101951005E+00
    0.10161491543878294064E+00
    0.10161508073468246416E+00
    0.10161687054328821800E+00
    0.10161560613256807872E+00
    0.10948936825200225598E+00
    0.11813929309105959675E+00
    0.10161654745434992031E+00
    0.10178397508564755725E+00
    0.10161491323937378584E+00
    0.10161491362744053124E+00
    0.77611487512683174916E+00
    0.11295286452423644596E+00
    0.78350085382818246416E+00
    0.10161491329941546580E+00
    0.10161610961081828097E+00
    0.10170674545351000850E+00
    0.75851833408298674488E+00
    0.10161491343332466897E+00