# vtk DataFile Version 3.0
LAPLACIEN  2D
ASCII
DATASET UNSTRUCTURED_GRID
 POINTS        1083  float
  0.25752000000000003       0.83521000000000001        0.0000000000000000     
  0.26692436000000003       0.82361669999999998        0.0000000000000000     
  0.12755760999999999       0.37286407999999999        0.0000000000000000     
  0.16947000000000001       0.36312000000000000        0.0000000000000000     
  0.20556749999999999       0.30943999999999999        0.0000000000000000     
  0.19808000000000001       0.30240000000000000        0.0000000000000000     
  0.17829000000000000       0.29613000000000000        0.0000000000000000     
  0.16072427000000000       0.27611573000000000        0.0000000000000000     
  0.20518000000000000       0.25756000000000001        0.0000000000000000     
  0.14513182999999999       0.15495659000000001        0.0000000000000000     
  0.18475000000000000       0.25733000000000000        0.0000000000000000     
  0.15320000000000000       0.28981000000000001        0.0000000000000000     
   8.4010000000000001E-002  0.28726000000000002        0.0000000000000000     
  0.12066000000000000       0.31644000000000000        0.0000000000000000     
  0.15419146000000000       0.34997146000000001        0.0000000000000000     
   9.1609999999999997E-002  0.41126000000000001        0.0000000000000000     
   8.2839999999999997E-002  0.24906000000000000        0.0000000000000000     
  0.10719500000000000       0.24906000000000000        0.0000000000000000     
  0.10394500000000000       0.24026000000000000        0.0000000000000000     
  0.10306999999999999       0.16439999999999999        0.0000000000000000     
  0.20605000000000001        7.9089999999999994E-002   0.0000000000000000     
  0.42243181000000002       0.83768843000000004        0.0000000000000000     
  0.40538000000000002       0.78705000000000003        0.0000000000000000     
  0.42062500000000003       0.70743999999999996        0.0000000000000000     
  0.39167000000000002       0.62682000000000004        0.0000000000000000     
  0.38775999999999999       0.57162500000000005        0.0000000000000000     
  0.39058282000000000       0.54871530000000002        0.0000000000000000     
  0.39464117999999998       0.46212064000000003        0.0000000000000000     
  0.39241130000000002       0.45290363000000000        0.0000000000000000     
  0.38384000000000001       0.55516500000000002        0.0000000000000000     
  0.38069999999999998       0.59557000000000004        0.0000000000000000     
  0.36735092000000003       0.72975095999999995        0.0000000000000000     
  0.37138180999999998       0.84873708999999997        0.0000000000000000     
  0.31856716000000002       0.83411802999999995        0.0000000000000000     
  0.65566999999999998       0.71865999999999997        0.0000000000000000     
  0.62348499999999996       0.71865999999999997        0.0000000000000000     
  0.63253999999999999       0.72650000000000003        0.0000000000000000     
  0.63397590999999998       0.79238797000000005        0.0000000000000000     
  0.61133999999999999       0.77437999999999996        0.0000000000000000     
  0.58667000000000002       0.75475999999999999        0.0000000000000000     
  0.51746738999999997       0.83310978000000002        0.0000000000000000     
  0.51022000000000001       0.76192000000000004        0.0000000000000000     
  0.49914890000000001       0.74624727000000002        0.0000000000000000     
  0.50311967000000002       0.80879526000000002        0.0000000000000000     
  0.50158999999999998       0.83067000000000002        0.0000000000000000     
  0.46398766000000002       0.86013877000000005        0.0000000000000000     
  0.41615999999999997       0.37445000000000001        0.0000000000000000     
  0.43026551000000002       0.31678289999999998        0.0000000000000000     
  0.39694000000000002       0.24930500000000000        0.0000000000000000     
  0.41994211999999997       0.11642168999999999        0.0000000000000000     
  0.43478000000000000       0.10487000000000000        0.0000000000000000     
  0.57060999999999995       0.13406000000000001        0.0000000000000000     
  0.69662999999999997       0.19536999999999999        0.0000000000000000     
  0.71886000000000005       0.24690999999999999        0.0000000000000000     
  0.74097999999999997       0.33731000000000000        0.0000000000000000     
  0.72538453999999997       0.37890159000000001        0.0000000000000000     
  0.73320112000000004       0.40760169000000002        0.0000000000000000     
  0.70620000000000005       0.41999999999999998        0.0000000000000000     
  0.74504999999999999       0.48705999999999999        0.0000000000000000     
  0.68996999999999997       0.48530000000000001        0.0000000000000000     
  0.66213999999999995       0.47589999999999999        0.0000000000000000     
  0.63373000000000002       0.47414000000000001        0.0000000000000000     
  0.68861000000000006       0.55347000000000002        0.0000000000000000     
  0.62687669000000001       0.62714972999999996        0.0000000000000000     
  0.51632500000000003       0.26038000000000000        0.0000000000000000     
  0.66345008000000005       0.20335998999999999        0.0000000000000000     
  0.68430000000000002       0.34078999999999998        0.0000000000000000     
  0.59737622999999995       0.42491739000000001        0.0000000000000000     
  0.55410000000000004       0.41776999999999997        0.0000000000000000     
  0.52314000000000005       0.40723999999999999        0.0000000000000000     
  0.46111999999999997       0.32850000000000001        0.0000000000000000     
  0.67330999999999996       0.19785000000000000        0.0000000000000000     
  0.69296999999999997       0.22594000000000000        0.0000000000000000     
  0.40191943000000002       0.86367486999999998        0.0000000000000000     
  0.12271248000000000       0.14762657000000001        0.0000000000000000     
  0.14852475000000001       0.12337326999999999        0.0000000000000000     
  0.74936000000000003       0.44945000000000002        0.0000000000000000     
  0.61883999999999995       0.82247000000000003        0.0000000000000000     
  0.26941311000000001       0.82690965999999999        0.0000000000000000     
  0.14224880000000001       0.37582204000000002        0.0000000000000000     
  0.16781681000000001       0.35746910999999998        0.0000000000000000     
  0.38384000000000001       0.56583499999999998        0.0000000000000000     
  0.17475499999999999       0.26156499999999999        0.0000000000000000     
  0.16588214000000001       0.27095785999999999        0.0000000000000000     
  0.19754658000000000       0.25190794000000000        0.0000000000000000     
  0.18240999999999999       0.26306000000000002        0.0000000000000000     
  0.38775999999999999       0.58301250000000004        0.0000000000000000     
   9.2598787000000002E-002  0.28369930999999998        0.0000000000000000     
  0.12988000000000000       0.31154999999999999        0.0000000000000000     
  0.15971573000000000       0.35549573000000001        0.0000000000000000     
  0.43006250000000001       0.70743999999999996        0.0000000000000000     
  0.40538000000000002       0.77361250000000004        0.0000000000000000     
  0.42100500000000002       0.81830000000000003        0.0000000000000000     
  0.41854986000000000       0.69665306000000005        0.0000000000000000     
  0.38971499999999998       0.61060999999999999        0.0000000000000000     
  0.38773564999999999       0.45901181000000002        0.0000000000000000     
  0.39590059000000000       0.45441031999999998        0.0000000000000000     
  0.38384000000000001       0.54735250000000002        0.0000000000000000     
  0.36502704000000002       0.72473217000000001        0.0000000000000000     
  0.32337357999999999       0.82795901000000005        0.0000000000000000     
  0.70706773000000001       0.36044921000000002        0.0000000000000000     
  0.74097999999999997       0.35293500000000000        0.0000000000000000     
  0.74097999999999997       0.31773499999999999        0.0000000000000000     
  0.71235000000000004       0.23181499999999999        0.0000000000000000     
  0.58099500000000004       0.12427000000000001        0.0000000000000000     
  0.50926802999999998       0.81618526000000002        0.0000000000000000     
  0.39694000000000002       0.25951249999999998        0.0000000000000000     
  0.43692275000000003       0.32087145000000000        0.0000000000000000     
  0.41615999999999997       0.32374500000000000        0.0000000000000000     
  0.43379000000000001       0.30536999999999997        0.0000000000000000     
  0.56120943999999995       0.14292195999999999        0.0000000000000000     
  0.56101000000000001       0.12778999999999999        0.0000000000000000     
  0.72713519000000004       0.36131693999999998        0.0000000000000000     
  0.74289499999999997       0.49852000000000002        0.0000000000000000     
  0.70664000000000005       0.43221999999999999        0.0000000000000000     
  0.53013999999999994       0.41189999999999999        0.0000000000000000     
  0.54561999999999999       0.41584500000000002        0.0000000000000000     
  0.71071649000000003       0.55600200000000000        0.0000000000000000     
  0.67979000000000001       0.56306999999999996        0.0000000000000000     
  0.62555094000000000       0.62995129000000005        0.0000000000000000     
  0.66964504000000002       0.20812000000000000        0.0000000000000000     
  0.58421811000000001       0.42326870000000000        0.0000000000000000     
  0.59798264000000001       0.43157266000000000        0.0000000000000000     
  0.54939000000000004       0.42473000000000000        0.0000000000000000     
  0.52732000000000001       0.40139999999999998        0.0000000000000000     
[...]
 CELL_DATA        1963
 SCALARS Endothelial_cells float
 LOOKUP_TABLE default
    0.60821552008589985228E+00
    0.86759730543996615992E+00
    0.10033231072427888364E+01
    0.95112842527490737421E+00
    0.76331620448415093971E+00
    0.54692155566652789211E+00
    0.91470057850566066637E+00
    0.21962670092267955191E+00
    0.31177090177990934849E+00
    0.41701790985720410543E+00
    0.31677202520635494576E+00
    0.84153896733574728994E+00
    0.27867288251367466900E+00
    0.67052047701294037463E+00
    0.87152351170195030416E+00
    0.10527535565460692801E+01
    0.92764942986164156125E+00
    0.44901381636848847201E+00
    0.51777292001423469436E+00
    0.10191050544197235439E+01
    0.47395694439790897468E+00
    0.41892964326954573728E+00
    0.51159599856879889312E+00
    0.28402755202389701195E+00
    0.35372196672380179505E+00
    0.54186122320357443805E+00
    0.37231125270453907516E+00
    0.45926648084353299817E+00
    0.79213159772106256362E+00
    0.60925891814882138231E+00
    0.78885898185546610151E+00
    0.18663171643552792234E+00
    0.31289106910443731380E+00
    0.79290142608166769289E+00
    0.29098175343116416958E+00
    0.55410803937821906384E+00
    0.87968534624466776517E+00
    0.90779887339316234218E+00
    0.68161988171587295504E+00
    0.75010343578134264231E+00
    0.88788112323588574970E+00
    0.88232269487993564283E+00
    0.81393938559178302672E+00
    0.77056509553167729099E+00
    0.64819076505724437798E+00
    0.77926015302589657363E+00
    0.68514067916284937532E+00
    0.81105047853578793315E+00
    0.24215345362418733144E+00
    0.20896482032363947190E+00
    0.19651542378908351538E+00
    0.26282040487710589538E+00
    0.28438016281490835491E+00
    0.47850136795353886976E+00
    0.33593591741854272881E+00
    0.79318699225685174170E+00
    0.52491022829363209734E+00
    0.25968132775599161999E+00
    0.52326470846889394650E+00
    0.53906355259857485773E+00
    0.78515558788525385836E+00
    0.20055997518649099076E+00
    0.81313122527881764867E+00
    0.30419819472272241478E+00
    0.56463090318673614387E+00
    0.30193644280905906907E+00
    0.59632399484214659857E+00
    0.51564951750561927035E+00
    0.10576372162651839215E+01
    0.93257440429114701885E+00
    0.92071874164790012962E+00
    0.89037883072688550623E+00
    0.33102028045303838466E+00
    0.23444138291616531400E+00
    0.18563533942363086293E+00
    0.99642743478626716325E+00
    0.24840343865578845550E+00
    0.22215220469592586450E+00
    0.69029202754816054721E+00
    0.28599589100681704901E+00
    0.58881266279908561767E+00
    0.10026969226681052838E+01
    0.30440742350700056296E+00
    0.19781512923385830005E+00
    0.92603922001551675081E+00
    0.61954937991178815615E+00
    0.89489505056971496710E+00
    0.10860686519356173019E+01
    0.74404034821741749095E+00
    0.10297686161147374673E+01
    0.33221353480010429315E+00
    0.34753460549806336477E+00
    0.29328386125670080631E+00
    0.56909212177121015763E+00
    0.33570817188043267087E+00
    0.40634111364522995657E+00
    0.70125726777314167926E+00
    0.51931349057578601869E+00
    0.39761455229912118225E+00
    0.30889011432868485052E+00
    0.26967222357213860295E+00
    0.33259835584765146121E+00
    0.52124899856788475816E+00
    0.60000778607207594373E+00
    0.35480495493641883709E+00
    0.30505230810625771909E+00
    0.54408260352503678980E+00
    0.28473512583446070057E+00
    0.40732576618504273691E+00
    0.33514414224674726750E+00
    0.81754511148472586157E+00
    0.70409423202471566050E+00
    0.54852499124323839119E+00
    0.41153985305148083063E+00
    0.81467528167845326692E+00
    0.62279282665073243397E+00
    0.54369892222055948849E+00
    0.77311980908346944474E+00
    0.69588568116488291881E+00
    0.67050363497376508359E+00
    0.64059876645613400559E+00
    0.75336891511204162608E+00
    0.60083171393237810864E+00
    0.78324920087569538385E+00
    0.54785600047150395664E+00
    0.52445930606551716124E+00
    0.23148128456952132836E+00
    0.44821777214201669048E+00
    0.28330609639433557145E+00
    0.37287231362813583191E+00
    0.58750150196935535529E+00
    0.64256563015982071096E+00
    0.56031209402672255138E+00
    0.42769880029976825586E+00
    0.54413873815247637555E+00
    0.81243142575034255071E+00
    0.33699213477488682011E+00
    0.72686263693930330820E+00
    0.56495583152689077266E+00
    0.37376777845079073304E+00
    0.70535871665877125647E+00
    0.98809712089125012469E+00
    0.76621305724981036978E+00
    0.80220131199575539505E+00
    0.32806643468602220137E+00
    0.34344126365077853880E+00
    0.11211508253683768466E+01
    0.36500244621663058275E+00
    0.35444582265374963148E+00
    0.11202205322061409287E+01
    0.98976537482015425340E+00
    0.34052340832132654835E+00
    0.86769198520099510841E+00
    0.84542953561347244928E+00
    0.52737538433236474944E+00
    0.37678599434176657246E+00
    0.35944548483117400028E+00
    0.36898762803710871694E+00
    0.10239372597107394558E+01
    0.43367006637515859158E+00
    0.10120266476108623621E+01
    0.39307010421397453603E+00
    0.87989293339276186678E+00
    0.35385356235340897912E+00
    0.24138677450040169070E+00
    0.97153826631829254268E+00
    0.25576172521743845145E+00
    0.16349240636879783239E+00
    0.31682802547658339698E+00
    0.68021203370844141034E+00
    0.36857267771586987859E+00
    0.11012011325348807222E+01
    0.11365583206031499852E+01
    0.10231091531119276272E+01
    0.11226888886396484413E+01
    0.35687758506042827067E+00
    0.42628890761749305138E+00
    0.11362213338242497240E+01
    0.11228503304579187105E+01
    0.10111084944521981921E+01
    0.40026688350378164527E+00
    0.40011464312773464824E+00
    0.10750950637749792094E+01
    0.11056023111939357051E+01
    0.61424960768025671509E+00
    0.56731442421909317186E+00
    0.61918004602917853241E+00
    0.10284210569626210940E+01
    0.64513743466940565163E+00
    0.10477512100879597945E+01
    0.32105832226807168306E+00
    0.36098304213777260285E+00
    0.45096794693141262211E+00
    0.59216002259121858220E+00
    0.83282426239507933996E+00
    0.26854705020063418530E+00
    0.66001668064162910543E+00
    0.95602324850635767017E+00
    0.81921513074179508340E+00
    0.72196074001991239477E+00
    0.40016984469433419802E+00
    0.14237379038952086008E+00
    0.55139818532072737423E+00
    0.64665755443812200642E+00
    0.58669374733226298257E+00
    0.17933487602587411258E+00
    0.39993148924462268434E+00
    0.11356931062848529823E+01
    0.20663404096077589434E+00
    0.95606031427183724158E+00
    0.54114520878274097182E+00
    0.50509764457725281339E+00
    0.37588024842556866378E+00
    0.53866560159483056758E+00
    0.38202043399984120242E+00
    0.72661122740517436469E+00
    0.74423690256476160432E+00
    0.72888812402817648728E+00
    0.38295606050685393473E+00
    0.59613068041170380607E+00
    0.64046864680359183453E+00
    0.27810924504564976667E+00
    0.67010586594224463841E+00
    0.55967064744646966012E+00
    0.38070056058400958410E+00
    0.24376481844815903188E+00
    0.37080518805634382629E+00
    0.79702918512486498059E+00
    0.24116132587869662518E+00
    0.18537125456637668086E+00
    0.83647584623376491919E+00
    0.49653328680095976111E+00
    0.74839198249045957301E+00
    0.46389145968901518424E+00
    0.20367246122325208257E+00
    0.23021108040609059020E+00
    0.14446625824498918189E+00
    0.69654608661096351074E+00
    0.55971728476518400885E+00
    0.70085678632729819793E+00
    0.62736931031552256588E+00
    0.52045524053203862103E+00
    0.48011066364677557061E+00
    0.53985372183487723152E+00
    0.26571154301484550819E+00
    0.86720167247760626683E+00
    0.22760010673723335417E+00
    0.65589887671102464761E+00
    0.65261502227518108921E+00
    0.61950607916471622794E+00
    0.16134192036842895379E+00
    0.25755998569975740997E+00
    0.14439757433134406406E+00
    0.10552791419590128452E+01
    0.97617484530964981904E+00
    0.16084079261871980782E+00
    0.10011778603680734356E+01
    0.18189703545338045676E+00
    0.14219420615527061935E+00
    0.14219419172685165975E+00
    0.14219419148021328336E+00
    0.18659930498472418470E+00
    0.14219587961618793126E+00
    0.14219419269034502817E+00
    0.98197366353273585204E+00
    0.54141966528107499101E+00
    0.94550888730115911773E+00
    0.40003282320349647927E+00
    0.86318810974673199077E+00
    0.10017545323414820402E+01
    0.40006294192451141711E+00
    0.94817665484985491631E+00
    0.39963698800141267409E+00
    0.93090321957000765618E+00
    0.99453024925124378086E+00
    0.15451156901681975531E+00
    0.39997786153203263027E+00
    0.33219166818125150931E+00
    0.98865960040351008598E+00
    0.14219424310645373266E+00
    0.39998921892016769952E+00
    0.67571654464384856009E+00
    0.25783660433081612151E+00
    0.80440969339487766732E+00
    0.96199691512987683950E+00
    0.72293280597304587776E+00
    0.38072399936050482783E+00
    0.10646427428876938936E+01
    0.10494108189441204715E+01
    0.98405679953372082736E+00
    0.83122813371835291285E+00
    0.35016287159898418224E+00
    0.35075195024670435817E+00
    0.91592621949400820913E+00
    0.42577999502633218087E+00
    0.82727419290566039933E+00
    0.32319697883502951363E+00
    0.85159022367884074090E+00
    0.51349494467709300149E+00
    0.85469928390232186022E+00
    0.10479032536945660503E+01
    0.92935028950027831485E+00
    0.40022898582944804735E+00
    0.89806775802411087373E+00
    0.95609899620716887192E+00
    0.39981662039121723673E+00
    0.81644065707633139972E+00
    0.72224974772643169008E+00
    0.38071133783799332440E+00
    0.34087670134004605105E+00
    0.85477450489623352237E+00
    0.77519811341869504506E+00
    0.26984560122279394045E+00
    0.10218414271899651791E+01
    0.56892397690305662739E+00
    0.91977684385133007261E+00
    0.82850512091677874782E+00
    0.40004334734738811186E+00
    0.32069970295492311596E+00
    0.80769251910631667535E+00
    0.32439561679164174990E+00
    0.31967211277022272720E+00
    0.34079686525061975155E+00
    0.33260308559711365683E+00
    0.91354542483174083767E+00
    0.35529152066895713924E+00
    0.89381615071137132666E+00
    0.88982400102473313552E+00
    0.31521778884733531179E+00
    0.23291787771812516583E+00
    0.88178936473549063280E+00
    0.79587743727770143831E+00
    0.77996875515071428797E+00
    0.74345059259129342433E+00
    0.83736703460383654640E+00
    0.82856972869867995257E+00
    0.15844099084154542045E+00
    0.82358201616910609033E+00
    0.62602540291012687135E+00
    0.67374095008327694600E+00
    0.30163572573438257596E+00
    0.28017920677513907801E+00
    0.72615448340629829005E+00
    0.26555418424081861373E+00
    0.65711502219070383468E+00
    0.25155374039500438821E+00
    0.14915324692082881919E+00
    0.20346837538172724003E+00
    0.75537781256751168613E+00
    0.79903088961715029725E+00
    0.60224960095740909249E+00
    0.35969232077151008786E+00
    0.43675101697674184598E+00
    0.52889919512152983039E+00
    0.91499152007887796234E+00
    0.10704757304591934197E+01
    0.99547625274541984286E+00
    0.71205295877413465888E+00
    0.10203685528285466599E+01
    0.10160210296549914144E+01
    0.79046019702401326690E+00
    0.64367803499751252705E+00
    0.59739294757063321484E+00
    0.82522286512421416660E+00
    0.80160449209524220482E+00
    0.48615802049294443155E+00
    0.89272129340604278180E+00
    0.89510733093906602598E+00
    0.51213255868382923097E+00
    0.27052728420950789001E+00
    0.11153767119287589793E+01
    0.10900812678125249011E+01
    0.87981858806503232540E+00
    0.98031161721143866838E+00
    0.62950741348287508892E+00
    0.60574380368210600789E+00
    0.90737816632754197954E+00
    0.26796801588720947640E+00
    0.87312820208986496873E+00
    0.44767088208543248662E+00
    0.29794219241357128292E+00
    0.10175787272446352727E+01
    0.88650434125658816864E+00
    0.98162039584082383392E+00
    0.97761199693387357268E+00
    0.60228990784858105201E+00
    0.27716124859694246663E+00
    0.39990568476382748475E+00
    0.27644076820164081854E+00
    0.75149678720315737923E+00
    0.86313282015903691757E+00
    0.80389088854388901506E+00
    0.25141220191694801933E+00
    0.90293639209845544258E+00
    0.23057857090458477867E+00
    0.18494259996306999794E+00
    0.58329135010904298309E+00
    0.50252810102566014550E+00
    0.17641148485396565548E+00
    0.68896003504576031062E+00
    0.29903554280920546793E+00
    0.28753368574968002358E+00
    0.69277683889371766135E+00
    0.26740217994677939473E+00
    0.28746836632938788103E+00
    0.18603179231188668452E+00
    0.99702930683078572205E+00
    0.99197673242546979822E+00
    0.24645032108670478221E+00
    0.10677834025372943128E+01
    0.60970355130583020475E+00
    0.55026899660352235344E+00
    0.11009049091360376682E+01
    0.73888082126075793621E+00
    0.33629217967271507472E+00
    0.87533646221839678248E+00
    0.56511312214386655306E+00
    0.10525311954208231846E+01
    0.25714467576417926464E+00
    0.44631199965172752009E+00
    0.16106682653664705640E+00
    0.80536028891763744575E+00
    0.95813894941806621031E+00
    0.29432275576870642331E+00
    0.19667533433296463530E+00
    0.90214935431544407418E+00
    0.15144534462746636616E+00
    0.87625997283496792623E+00
    0.14219448425136976821E+00
    0.14558977393783409382E+00
    0.22341365866029000431E+00
    0.27022198988931611652E+00
    0.22764432647084115180E+00
    0.21486106544112548722E+00
    0.16687113584059187765E+00
    0.30324553477240095978E+00
    0.55249483965020007581E+00
    0.36465177888099137293E+00
    0.22470077801791729644E+00
    0.14389518060467262894E+00
    0.14227768089156586639E+00
    0.14230418505358916059E+00
    0.69344586824617782117E+00
    0.59770092290260312673E+00
    0.38117287639346897343E+00
    0.37414686106731270820E+00
    0.71278057032348396405E+00
    0.10618561589473480833E+01
    0.15084243850461723224E+00
    0.14220116047901021350E+00
    0.14228838073298805122E+00
    0.32337024480515025315E+00
    0.24484322789453399905E+00
    0.23479801064377131548E+00
    0.19400426344893173525E+00
    0.62558081481360217069E+00
    0.17489050909037320847E+00
    0.19859357800846880182E+00
    0.15571817670946092038E+00
    0.32090939606229706982E+00
    0.33573272278568871974E+00
    0.39932027868033093121E+00
    0.39865454087826313057E+00
    0.39992443204701416670E+00
    0.10531038753277144338E+01
    0.38889242359604048183E+00
    0.29094082615384569968E+00
    0.40003779461938676620E+00
    0.31261460276261082702E+00
    0.40003211978251984604E+00
    0.35270781314398663708E+00
    0.38444109333376924598E+00
    0.24155635938657205042E+00
    0.40006571763926046525E+00
    0.14276256923672597798E+00
    0.23278811892483031176E+00
    0.22163485202755531245E+00
    0.64468845616144154764E+00
    0.19154747238702291012E+00
    0.99319249141260723679E+00
    0.87830434183946681781E+00
    0.82869433827258154324E+00
    0.76714418719120602841E+00
    0.39971565710331896648E+00
    0.85184117724966412766E+00
    0.58569021418677613688E+00
    0.67160363016937552061E+00
    0.87191485421889580731E+00
    0.81176763433873799780E+00
    0.69035853101469302207E+00
    0.40002776839428777489E+00
    0.81320727982547735824E+00
    0.39983157479659164890E+00
    0.14334808473269994300E+00
    0.64193650781450206644E+00
    0.82955151148895955870E+00
    0.10053818041095441416E+01
    0.61962809888055414564E+00
    0.82190225424117890896E+00
    0.10851739770257637918E+01
    0.46838921142516404261E+00
    0.96834843650781865509E+00
    0.56368567266353153400E+00
    0.31863666500699222572E+00
    0.47617655408618397850E+00
    0.47658473658602140688E+00
    0.69443588251939292189E+00
    0.63792645417760729387E+00
    0.23284784824806875614E+00
    0.31204098403185875910E+00
    0.19460772638808843116E+00
    0.18479582633053531771E+00
    0.88733992813037143588E+00
    0.97561659672766609663E+00
    0.10040849080303777541E+01
    0.92390416579044842837E+00
    0.59332933907320128952E+00
    0.40351249098698549478E+00
    0.62753816103666837378E+00
    0.33748070909388144800E+00
    0.11206850089678714877E+01
    0.11070054013694565764E+01
    0.10581165765917746047E+01
    0.94327667289150851637E+00
    0.10723559192812772700E+01
    0.98094037131736100399E+00
    0.39830852460169607898E+00
    0.10105319402035644050E+01
    0.83524935955676593569E+00
    0.57679884036020101501E+00
    0.37990234368347280958E+00
    0.25006161122116743467E+00
    0.90096015464092660263E+00
    0.68105414336144931564E+00
    0.30424090241281254166E+00
    0.21879362295343532385E+00
    0.68007890945281435080E+00
    0.17394993493464658285E+00
    0.80774111948770266345E+00
    0.97607571324385189460E+00
    0.85438558484524862457E+00
    0.25690585307745728016E+00
    0.86729352873448961603E+00
    0.28292922758025224050E+00
    0.59594338919719902492E+00
    0.24746170436540707027E+00
    0.10572777149665379959E+01
    0.57858550296348010278E+00
    0.39963602801136022258E+00
    0.11273606684334251948E+01
    0.91236013699263129872E+00
    0.10022002275462900123E+01
    0.10499188257945790692E+01
    0.77997955437942056989E+00
    0.11363547207613520218E+01
    0.10337098693184147979E+01
    0.91001773999154045303E+00
    0.10979844298469256803E+01
    0.39984367435359924325E+00
    0.26292096815834320456E+00
    0.55212398910324278489E+00
    0.51388250352037767588E+00
    0.39988999105320266469E+00
    0.76020694250213671772E+00
    0.20572178289585549282E+00
    0.71435927172435642607E+00
    0.75549979458209970407E+00
    0.54386353211081506220E+00
    0.80541279150992184377E+00
    0.56249473230052560169E+00
    0.40012151903352555227E+00
    0.54594700550309049891E+00
    0.78470697318453896951E+00
    0.31286668188202443330E+00
    0.43379512510141871040E+00
    0.70660189405665874141E+00
    0.80123058362663668319E+00
    0.64494252385246930714E+00
    0.51306796633441820177E+00
    0.68060466371376904249E+00
    0.39994779463463187019E+00
    0.44979603357171032973E+00
    0.40012849791323035209E+00
    0.40006693442696650287E+00
    0.73072215682924490654E+00
    0.71408068000954105781E+00
    0.24116148042237881000E+00
    0.39998913359159704584E+00
    0.39984513485075440231E+00
    0.39992944622943077393E+00
    0.40029431780805002639E+00
    0.39972024820637869214E+00
    0.40010306713826648828E+00
    0.39999881861527358806E+00
    0.40022814306360565695E+00
    0.40000509161913427869E+00
    0.39974917560098516267E+00
    0.40021048815283116751E+00
    0.40015332266043701637E+00
    0.40019202055807301388E+00
    0.40019855660960562682E+00
    0.40002458656434880524E+00
    0.40013649000115147913E+00
    0.40015473290709829834E+00
    0.40018736917208852510E+00
    0.39987875218140706002E+00
    0.41284883599419092137E+00
    0.39999595739817911388E+00
    0.39984402403528707115E+00
    0.40055539171600673676E+00
    0.57797976630638692175E+00
    0.63392735744888983884E+00
    0.50605190376747344327E+00
    0.60237711138316596404E+00
    0.40028764519308657199E+00
    0.42654127175528783189E+00
    0.47118277851278800306E+00
    0.41880274445066079103E+00
    0.54622644717843804596E+00
    0.48703380953027453071E+00
    0.27501530238574567466E+00
    0.40013801993223885312E+00
    0.39963236973758947679E+00
    0.39977324835822442006E+00
    0.36858438872153054255E+00
    0.40042214422713540145E+00
    0.47562145956636509014E+00
    0.40022593935097294793E+00
    0.40096721303700033623E+00
    0.39987571981520264597E+00
    0.69400506112513260515E+00
    0.48897591575611459858E+00
    0.14359182807847506447E+00
    0.66535644670657567712E+00
    0.40070425330804249064E+00
    0.40046467608334712640E+00
    0.39993633954626944815E+00
    0.16999992052777870843E+00
    0.10674914828242292320E+01
    0.39993540586005033033E+00
    0.64092606295784171344E+00
    0.63794704713846273059E+00