# vtk DataFile Version 3.0
LAPLACIEN  2D
ASCII
DATASET UNSTRUCTURED_GRID
 POINTS        1083  float
  0.25752000000000003       0.83521000000000001        0.0000000000000000     
  0.26692436000000003       0.82361669999999998        0.0000000000000000     
  0.12755760999999999       0.37286407999999999        0.0000000000000000     
  0.16947000000000001       0.36312000000000000        0.0000000000000000     
  0.20556749999999999       0.30943999999999999        0.0000000000000000     
  0.19808000000000001       0.30240000000000000        0.0000000000000000     
  0.17829000000000000       0.29613000000000000        0.0000000000000000     
  0.16072427000000000       0.27611573000000000        0.0000000000000000     
  0.20518000000000000       0.25756000000000001        0.0000000000000000     
  0.14513182999999999       0.15495659000000001        0.0000000000000000     
  0.18475000000000000       0.25733000000000000        0.0000000000000000     
  0.15320000000000000       0.28981000000000001        0.0000000000000000     
   8.4010000000000001E-002  0.28726000000000002        0.0000000000000000     
  0.12066000000000000       0.31644000000000000        0.0000000000000000     
  0.15419146000000000       0.34997146000000001        0.0000000000000000     
   9.1609999999999997E-002  0.41126000000000001        0.0000000000000000     
   8.2839999999999997E-002  0.24906000000000000        0.0000000000000000     
  0.10719500000000000       0.24906000000000000        0.0000000000000000     
  0.10394500000000000       0.24026000000000000        0.0000000000000000     
  0.10306999999999999       0.16439999999999999        0.0000000000000000     
  0.20605000000000001        7.9089999999999994E-002   0.0000000000000000     
  0.42243181000000002       0.83768843000000004        0.0000000000000000     
  0.40538000000000002       0.78705000000000003        0.0000000000000000     
  0.42062500000000003       0.70743999999999996        0.0000000000000000     
  0.39167000000000002       0.62682000000000004        0.0000000000000000     
  0.38775999999999999       0.57162500000000005        0.0000000000000000     
  0.39058282000000000       0.54871530000000002        0.0000000000000000     
  0.39464117999999998       0.46212064000000003        0.0000000000000000     
  0.39241130000000002       0.45290363000000000        0.0000000000000000     
  0.38384000000000001       0.55516500000000002        0.0000000000000000     
  0.38069999999999998       0.59557000000000004        0.0000000000000000     
  0.36735092000000003       0.72975095999999995        0.0000000000000000     
  0.37138180999999998       0.84873708999999997        0.0000000000000000     
  0.31856716000000002       0.83411802999999995        0.0000000000000000     
  0.65566999999999998       0.71865999999999997        0.0000000000000000     
  0.62348499999999996       0.71865999999999997        0.0000000000000000     
  0.63253999999999999       0.72650000000000003        0.0000000000000000     
  0.63397590999999998       0.79238797000000005        0.0000000000000000     
  0.61133999999999999       0.77437999999999996        0.0000000000000000     
  0.58667000000000002       0.75475999999999999        0.0000000000000000     
  0.51746738999999997       0.83310978000000002        0.0000000000000000     
  0.51022000000000001       0.76192000000000004        0.0000000000000000     
  0.49914890000000001       0.74624727000000002        0.0000000000000000     
  0.50311967000000002       0.80879526000000002        0.0000000000000000     
  0.50158999999999998       0.83067000000000002        0.0000000000000000     
  0.46398766000000002       0.86013877000000005        0.0000000000000000     
  0.41615999999999997       0.37445000000000001        0.0000000000000000     
  0.43026551000000002       0.31678289999999998        0.0000000000000000     
  0.39694000000000002       0.24930500000000000        0.0000000000000000     
  0.41994211999999997       0.11642168999999999        0.0000000000000000     
  0.43478000000000000       0.10487000000000000        0.0000000000000000     
  0.57060999999999995       0.13406000000000001        0.0000000000000000     
  0.69662999999999997       0.19536999999999999        0.0000000000000000     
  0.71886000000000005       0.24690999999999999        0.0000000000000000     
  0.74097999999999997       0.33731000000000000        0.0000000000000000     
  0.72538453999999997       0.37890159000000001        0.0000000000000000     
  0.73320112000000004       0.40760169000000002        0.0000000000000000     
  0.70620000000000005       0.41999999999999998        0.0000000000000000     
  0.74504999999999999       0.48705999999999999        0.0000000000000000     
  0.68996999999999997       0.48530000000000001        0.0000000000000000     
  0.66213999999999995       0.47589999999999999        0.0000000000000000     
  0.63373000000000002       0.47414000000000001        0.0000000000000000     
  0.68861000000000006       0.55347000000000002        0.0000000000000000     
  0.62687669000000001       0.62714972999999996        0.0000000000000000     
  0.51632500000000003       0.26038000000000000        0.0000000000000000     
  0.66345008000000005       0.20335998999999999        0.0000000000000000     
  0.68430000000000002       0.34078999999999998        0.0000000000000000     
  0.59737622999999995       0.42491739000000001        0.0000000000000000     
  0.55410000000000004       0.41776999999999997        0.0000000000000000     
  0.52314000000000005       0.40723999999999999        0.0000000000000000     
  0.46111999999999997       0.32850000000000001        0.0000000000000000     
  0.67330999999999996       0.19785000000000000        0.0000000000000000     
  0.69296999999999997       0.22594000000000000        0.0000000000000000     
  0.40191943000000002       0.86367486999999998        0.0000000000000000     
  0.12271248000000000       0.14762657000000001        0.0000000000000000     
  0.14852475000000001       0.12337326999999999        0.0000000000000000     
  0.74936000000000003       0.44945000000000002        0.0000000000000000     
  0.61883999999999995       0.82247000000000003        0.0000000000000000     
  0.26941311000000001       0.82690965999999999        0.0000000000000000     
  0.14224880000000001       0.37582204000000002        0.0000000000000000     
  0.16781681000000001       0.35746910999999998        0.0000000000000000     
  0.38384000000000001       0.56583499999999998        0.0000000000000000     
  0.17475499999999999       0.26156499999999999        0.0000000000000000     
  0.16588214000000001       0.27095785999999999        0.0000000000000000     
  0.19754658000000000       0.25190794000000000        0.0000000000000000     
  0.18240999999999999       0.26306000000000002        0.0000000000000000     
  0.38775999999999999       0.58301250000000004        0.0000000000000000     
   9.2598787000000002E-002  0.28369930999999998        0.0000000000000000     
  0.12988000000000000       0.31154999999999999        0.0000000000000000     
  0.15971573000000000       0.35549573000000001        0.0000000000000000     
  0.43006250000000001       0.70743999999999996        0.0000000000000000     
  0.40538000000000002       0.77361250000000004        0.0000000000000000     
  0.42100500000000002       0.81830000000000003        0.0000000000000000     
  0.41854986000000000       0.69665306000000005        0.0000000000000000     
  0.38971499999999998       0.61060999999999999        0.0000000000000000     
  0.38773564999999999       0.45901181000000002        0.0000000000000000     
  0.39590059000000000       0.45441031999999998        0.0000000000000000     
  0.38384000000000001       0.54735250000000002        0.0000000000000000     
  0.36502704000000002       0.72473217000000001        0.0000000000000000     
  0.32337357999999999       0.82795901000000005        0.0000000000000000     
  0.70706773000000001       0.36044921000000002        0.0000000000000000     
  0.74097999999999997       0.35293500000000000        0.0000000000000000     
  0.74097999999999997       0.31773499999999999        0.0000000000000000     
  0.71235000000000004       0.23181499999999999        0.0000000000000000     
  0.58099500000000004       0.12427000000000001        0.0000000000000000     
  0.50926802999999998       0.81618526000000002        0.0000000000000000     
  0.39694000000000002       0.25951249999999998        0.0000000000000000     
  0.43692275000000003       0.32087145000000000        0.0000000000000000     
  0.41615999999999997       0.32374500000000000        0.0000000000000000     
  0.43379000000000001       0.30536999999999997        0.0000000000000000     
  0.56120943999999995       0.14292195999999999        0.0000000000000000     
  0.56101000000000001       0.12778999999999999        0.0000000000000000     
  0.72713519000000004       0.36131693999999998        0.0000000000000000     
  0.74289499999999997       0.49852000000000002        0.0000000000000000     
  0.70664000000000005       0.43221999999999999        0.0000000000000000     
  0.53013999999999994       0.41189999999999999        0.0000000000000000     
  0.54561999999999999       0.41584500000000002        0.0000000000000000     
  0.71071649000000003       0.55600200000000000        0.0000000000000000     
  0.67979000000000001       0.56306999999999996        0.0000000000000000     
  0.62555094000000000       0.62995129000000005        0.0000000000000000     
  0.66964504000000002       0.20812000000000000        0.0000000000000000     
  0.58421811000000001       0.42326870000000000        0.0000000000000000     
  0.59798264000000001       0.43157266000000000        0.0000000000000000     
  0.54939000000000004       0.42473000000000000        0.0000000000000000     
  0.52732000000000001       0.40139999999999998        0.0000000000000000     
[...]
 CELL_DATA        1963
 SCALARS Endothelial_cells float
 LOOKUP_TABLE default
    0.41091912670400365659E+00
    0.82191059987428594091E+00
    0.87903417046498200094E+00
    0.82280039391755011025E+00
    0.66624523941091085000E+00
    0.57192102441455561213E+00
    0.86097424714836456872E+00
    0.12562719454531634522E+00
    0.15032178306353144448E+00
    0.57361734867916280844E+00
    0.19706441234688540365E+00
    0.82576691092343768030E+00
    0.39616771682275642164E+00
    0.68582906028668222387E+00
    0.76899936478173758214E+00
    0.89052940784121625839E+00
    0.81308270078417088644E+00
    0.22664541676099836387E+00
    0.26411117571297010320E+00
    0.88239431333487750031E+00
    0.24521822970878207060E+00
    0.23584304021931429274E+00
    0.50227991642953562224E+00
    0.15664528794420887192E+00
    0.19863048470331845508E+00
    0.63661665145448165237E+00
    0.23663238032807945577E+00
    0.54390974749063181193E+00
    0.76937016740602870435E+00
    0.69658350209226915783E+00
    0.76649946464248319700E+00
    0.11888529839913541952E+00
    0.14396044984602412997E+00
    0.72500148622262605702E+00
    0.19260466357994612818E+00
    0.32570496531911247162E+00
    0.82518517222507670184E+00
    0.84676654133038375960E+00
    0.42040621593769933462E+00
    0.75767021243897147986E+00
    0.78889704216618927735E+00
    0.78897999535902030299E+00
    0.76568232299623550929E+00
    0.68494171882369958571E+00
    0.41279802619193578517E+00
    0.71565553787550184595E+00
    0.70078813154350239056E+00
    0.79266595325894262380E+00
    0.16364140098176491178E+00
    0.12411172515789364867E+00
    0.12274444771459404324E+00
    0.17755959300667106815E+00
    0.16935254599767149419E+00
    0.59152943683456904456E+00
    0.18862045968272397878E+00
    0.79279545100850590256E+00
    0.62828926590239608796E+00
    0.16660961120439221617E+00
    0.56882677885126875506E+00
    0.65990914644041009929E+00
    0.75120803245226053235E+00
    0.12430126532523186333E+00
    0.77033874944023417175E+00
    0.19089406800531397157E+00
    0.27772745252968333851E+00
    0.17589094713775249579E+00
    0.62305333311921240469E+00
    0.59070601883805784471E+00
    0.89114399564042623414E+00
    0.81764621379489177411E+00
    0.78845440497203445052E+00
    0.79121014090956010012E+00
    0.17340010017991883129E+00
    0.12713690295476076653E+00
    0.11931885361927990763E+00
    0.85439996678302854161E+00
    0.15097558309062139581E+00
    0.14484355609320404001E+00
    0.73832222085397170019E+00
    0.15954112962611952109E+00
    0.65956045861951817511E+00
    0.85895545283088547972E+00
    0.16666639367401428484E+00
    0.12095753509774469225E+00
    0.83099129426071993709E+00
    0.36350129011932241774E+00
    0.72490874377409475482E+00
    0.89890126944825721189E+00
    0.71834856247731893042E+00
    0.88094429004426588747E+00
    0.18843390641370452721E+00
    0.20324422236808631359E+00
    0.16499459020936507736E+00
    0.67680946001770914133E+00
    0.18758533351801509603E+00
    0.20752363111804267293E+00
    0.71866302998148945402E+00
    0.58927497540940176890E+00
    0.20961318203654000225E+00
    0.17042279893107176170E+00
    0.16695534433986458644E+00
    0.19641748342583878473E+00
    0.64172292540002762173E+00
    0.70042342558544923303E+00
    0.19633841688143063853E+00
    0.17123992996040227066E+00
    0.65958788724742356546E+00
    0.17314772961049490485E+00
    0.20556279550578468451E+00
    0.19687757753393478333E+00
    0.79706025298285099190E+00
    0.73545026612848640735E+00
    0.32616001296540880761E+00
    0.22755139769224858037E+00
    0.77037166186288896785E+00
    0.66961194019403369460E+00
    0.63361443995642996452E+00
    0.76395651656261265305E+00
    0.71730722444134453752E+00
    0.70071510294621808246E+00
    0.69948250328675420917E+00
    0.80923755405426078813E+00
    0.36520751386122268789E+00
    0.76050986192657821228E+00
    0.64501933065483385565E+00
    0.27312955061048932448E+00
    0.12804343330622858232E+00
    0.23654974292168992611E+00
    0.16406734001210651619E+00
    0.20219547129058551560E+00
    0.62599489109249983887E+00
    0.68353528144668151967E+00
    0.30735645755250284861E+00
    0.22847063477221177252E+00
    0.51544390079095214752E+00
    0.83298136824660917732E+00
    0.19388238768582941041E+00
    0.75313122482281191772E+00
    0.68465333115861293223E+00
    0.61153759763246073877E+00
    0.69949880059406266408E+00
    0.86949319833736760099E+00
    0.80921314412445710662E+00
    0.81613212770403997798E+00
    0.18003924639629337312E+00
    0.18888203931360197929E+00
    0.90264512696003396108E+00
    0.43350957350470792351E+00
    0.17936668392629590008E+00
    0.90147107690045202855E+00
    0.84837257325610726522E+00
    0.17990044603712149196E+00
    0.81167615833135209336E+00
    0.76130848224342384523E+00
    0.72225095477409251288E+00
    0.19251009485535702792E+00
    0.18002093816146344518E+00
    0.20311021711883694985E+00
    0.86257513496115378882E+00
    0.22875641240837943369E+00
    0.86294184710352872525E+00
    0.19097466948215613414E+00
    0.82855687622138096682E+00
    0.19644238031782843001E+00
    0.14549022429200880735E+00
    0.85877083298813317036E+00
    0.14928308611725973898E+00
    0.11555727964742040781E+00
    0.17242490162461271419E+00
    0.69928642096998827604E+00
    0.20403552679917985602E+00
    0.89949894437560273808E+00
    0.90377987308369167607E+00
    0.88219613134476893013E+00
    0.90167251650972657373E+00
    0.20114681445167062468E+00
    0.19486738967289890523E+00
    0.90376082170246663239E+00
    0.90169655767827339155E+00
    0.86444178693827089521E+00
    0.70556914656812275144E+00
    0.40493040542743435894E+00
    0.89480920732108037985E+00
    0.89919400207793298563E+00
    0.89570050898699371533E+00
    0.30148016742326688711E+00
    0.88827456389285264216E+00
    0.85340436801651375909E+00
    0.87450687697474727145E+00
    0.88885122339501043687E+00
    0.18685748229114426677E+00
    0.17967903302115811881E+00
    0.26384821107191180900E+00
    0.64009008650420085029E+00
    0.77949861830980138322E+00
    0.15686469213706513703E+00
    0.67277643212839133291E+00
    0.83436826513441397779E+00
    0.80049278236153065258E+00
    0.62661090330558166794E+00
    0.82023637155768092111E+00
    0.11298132746706826546E+00
    0.71913347042416886357E+00
    0.43778481932401130949E+00
    0.82806176073119763803E+00
    0.11945169526695165185E+00
    0.18735605825191189999E+00
    0.90373055841987859349E+00
    0.12249296646996037097E+00
    0.85142208427386600889E+00
    0.32573111363656470640E+00
    0.25444480155500526219E+00
    0.22222195563981533839E+00
    0.48942739351811181958E+00
    0.18777286851225799547E+00
    0.74794580074829586369E+00
    0.75155271055849581785E+00
    0.74987426495912212765E+00
    0.37636966563852813916E+00
    0.54831812619739372927E+00
    0.69232541981456874325E+00
    0.15852547579891246299E+00
    0.70609844126146492638E+00
    0.61956347424919766542E+00
    0.19616438691486551282E+00
    0.15836275414856065824E+00
    0.21638493487187845932E+00
    0.76305512987202817055E+00
    0.15466354137063420549E+00
    0.12051732736250414524E+00
    0.82972544667992365053E+00
    0.29036140743743577008E+00
    0.74053636575057779634E+00
    0.51824425289387565652E+00
    0.12573234623352755324E+00
    0.15059178875999570946E+00
    0.11310178613102747636E+00
    0.69370606708770443660E+00
    0.44915311396461737870E+00
    0.73953726660880114707E+00
    0.67110578263009401656E+00
    0.60535050615329744073E+00
    0.57553704932965277230E+00
    0.58882582160043794861E+00
    0.15927665554718398178E+00
    0.80721805979959881938E+00
    0.15368269412539173335E+00
    0.73492852538309338950E+00
    0.69896826832123815088E+00
    0.69468558388457779529E+00
    0.11568091853478233710E+00
    0.15234831893865347086E+00
    0.11307525216459347883E+00
    0.89212117590155104452E+00
    0.85029002021305744030E+00
    0.11593954943541043279E+00
    0.87808222648768519125E+00
    0.11906622718288611962E+00
    0.11297784311731187690E+00
    0.11297784307748422183E+00
    0.11297784318193905551E+00
    0.12189580555650780802E+00
    0.11297784794548290654E+00
    0.11297784309791701618E+00
    0.87450217118363227087E+00
    0.56979298050406101961E+00
    0.79683588386136983139E+00
    0.58403937667363059472E+00
    0.83579017301519609173E+00
    0.87842694582690905580E+00
    0.65073154773617014612E+00
    0.86318696867562583197E+00
    0.62101770383233945161E+00
    0.86219339667597560961E+00
    0.87406840256140749812E+00
    0.11454297351095507618E+00
    0.76363519321126605011E+00
    0.19117713415845472014E+00
    0.86353507404579643580E+00
    0.11297784319063639003E+00
    0.70667547662737084657E+00
    0.68687750897887867030E+00
    0.18410258390159217612E+00
    0.79372374582056037795E+00
    0.81598255025187260703E+00
    0.46571170659041583040E+00
    0.22108712542510799981E+00
    0.89279801437114536533E+00
    0.88898807913031063777E+00
    0.84879729533351166992E+00
    0.79790979253074345579E+00
    0.18744371490748346076E+00
    0.18822053313919473450E+00
    0.82506756343958898015E+00
    0.20476804151933775122E+00
    0.75625602317206075398E+00
    0.16847688087026221893E+00
    0.78982385488677619989E+00
    0.24301872713069491705E+00
    0.77400378073775966126E+00
    0.89049229040284105796E+00
    0.85769125496964604416E+00
    0.55078749685154837490E+00
    0.84900430101456758614E+00
    0.82289327157344971386E+00
    0.74245578526864342006E+00
    0.74317360712176949722E+00
    0.72617203044484990304E+00
    0.20010698815394706296E+00
    0.18487857467915366771E+00
    0.78639248651626136866E+00
    0.72170361236303570696E+00
    0.16576387738896339319E+00
    0.88147812283277260370E+00
    0.30572284173794539441E+00
    0.78605099380755139027E+00
    0.80022455995611330160E+00
    0.39971353962566152918E+00
    0.17140849094709553757E+00
    0.79286539105269082661E+00
    0.17829555649709061260E+00
    0.17656641131547171075E+00
    0.18275690724540294418E+00
    0.17939316061775820166E+00
    0.83142859818101522151E+00
    0.18939619609518423826E+00
    0.83667527845147171561E+00
    0.82101681348785005010E+00
    0.17917830992753780439E+00
    0.14601899902618731275E+00
    0.82032236114458556564E+00
    0.76906334210546212216E+00
    0.78623169797520586766E+00
    0.76513637694862568495E+00
    0.82895721301431857242E+00
    0.78263501371902621795E+00
    0.11497686029054111911E+00
    0.76859377961206820640E+00
    0.46702951873972403662E+00
    0.67754679354849389750E+00
    0.18134193811065094093E+00
    0.16592489122740888829E+00
    0.69939964020462186411E+00
    0.14179593923994041060E+00
    0.72360967276484167154E+00
    0.13034613577720582933E+00
    0.11342012973021767253E+00
    0.12581179615359261437E+00
    0.76086284100935963615E+00
    0.77708959874680405555E+00
    0.70609908780807506545E+00
    0.18881924624702040028E+00
    0.22211117031534138855E+00
    0.39572980562622583900E+00
    0.79939075335457765448E+00
    0.89237679760134003271E+00
    0.87109290892829893682E+00
    0.45427747392357326062E+00
    0.88048785336417634273E+00
    0.87194914538612711130E+00
    0.74802338451594196922E+00
    0.40964520884856769900E+00
    0.38013846511579246767E+00
    0.75638332221024129343E+00
    0.76774031709565693227E+00
    0.23838774525593414699E+00
    0.80848656970844368086E+00
    0.79550853034830659727E+00
    0.27870939514205261833E+00
    0.13468778830251779133E+00
    0.90064191226093270881E+00
    0.89476613471905619424E+00
    0.77765962153116674482E+00
    0.82441264814345438516E+00
    0.34745758617940891710E+00
    0.44266971682328259963E+00
    0.81882151723918072950E+00
    0.15129600682460916938E+00
    0.79646838508941786294E+00
    0.21803540496520179559E+00
    0.16052735876319951247E+00
    0.87952795038507181058E+00
    0.81933990807457335315E+00
    0.84433981193919427355E+00
    0.80284821428767028095E+00
    0.50220479227990699744E+00
    0.15676620715848663123E+00
    0.70412776320803505126E+00
    0.15933683711540949646E+00
    0.75841883689897382492E+00
    0.81794133948875569207E+00
    0.80082452459115305299E+00
    0.14965965195986560832E+00
    0.83338097074786265939E+00
    0.14806979351497134845E+00
    0.12008257056966295528E+00
    0.70224306051187812550E+00
    0.61347337264089585318E+00
    0.11802871651749886894E+00
    0.73409499782002274326E+00
    0.18381961421753381658E+00
    0.17579277636845963562E+00
    0.73956901474247038752E+00
    0.16839939392740688184E+00
    0.16718128626186432029E+00
    0.11877555472190529096E+00
    0.84966820805614884371E+00
    0.85307255513122171031E+00
    0.13279232389604650466E+00
    0.89370164696548448635E+00
    0.63335064859888590139E+00
    0.35093115209289355017E+00
    0.89952573255538448294E+00
    0.67279264721929121773E+00
    0.19208370389906870290E+00
    0.79019678176515328882E+00
    0.62984712885321048059E+00
    0.88778572456723459094E+00
    0.16485929332178775319E+00
    0.32536130257838358215E+00
    0.11615092282557430703E+00
    0.77792150329133136211E+00
    0.87064688354865693576E+00
    0.17512073155542876024E+00
    0.12203469724811738528E+00
    0.88097604045091804092E+00
    0.11466798027272313842E+00
    0.82291296504050759353E+00
    0.11297784350745090909E+00
    0.11321226122109603884E+00
    0.16030545760103795394E+00
    0.17591388250372946844E+00
    0.16591152043599605159E+00
    0.15783338585728914905E+00
    0.11642809573645232502E+00
    0.17656562931648100978E+00
    0.69274639884395927680E+00
    0.19161490104202741347E+00
    0.15744225288364036008E+00
    0.11307189402931693001E+00
    0.11297920079143411454E+00
    0.11298026969751208404E+00
    0.75369880631614816213E+00
    0.67222992389584590445E+00
    0.19983995144825894563E+00
    0.20185995696955311152E+00
    0.77328468019604912342E+00
    0.89264183964914955993E+00
    0.11431809358936048659E+00
    0.11297789601161425943E+00
    0.11298027184831070657E+00
    0.18523514573650379234E+00
    0.13411045463393139743E+00
    0.15925988632534809897E+00
    0.15251366840915520084E+00
    0.69813229477567861903E+00
    0.11814886336483236551E+00
    0.15840502926975286169E+00
    0.11515301463651729519E+00
    0.18803903221665319023E+00
    0.38913770706097061680E+00
    0.37963348201455621167E+00
    0.67298815350063789786E+00
    0.71996453529468407151E+00
    0.88749358604953088037E+00
    0.65931234511532432752E+00
    0.15537110037485077352E+00
    0.73564240528926183593E+00
    0.46922162411217882561E+00
    0.65624281027136499578E+00
    0.56401586535479819595E+00
    0.62688181231822504014E+00
    0.17477453709683984928E+00
    0.65262462686276379031E+00
    0.11301289975103241681E+00
    0.16547666843248778901E+00
    0.15928599871864404514E+00
    0.63070401034610190649E+00
    0.12055858527904422806E+00
    0.88033640759265352482E+00
    0.80113845028559260708E+00
    0.80769976230491302704E+00
    0.78114195559772769961E+00
    0.47641843765350017081E+00
    0.78867818151464963439E+00
    0.39808533804635559683E+00
    0.73782602211457060104E+00
    0.83042915098029035370E+00
    0.75892826676755353876E+00
    0.76661086239217368643E+00
    0.51152798813699440483E+00
    0.76572290106171625457E+00
    0.70487584584731011184E+00
    0.11301309046318203100E+00
    0.72676477401821537594E+00
    0.74568087118146575420E+00
    0.85224360320002612301E+00
    0.47110923665100329361E+00
    0.74136852334310243684E+00
    0.89678032431696175220E+00
    0.25054224194300239725E+00
    0.84241431755069473564E+00
    0.61248937161229799475E+00
    0.45340408292000938806E+00
    0.59498353129468461997E+00
    0.25343695717928305111E+00
    0.63808568111287644609E+00
    0.60012707400090925525E+00
    0.14930167922615991682E+00
    0.17171859003280390277E+00
    0.12088869913742933404E+00
    0.11869278509275142663E+00
    0.77706511675379308368E+00
    0.86484535455110422841E+00
    0.87811010223512964146E+00
    0.82236096996847574125E+00
    0.48715471663740272934E+00
    0.42209192926137811819E+00
    0.35168412231748052976E+00
    0.17279429113297672949E+00
    0.90133670020401790435E+00
    0.89910868049566905480E+00
    0.86720725407698429077E+00
    0.86888623811920295825E+00
    0.89254975699463556804E+00
    0.83352668458375245297E+00
    0.19964122200268183405E+00
    0.88356334605700559415E+00
    0.79208260235189154042E+00
    0.36503412519543904091E+00
    0.47157113723127058735E+00
    0.16584755366306028201E+00
    0.82947055092929589115E+00
    0.74046336613034380303E+00
    0.17988578933223001166E+00
    0.15007016085739727229E+00
    0.62740594293581741780E+00
    0.11754262926703097636E+00
    0.77849848631564633195E+00
    0.87520482746931105300E+00
    0.80953935052560122010E+00
    0.14867878039459847539E+00
    0.78918655669546244891E+00
    0.16113799663665592798E+00
    0.39402868834616844307E+00
    0.14617940235149085026E+00
    0.88917232364443576920E+00
    0.31598502816278767336E+00
    0.62712358611804430719E+00
    0.90313493499686170463E+00
    0.78698192264972266496E+00
    0.84337603708957387116E+00
    0.88634138830486897120E+00
    0.70035622792848728491E+00
    0.90379671020619178901E+00
    0.86226174245999365198E+00
    0.82655836681969974133E+00
    0.89678582422089436754E+00
    0.72145974735410478562E+00
    0.13303258679627361083E+00
    0.30451159815175299350E+00
    0.50535269641863900247E+00
    0.57477947451232547227E+00
    0.78721170701666542957E+00
    0.15909227774076670214E+00
    0.61810155923409226819E+00
    0.72686048142994241772E+00
    0.65320873437927429173E+00
    0.81992392001042224692E+00
    0.66306821932348103399E+00
    0.85692191859755961758E+00
    0.63322698209134231639E+00
    0.89767370732422224755E+00
    0.17415623502608187922E+00
    0.18110052075892182910E+00
    0.82246138572989746507E+00
    0.90009516398645161850E+00
    0.83280623852760149450E+00
    0.23206954067963739274E+00
    0.86299920432263677039E+00
    0.66792377063220775835E+00
    0.33065523340698294019E+00
    0.18354868610343513802E+00
    0.15544202449709321190E+00
    0.89874615525312706588E+00
    0.83291329588642148973E+00
    0.15249712435675971678E+00
    0.16217628670272643543E+00
    0.68315289498577524974E+00
    0.80207061715029259741E+00
    0.69769850127750376867E+00
    0.43503761774713484156E+00
    0.45376169730974480476E+00
    0.75625252448131552452E+00
    0.11861642538104523459E+00
    0.18971407353363042847E+00
    0.16769517925125537738E+00
    0.22782082466107017593E+00
    0.11829185534275277192E+00
    0.57412526803806918085E+00
    0.23183530319377085305E+00
    0.24300491360815118513E+00
    0.73707972759389772666E+00
    0.12376018006744443634E+00
    0.85447661330775837030E+00
    0.74678491681393499579E+00
    0.19600491528550834097E+00
    0.79305621431370809660E+00
    0.18250632177270931233E+00
    0.58443024614566085884E+00
    0.79779625962974431985E+00
    0.89482757787056810272E+00
    0.84128543937387834095E+00
    0.89971777235671068773E+00
    0.64910886657809863109E+00
    0.27564065798148185138E+00
    0.86331636917233400830E+00
    0.75950835419266593540E+00
    0.89084270276016808143E+00
    0.19560384280697132309E+00
    0.15059734498369992117E+00
    0.17625737573643421308E+00
    0.12067923661268768754E+00
    0.11567401794042471430E+00
    0.11298410844403615483E+00
    0.11307203394033446542E+00
    0.11348016378202922805E+00
    0.11325402274820917103E+00
    0.14551792745427996612E+00
    0.34012786965354602220E+00
    0.11345427388471004959E+00
    0.11870678699346869089E+00
    0.11297784252315079545E+00
    0.11298290727147260182E+00
    0.40024832131635584842E+00
    0.32454296155475004237E+00
    0.57821753617755300425E+00
    0.11297918634447468023E+00
    0.11388636013052041984E+00
    0.11776215205084243631E+00
    0.65206423817528769149E+00
    0.11298163488579682223E+00