# vtk DataFile Version 3.0
LAPLACIEN  2D
ASCII
DATASET UNSTRUCTURED_GRID
 POINTS        1083  float
  0.25752000000000003       0.83521000000000001        0.0000000000000000     
  0.26692436000000003       0.82361669999999998        0.0000000000000000     
  0.12755760999999999       0.37286407999999999        0.0000000000000000     
  0.16947000000000001       0.36312000000000000        0.0000000000000000     
  0.20556749999999999       0.30943999999999999        0.0000000000000000     
  0.19808000000000001       0.30240000000000000        0.0000000000000000     
  0.17829000000000000       0.29613000000000000        0.0000000000000000     
  0.16072427000000000       0.27611573000000000        0.0000000000000000     
  0.20518000000000000       0.25756000000000001        0.0000000000000000     
  0.14513182999999999       0.15495659000000001        0.0000000000000000     
  0.18475000000000000       0.25733000000000000        0.0000000000000000     
  0.15320000000000000       0.28981000000000001        0.0000000000000000     
   8.4010000000000001E-002  0.28726000000000002        0.0000000000000000     
  0.12066000000000000       0.31644000000000000        0.0000000000000000     
  0.15419146000000000       0.34997146000000001        0.0000000000000000     
   9.1609999999999997E-002  0.41126000000000001        0.0000000000000000     
   8.2839999999999997E-002  0.24906000000000000        0.0000000000000000     
  0.10719500000000000       0.24906000000000000        0.0000000000000000     
  0.10394500000000000       0.24026000000000000        0.0000000000000000     
  0.10306999999999999       0.16439999999999999        0.0000000000000000     
  0.20605000000000001        7.9089999999999994E-002   0.0000000000000000     
  0.42243181000000002       0.83768843000000004        0.0000000000000000     
  0.40538000000000002       0.78705000000000003        0.0000000000000000     
  0.42062500000000003       0.70743999999999996        0.0000000000000000     
  0.39167000000000002       0.62682000000000004        0.0000000000000000     
  0.38775999999999999       0.57162500000000005        0.0000000000000000     
  0.39058282000000000       0.54871530000000002        0.0000000000000000     
  0.39464117999999998       0.46212064000000003        0.0000000000000000     
  0.39241130000000002       0.45290363000000000        0.0000000000000000     
  0.38384000000000001       0.55516500000000002        0.0000000000000000     
  0.38069999999999998       0.59557000000000004        0.0000000000000000     
  0.36735092000000003       0.72975095999999995        0.0000000000000000     
  0.37138180999999998       0.84873708999999997        0.0000000000000000     
  0.31856716000000002       0.83411802999999995        0.0000000000000000     
  0.65566999999999998       0.71865999999999997        0.0000000000000000     
  0.62348499999999996       0.71865999999999997        0.0000000000000000     
  0.63253999999999999       0.72650000000000003        0.0000000000000000     
  0.63397590999999998       0.79238797000000005        0.0000000000000000     
  0.61133999999999999       0.77437999999999996        0.0000000000000000     
  0.58667000000000002       0.75475999999999999        0.0000000000000000     
  0.51746738999999997       0.83310978000000002        0.0000000000000000     
  0.51022000000000001       0.76192000000000004        0.0000000000000000     
  0.49914890000000001       0.74624727000000002        0.0000000000000000     
  0.50311967000000002       0.80879526000000002        0.0000000000000000     
  0.50158999999999998       0.83067000000000002        0.0000000000000000     
  0.46398766000000002       0.86013877000000005        0.0000000000000000     
  0.41615999999999997       0.37445000000000001        0.0000000000000000     
  0.43026551000000002       0.31678289999999998        0.0000000000000000     
  0.39694000000000002       0.24930500000000000        0.0000000000000000     
  0.41994211999999997       0.11642168999999999        0.0000000000000000     
  0.43478000000000000       0.10487000000000000        0.0000000000000000     
  0.57060999999999995       0.13406000000000001        0.0000000000000000     
  0.69662999999999997       0.19536999999999999        0.0000000000000000     
  0.71886000000000005       0.24690999999999999        0.0000000000000000     
  0.74097999999999997       0.33731000000000000        0.0000000000000000     
  0.72538453999999997       0.37890159000000001        0.0000000000000000     
  0.73320112000000004       0.40760169000000002        0.0000000000000000     
  0.70620000000000005       0.41999999999999998        0.0000000000000000     
  0.74504999999999999       0.48705999999999999        0.0000000000000000     
  0.68996999999999997       0.48530000000000001        0.0000000000000000     
  0.66213999999999995       0.47589999999999999        0.0000000000000000     
  0.63373000000000002       0.47414000000000001        0.0000000000000000     
  0.68861000000000006       0.55347000000000002        0.0000000000000000     
  0.62687669000000001       0.62714972999999996        0.0000000000000000     
  0.51632500000000003       0.26038000000000000        0.0000000000000000     
  0.66345008000000005       0.20335998999999999        0.0000000000000000     
  0.68430000000000002       0.34078999999999998        0.0000000000000000     
  0.59737622999999995       0.42491739000000001        0.0000000000000000     
  0.55410000000000004       0.41776999999999997        0.0000000000000000     
  0.52314000000000005       0.40723999999999999        0.0000000000000000     
  0.46111999999999997       0.32850000000000001        0.0000000000000000     
  0.67330999999999996       0.19785000000000000        0.0000000000000000     
  0.69296999999999997       0.22594000000000000        0.0000000000000000     
  0.40191943000000002       0.86367486999999998        0.0000000000000000     
  0.12271248000000000       0.14762657000000001        0.0000000000000000     
  0.14852475000000001       0.12337326999999999        0.0000000000000000     
  0.74936000000000003       0.44945000000000002        0.0000000000000000     
  0.61883999999999995       0.82247000000000003        0.0000000000000000     
  0.26941311000000001       0.82690965999999999        0.0000000000000000     
  0.14224880000000001       0.37582204000000002        0.0000000000000000     
  0.16781681000000001       0.35746910999999998        0.0000000000000000     
  0.38384000000000001       0.56583499999999998        0.0000000000000000     
  0.17475499999999999       0.26156499999999999        0.0000000000000000     
  0.16588214000000001       0.27095785999999999        0.0000000000000000     
  0.19754658000000000       0.25190794000000000        0.0000000000000000     
  0.18240999999999999       0.26306000000000002        0.0000000000000000     
  0.38775999999999999       0.58301250000000004        0.0000000000000000     
   9.2598787000000002E-002  0.28369930999999998        0.0000000000000000     
  0.12988000000000000       0.31154999999999999        0.0000000000000000     
  0.15971573000000000       0.35549573000000001        0.0000000000000000     
  0.43006250000000001       0.70743999999999996        0.0000000000000000     
  0.40538000000000002       0.77361250000000004        0.0000000000000000     
  0.42100500000000002       0.81830000000000003        0.0000000000000000     
  0.41854986000000000       0.69665306000000005        0.0000000000000000     
  0.38971499999999998       0.61060999999999999        0.0000000000000000     
  0.38773564999999999       0.45901181000000002        0.0000000000000000     
  0.39590059000000000       0.45441031999999998        0.0000000000000000     
  0.38384000000000001       0.54735250000000002        0.0000000000000000     
  0.36502704000000002       0.72473217000000001        0.0000000000000000     
  0.32337357999999999       0.82795901000000005        0.0000000000000000     
  0.70706773000000001       0.36044921000000002        0.0000000000000000     
  0.74097999999999997       0.35293500000000000        0.0000000000000000     
  0.74097999999999997       0.31773499999999999        0.0000000000000000     
  0.71235000000000004       0.23181499999999999        0.0000000000000000     
  0.58099500000000004       0.12427000000000001        0.0000000000000000     
  0.50926802999999998       0.81618526000000002        0.0000000000000000     
  0.39694000000000002       0.25951249999999998        0.0000000000000000     
  0.43692275000000003       0.32087145000000000        0.0000000000000000     
  0.41615999999999997       0.32374500000000000        0.0000000000000000     
  0.43379000000000001       0.30536999999999997        0.0000000000000000     
  0.56120943999999995       0.14292195999999999        0.0000000000000000     
  0.56101000000000001       0.12778999999999999        0.0000000000000000     
  0.72713519000000004       0.36131693999999998        0.0000000000000000     
  0.74289499999999997       0.49852000000000002        0.0000000000000000     
  0.70664000000000005       0.43221999999999999        0.0000000000000000     
  0.53013999999999994       0.41189999999999999        0.0000000000000000     
  0.54561999999999999       0.41584500000000002        0.0000000000000000     
  0.71071649000000003       0.55600200000000000        0.0000000000000000     
  0.67979000000000001       0.56306999999999996        0.0000000000000000     
  0.62555094000000000       0.62995129000000005        0.0000000000000000     
  0.66964504000000002       0.20812000000000000        0.0000000000000000     
  0.58421811000000001       0.42326870000000000        0.0000000000000000     
  0.59798264000000001       0.43157266000000000        0.0000000000000000     
  0.54939000000000004       0.42473000000000000        0.0000000000000000     
  0.52732000000000001       0.40139999999999998        0.0000000000000000     
[...]
 CELL_DATA        1963
 SCALARS Endothelial_cells float
 LOOKUP_TABLE default
    0.63661978531688534488E+00
    0.88326264964751532993E+00
    0.10262099950407885807E+01
    0.97545446574984562282E+00
    0.78596206769352916499E+00
    0.55057160631416068863E+00
    0.92520521782041897918E+00
    0.24016695859072736963E+00
    0.34259425924086978066E+00
    0.41125231635865377999E+00
    0.33572329545487916702E+00
    0.84752901936022728702E+00
    0.28035624786816676357E+00
    0.68134774946865939160E+00
    0.90031001466353244300E+00
    0.10825907922825594998E+01
    0.95506434719705235459E+00
    0.48693707503837435624E+00
    0.55975441850036022906E+00
    0.10454854274157039384E+01
    0.51027826359634198550E+00
    0.44784687832767583471E+00
    0.51144798407819647146E+00
    0.30392584696306179648E+00
    0.38166108216095040451E+00
    0.53787676878800549929E+00
    0.39186994685902548641E+00
    0.46600095073098840581E+00
    0.80601068456885438529E+00
    0.60046823602996979297E+00
    0.79620619032679829097E+00
    0.20026619641007528672E+00
    0.34687678413461958682E+00
    0.81004768009549332763E+00
    0.30636335086370836134E+00
    0.58500840303166079526E+00
    0.89588632260313372235E+00
    0.92273880600255064888E+00
    0.71716888209199214366E+00
    0.76378184763002654467E+00
    0.91340482883195528441E+00
    0.90534198129753495898E+00
    0.83051679067559758263E+00
    0.79289553081345576224E+00
    0.68133920951796722587E+00
    0.80236572237595238377E+00
    0.69085383943271960749E+00
    0.82066938325184324299E+00
    0.25639830695884302525E+00
    0.22696030831179336840E+00
    0.21169774810959007816E+00
    0.27558708040679996687E+00
    0.30366678317413531296E+00
    0.47905286641082256427E+00
    0.36089736866060290188E+00
    0.79786255478312717582E+00
    0.52090956749142514060E+00
    0.27644368680982789321E+00
    0.53039404298164893881E+00
    0.53166085788578998361E+00
    0.79750236399302742996E+00
    0.21590711034694415327E+00
    0.82622098590109760430E+00
    0.32139680775845957950E+00
    0.60765873075799992087E+00
    0.32504211524467668815E+00
    0.60463701474701625482E+00
    0.51602000222755217695E+00
    0.10883389896820139242E+01
    0.95866267177720965176E+00
    0.94989547402718599312E+00
    0.91528517332170244991E+00
    0.36082950024727955540E+00
    0.25270259257742067049E+00
    0.20044186763888932612E+00
    0.10255488162793016116E+01
    0.26661971029524006438E+00
    0.23705791693195879533E+00
    0.68930948206524855770E+00
    0.31097974186542803876E+00
    0.58918467805037810781E+00
    0.10315221662903859556E+01
    0.32969765104609538575E+00
    0.21529709633674268265E+00
    0.94799264781286529669E+00
    0.65492455121837700460E+00
    0.92915408469301674632E+00
    0.11198117438761361342E+01
    0.76162609277126247509E+00
    0.10590420886820313129E+01
    0.35655556282398959134E+00
    0.36972174081661873801E+00
    0.31777412944575805787E+00
    0.57016835458313541718E+00
    0.36132308906552834671E+00
    0.44260911678650305401E+00
    0.70786461214246942930E+00
    0.52563026200300799751E+00
    0.42943643597107444831E+00
    0.33389293525985125344E+00
    0.28648687121451676951E+00
    0.35564555311772833024E+00
    0.51565868168145290173E+00
    0.59185539349496707473E+00
    0.38155678681412114051E+00
    0.32892543237167437553E+00
    0.53888805590843280591E+00
    0.30296721926753805709E+00
    0.44072397397389789786E+00
    0.35704334446481023058E+00
    0.82752574074618467925E+00
    0.70954286237057617726E+00
    0.57821744283423515132E+00
    0.44065251253144971377E+00
    0.82527862623318493096E+00
    0.62778138631612090403E+00
    0.53902151938440712176E+00
    0.78221281422281752072E+00
    0.70266031473583767664E+00
    0.67606544993712147651E+00
    0.64144849013650384606E+00
    0.75012088589865821842E+00
    0.62895826306688418228E+00
    0.79230065298216201253E+00
    0.54907581857120468793E+00
    0.55968865759510022517E+00
    0.25370427609697199234E+00
    0.47910104968396799441E+00
    0.30396544569600786323E+00
    0.40216138369451953638E+00
    0.59340678996421269975E+00
    0.65067238387329107141E+00
    0.59242941490110956337E+00
    0.45932656558519813217E+00
    0.55648770384353019036E+00
    0.81201437353359562366E+00
    0.36075947085649001655E+00
    0.72742378372877691817E+00
    0.55718350939576222203E+00
    0.37007850298519312515E+00
    0.71337027614031411904E+00
    0.10131110922989801093E+01
    0.76569902518330390517E+00
    0.80563759989242755832E+00
    0.35509706130134377489E+00
    0.37128629374619076531E+00
    0.11629309654737711721E+01
    0.37967429428403570713E+00
    0.38825348270594700617E+00
    0.11627818533901876918E+01
    0.10208888222431968806E+01
    0.37123562600074716533E+00
    0.88197421220066496428E+00
    0.86731308780338911557E+00
    0.48495526267348049165E+00
    0.41098678957374751297E+00
    0.39352611220102073908E+00
    0.39794955705431195314E+00
    0.10566662975464018448E+01
    0.46990584973432031335E+00
    0.10417710646177218425E+01
    0.43072096236571250083E+00
    0.89243992266918803491E+00
    0.38206253902058673333E+00
    0.25954226169883243269E+00
    0.99262841352342878753E+00
    0.27630103022712682037E+00
    0.17439631659010254583E+00
    0.34338351984605836043E+00
    0.68970107192129981311E+00
    0.39640519478202312920E+00
    0.11387438318202216525E+01
    0.11826034016161988127E+01
    0.10504287031670025421E+01
    0.11660421109993064359E+01
    0.38448771474856568986E+00
    0.47005425079025181523E+00
    0.11821641444043617941E+01
    0.11661574089694235479E+01
    0.10403841117966563523E+01
    0.40014177108169929342E+00
    0.40689667377504490364E+00
    0.11082281952547126114E+01
    0.11452423391877075698E+01
    0.54683504777788238815E+00
    0.61020577377922324835E+00
    0.55874456641055580963E+00
    0.10663790233548200437E+01
    0.59554724876956455226E+00
    0.10784467519469715935E+01
    0.34512360278916404122E+00
    0.39655109287372369842E+00
    0.47631602066628864200E+00
    0.60118255044173674051E+00
    0.85189397243924913639E+00
    0.28893748842577232638E+00
    0.66751384307087591186E+00
    0.98154089143192169153E+00
    0.83062951647411142897E+00
    0.74510603703590783109E+00
    0.40008816642334249503E+00
    0.14826278151407848438E+00
    0.50668258760685813691E+00
    0.67396458285618165984E+00
    0.52987189228137110408E+00
    0.19209219299750274201E+00
    0.39989349266541002192E+00
    0.11814702133020886787E+01
    0.22948288767889887807E+00
    0.97916084957279969636E+00
    0.56566493585688359946E+00
    0.54295708376371232262E+00
    0.39853592514220320675E+00
    0.54392546382158546425E+00
    0.41785819988892164423E+00
    0.73043373302718928031E+00
    0.74954481314672793957E+00
    0.73414917354241226999E+00
    0.39909290057104024330E+00
    0.60303526017650743718E+00
    0.63731721370638394486E+00
    0.29859559158026455217E+00
    0.67388554718961579670E+00
    0.56059112065347760367E+00
    0.41409677333672856303E+00
    0.25923001715716492699E+00
    0.39513717276102172660E+00
    0.80817404393679559416E+00
    0.25726079674978535872E+00
    0.19895132178206600959E+00
    0.84227299905352726039E+00
    0.52261627128102061679E+00
    0.75334532621613559122E+00
    0.46938826233329505877E+00
    0.21882062827063941679E+00
    0.24490014394739029191E+00
    0.15102329660679625345E+00
    0.70546391766190885697E+00
    0.56971041239174891047E+00
    0.70257257245256843348E+00
    0.63013320123530824901E+00
    0.51619106811472992291E+00
    0.48247013219933476691E+00
    0.54872648201627061137E+00
    0.28489078118311983445E+00
    0.88364210435287915413E+00
    0.24101917729342320351E+00
    0.64944709511296039306E+00
    0.65682865723811068026E+00
    0.61512218653340644536E+00
    0.17128080686821745005E+00
    0.27652023871083791784E+00
    0.15100501871235114115E+00
    0.10847201313403302958E+01
    0.10058089077888241469E+01
    0.17014406851105551288E+00
    0.10250923519981245402E+01
    0.19551755422851516131E+00
    0.14799712278215387817E+00
    0.14799709336048677555E+00
    0.14799709248659526084E+00
    0.19959502775561163701E+00
    0.14800003510799894513E+00
    0.14799709547679198995E+00
    0.10026570321077770132E+01
    0.54656462694488072707E+00
    0.97709187661639540501E+00
    0.39995536343498089282E+00
    0.87236445618249314204E+00
    0.10255120543975291270E+01
    0.40005196727838704396E+00
    0.96540006867498395771E+00
    0.39995577416442967822E+00
    0.94572133386047096959E+00
    0.10187974173472467143E+01
    0.16325602786015513956E+00
    0.39999400386922190354E+00
    0.35582678140553303248E+00
    0.10131856940956205371E+01
    0.14799719403178762667E+00
    0.39994257517788883716E+00
    0.68466343081382918800E+00
    0.26593839561138049588E+00
    0.80813196057268132932E+00
    0.99319402825958202907E+00
    0.76322497545581535761E+00
    0.39949201772373771346E+00
    0.10960250611497968087E+01
    0.10789590965530044819E+01
    0.10155064128075037555E+01
    0.84214346958479402439E+00
    0.37925467466167445130E+00
    0.38135944526678416944E+00
    0.93734543108051371352E+00
    0.46529564534945572207E+00
    0.84916490177028702835E+00
    0.35318234991177188675E+00
    0.87022717710877617314E+00
    0.55793242297667622331E+00
    0.87642543388140470295E+00
    0.10760329249567304188E+01
    0.94638673991484323356E+00
    0.40003778116393823305E+00
    0.91138557704193212672E+00
    0.98446723375681977064E+00
    0.39991100132922202670E+00
    0.83856735117245140287E+00
    0.73297591636617487332E+00
    0.41253541896750445250E+00
    0.36986955739038568369E+00
    0.87350983841410745345E+00
    0.79418005777069644591E+00
    0.28866632008134834875E+00
    0.10486181849767199914E+01
    0.60843620999655723125E+00
    0.94922393124567860934E+00
    0.83748599014047309108E+00
    0.40015208365508497801E+00
    0.34852760771065188772E+00
    0.81432878848342282740E+00
    0.35083719550879627347E+00
    0.34627549964704729124E+00
    0.36955798291910263442E+00
    0.36066758712253377261E+00
    0.92974679544852323332E+00
    0.38479329920895122275E+00
    0.90513097387323915299E+00
    0.90480754850519973242E+00
    0.34023801345906146132E+00
    0.24903151917512170166E+00
    0.89473276263507517392E+00
    0.80562500571493855794E+00
    0.78393627830102263765E+00
    0.74597656246068455577E+00
    0.84361871638766761095E+00
    0.83708721317857237576E+00
    0.16816834331529312285E+00
    0.83457669263333811305E+00
    0.64108152845295995892E+00
    0.68460760732850634014E+00
    0.32076319503431410807E+00
    0.30176090524025173112E+00
    0.73880866850295867643E+00
    0.28837509296452978891E+00
    0.65281838999410324309E+00
    0.27771138678884760287E+00
    0.15708543767075647257E+00
    0.21884312081062248789E+00
    0.76069097551387576672E+00
    0.81049402307893647635E+00
    0.59337386648224577090E+00
    0.39222316800734863262E+00
    0.47127391196898477110E+00
    0.54629020103411407572E+00
    0.94280802337327063167E+00
    0.11038377178634468656E+01
    0.10218843019428738295E+01
    0.75160212765602862905E+00
    0.10478228454318965213E+01
    0.10468775024108014637E+01
    0.80783112624549502367E+00
    0.67720642888068360854E+00
    0.62538482068496348276E+00
    0.84562252924157610412E+00
    0.81677749814113154159E+00
    0.52650041483273135601E+00
    0.91061631418507160696E+00
    0.91889670763347397475E+00
    0.54531262077283026990E+00
    0.29973327554949308338E+00
    0.11569082517585755898E+01
    0.11279202164134209951E+01
    0.90623699062745310950E+00
    0.10147470996511775976E+01
    0.67203938112649441727E+00
    0.62766117062401460824E+00
    0.92902821766700727224E+00
    0.29210499450211235839E+00
    0.89296824145206932233E+00
    0.48692002669747869170E+00
    0.32496212275824870597E+00
    0.10454774522418210925E+01
    0.90208955950118685507E+00
    0.10107958838337580687E+01
    0.10138125281633003638E+01
    0.61999357881695993377E+00
    0.30032967998282866784E+00
    0.39987674950103663241E+00
    0.29816182267376367676E+00
    0.75467177287953068898E+00
    0.87230252758441362282E+00
    0.80687063308995221611E+00
    0.27013181032274613536E+00
    0.91671108632954267925E+00
    0.24585238694859382069E+00
    0.19868175031339621595E+00
    0.57441517788494633745E+00
    0.49562380738483591269E+00
    0.18913060104216986024E+00
    0.68732458247245353800E+00
    0.31602502763153228482E+00
    0.30524782590125998372E+00
    0.69116768351601376441E+00
    0.28271406709894125742E+00
    0.30958699079149987199E+00
    0.20172406041439860935E+00
    0.10268138620290150342E+01
    0.10207686914003522016E+01
    0.26947340633172528479E+00
    0.10995717399730706720E+01
    0.62108273302119709758E+00
    0.57611948598343998285E+00
    0.11385311234099142474E+01
    0.76439552346012340500E+00
    0.36121247223943941940E+00
    0.89975672756596736246E+00
    0.57219644132169944495E+00
    0.10843611094249165916E+01
    0.27326446194654824273E+00
    0.45857901915874321741E+00
    0.17032582546755253849E+00
    0.81512005464059666959E+00
    0.97309370958511398619E+00
    0.31436617900252145086E+00
    0.21256698956361971820E+00
    0.89985554681454049675E+00
    0.15900357730180092464E+00
    0.88650475074533130471E+00
    0.14799763507452295963E+00
    0.15234331356892474862E+00
    0.23316447363809988946E+00
    0.28576534259660546500E+00
    0.23809433462690698935E+00
    0.22495553718019645206E+00
    0.17788272768969379256E+00
    0.32341096493289783753E+00
    0.52374698288489640596E+00
    0.39468517618817150483E+00
    0.23489199707446314913E+00
    0.15022726658901913721E+00
    0.14812102030765278426E+00
    0.14816125533340734899E+00
    0.68799951281960336491E+00
    0.59569737568874314704E+00
    0.41360817561944507315E+00
    0.40533883738596498958E+00
    0.70546932953121843646E+00
    0.10928542534075886827E+01
    0.15835803636954401408E+00
    0.14800862363334996163E+00
    0.14813313111937945199E+00
    0.34720757170346627785E+00
    0.26664631616803996517E+00
    0.24649700166823790282E+00
    0.20051285803070145741E+00
    0.62020426699361996814E+00
    0.18704731824609549529E+00
    0.20496310568287975928E+00
    0.16481803031051336927E+00
    0.34199207435950984557E+00
    0.33622835829276037645E+00
    0.39967957847574731023E+00
    0.39913002766159233481E+00
    0.39995716170165784842E+00
    0.10854342018232481237E+01
    0.38700633055550626160E+00
    0.31245473500486042884E+00
    0.40003127407057625931E+00
    0.31110281852414806147E+00
    0.40009303902280035636E+00
    0.34903911849837299108E+00
    0.38372599378413135840E+00
    0.25137633155288663378E+00
    0.40015075973021146938E+00
    0.14874520568805527088E+00
    0.24266215557038628425E+00
    0.23498487070220372419E+00
    0.65664540687432693122E+00
    0.20723727680470396817E+00
    0.10112585198280723553E+01
    0.89154867662710357568E+00
    0.81905134959465397682E+00
    0.75906193970500412949E+00
    0.39972625451000232122E+00
    0.86604945190965820778E+00
    0.60812324757549041099E+00
    0.66212132320537397945E+00
    0.88333551021588929686E+00
    0.82346090711199160239E+00
    0.67215198664212760793E+00
    0.40007151935054913183E+00
    0.82877801301466336170E+00
    0.39976337074277845662E+00
    0.14955982373259982254E+00
    0.63688327916759890357E+00
    0.84939654645358286800E+00
    0.10369310489018732646E+01
    0.64392341251326312701E+00
    0.84269186900780768124E+00
    0.11200813589015166105E+01
    0.49917301982325196219E+00
    0.99568391390844912525E+00
    0.57019109686325686326E+00
    0.31591429572307710982E+00
    0.47541223866541493237E+00
    0.51031851407786621433E+00
    0.71285229068675171060E+00
    0.65347235372601075731E+00
    0.24725241079231513597E+00
    0.33807446232861465552E+00
    0.21051943177812218466E+00
    0.20006880080540273559E+00
    0.91349322529380794222E+00
    0.99878596564199340069E+00
    0.10285140735489308739E+01
    0.94821330942114001594E+00
    0.61472913737115919552E+00
    0.41096672695438180023E+00
    0.66867207924970761823E+00
    0.36799981881519533422E+00
    0.11633949611107290423E+01
    0.11471689464343484133E+01
    0.10968655630957238056E+01
    0.95392288211964981759E+00
    0.11068193310943259533E+01
    0.10133460220461585344E+01
    0.43272873943444256639E+00
    0.10238423488288088681E+01
    0.84803087833043599986E+00
    0.60217722159154096762E+00
    0.38202375372674074461E+00
    0.26571213696757650657E+00
    0.91689667044724632028E+00
    0.67785805621374684016E+00
    0.32441003801078621693E+00
    0.23094478775835008966E+00
    0.69886681499122438321E+00
    0.18675495395695568268E+00
    0.81774752525314409191E+00
    0.99337912361630220648E+00
    0.87295685695739189125E+00
    0.27825509436443751632E+00
    0.88297099398342704379E+00
    0.30598778387731101480E+00
    0.62136688715865950883E+00
    0.26830466406068814722E+00
    0.10900081305662059350E+01
    0.61860790880922711388E+00
    0.40023191453453582644E+00
    0.11708379112386393395E+01
    0.94474612501325594405E+00
    0.10360160268154294805E+01
    0.10827200725805750103E+01
    0.80175780319936185148E+00
    0.11822253055357894169E+01
    0.10687674054625084796E+01
    0.92686930421197544216E+00
    0.11373045048665348933E+01
    0.40019125746831851753E+00
    0.29124792634958712734E+00
    0.58963618577520682251E+00
    0.52073049216224776004E+00
    0.39991013565046129585E+00
    0.75916530719927433069E+00
    0.21354543587097049584E+00
    0.73247356256780937755E+00
    0.76699893282053877019E+00
    0.53513711302275879245E+00
    0.80930611955667097757E+00
    0.55971605206664232224E+00
    0.40014523238154270368E+00
    0.54330756949602743155E+00
    0.70888400181317212656E+00
    0.33822751672633161180E+00
    0.43461135282666013557E+00
    0.64848005845849054918E+00
    0.72378641712054447854E+00
    0.58583139088028524100E+00
    0.50643539692821515352E+00
    0.61453810754165161256E+00
    0.39999926592889262222E+00
    0.44262507083633934046E+00
    0.40011503368927936464E+00
    0.40010756357175347731E+00
    0.65395950390567370025E+00
    0.65280169898738826806E+00
    0.25762253854039907086E+00
    0.39990085205023173653E+00
    0.39980913204569318298E+00
    0.39983186231521011811E+00
    0.40004481075772851950E+00
    0.39994784810889438820E+00
    0.40002583680654002496E+00
    0.39991872438338005313E+00
    0.39991848208203634174E+00
    0.40013192572223121868E+00
    0.39957620811936517269E+00
    0.40022329393973948841E+00
    0.40014005827238824375E+00
    0.40005978353892523991E+00
    0.40031183991181740200E+00
    0.40007158226931660572E+00
    0.40003944741405206287E+00
    0.40022365976258339471E+00
    0.40008148455297615209E+00
    0.39993593887267436804E+00
    0.39986241948254713785E+00
    0.40006278860583194268E+00
    0.40020987788169626320E+00
    0.39979178418108934912E+00
    0.52576849349089149754E+00
    0.57073356454047485808E+00
    0.46597059899046516795E+00
    0.53547247842911582794E+00
    0.40025843654597531573E+00
    0.42138817812630363635E+00
    0.44288004117575152652E+00
    0.40743932450163233838E+00
    0.49432098157184112264E+00
    0.46676199358415260132E+00
    0.29590025473570313874E+00
    0.40021888404963523733E+00
    0.41107371354266764030E+00
    0.39980591547534083396E+00
    0.60483147929663039211E+00
    0.41205241887961263636E+00
    0.66464572330942206513E+00
    0.40027508899263530839E+00
    0.48179854488191559136E+00
    0.39972793064515094175E+00
    0.88329235433477659711E+00
    0.63126835933162128711E+00
    0.15223080412661035843E+00
    0.86913835096774405553E+00
    0.44245922287945882445E+00
    0.40041302891793284502E+00
    0.39978729702622950448E+00
    0.66218183567677357804E+00
    0.11988483114640118288E+01
    0.39985591767753586590E+00
    0.64661759181590150458E+00
    0.83235212320525475693E+00