# vtk DataFile Version 3.0
LAPLACIEN  2D
ASCII
DATASET UNSTRUCTURED_GRID
 POINTS        1083  float
  0.25752000000000003       0.83521000000000001        0.0000000000000000     
  0.26692436000000003       0.82361669999999998        0.0000000000000000     
  0.12755760999999999       0.37286407999999999        0.0000000000000000     
  0.16947000000000001       0.36312000000000000        0.0000000000000000     
  0.20556749999999999       0.30943999999999999        0.0000000000000000     
  0.19808000000000001       0.30240000000000000        0.0000000000000000     
  0.17829000000000000       0.29613000000000000        0.0000000000000000     
  0.16072427000000000       0.27611573000000000        0.0000000000000000     
  0.20518000000000000       0.25756000000000001        0.0000000000000000     
  0.14513182999999999       0.15495659000000001        0.0000000000000000     
  0.18475000000000000       0.25733000000000000        0.0000000000000000     
  0.15320000000000000       0.28981000000000001        0.0000000000000000     
   8.4010000000000001E-002  0.28726000000000002        0.0000000000000000     
  0.12066000000000000       0.31644000000000000        0.0000000000000000     
  0.15419146000000000       0.34997146000000001        0.0000000000000000     
   9.1609999999999997E-002  0.41126000000000001        0.0000000000000000     
   8.2839999999999997E-002  0.24906000000000000        0.0000000000000000     
  0.10719500000000000       0.24906000000000000        0.0000000000000000     
  0.10394500000000000       0.24026000000000000        0.0000000000000000     
  0.10306999999999999       0.16439999999999999        0.0000000000000000     
  0.20605000000000001        7.9089999999999994E-002   0.0000000000000000     
  0.42243181000000002       0.83768843000000004        0.0000000000000000     
  0.40538000000000002       0.78705000000000003        0.0000000000000000     
  0.42062500000000003       0.70743999999999996        0.0000000000000000     
  0.39167000000000002       0.62682000000000004        0.0000000000000000     
  0.38775999999999999       0.57162500000000005        0.0000000000000000     
  0.39058282000000000       0.54871530000000002        0.0000000000000000     
  0.39464117999999998       0.46212064000000003        0.0000000000000000     
  0.39241130000000002       0.45290363000000000        0.0000000000000000     
  0.38384000000000001       0.55516500000000002        0.0000000000000000     
  0.38069999999999998       0.59557000000000004        0.0000000000000000     
  0.36735092000000003       0.72975095999999995        0.0000000000000000     
  0.37138180999999998       0.84873708999999997        0.0000000000000000     
  0.31856716000000002       0.83411802999999995        0.0000000000000000     
  0.65566999999999998       0.71865999999999997        0.0000000000000000     
  0.62348499999999996       0.71865999999999997        0.0000000000000000     
  0.63253999999999999       0.72650000000000003        0.0000000000000000     
  0.63397590999999998       0.79238797000000005        0.0000000000000000     
  0.61133999999999999       0.77437999999999996        0.0000000000000000     
  0.58667000000000002       0.75475999999999999        0.0000000000000000     
  0.51746738999999997       0.83310978000000002        0.0000000000000000     
  0.51022000000000001       0.76192000000000004        0.0000000000000000     
  0.49914890000000001       0.74624727000000002        0.0000000000000000     
  0.50311967000000002       0.80879526000000002        0.0000000000000000     
  0.50158999999999998       0.83067000000000002        0.0000000000000000     
  0.46398766000000002       0.86013877000000005        0.0000000000000000     
  0.41615999999999997       0.37445000000000001        0.0000000000000000     
  0.43026551000000002       0.31678289999999998        0.0000000000000000     
  0.39694000000000002       0.24930500000000000        0.0000000000000000     
  0.41994211999999997       0.11642168999999999        0.0000000000000000     
  0.43478000000000000       0.10487000000000000        0.0000000000000000     
  0.57060999999999995       0.13406000000000001        0.0000000000000000     
  0.69662999999999997       0.19536999999999999        0.0000000000000000     
  0.71886000000000005       0.24690999999999999        0.0000000000000000     
  0.74097999999999997       0.33731000000000000        0.0000000000000000     
  0.72538453999999997       0.37890159000000001        0.0000000000000000     
  0.73320112000000004       0.40760169000000002        0.0000000000000000     
  0.70620000000000005       0.41999999999999998        0.0000000000000000     
  0.74504999999999999       0.48705999999999999        0.0000000000000000     
  0.68996999999999997       0.48530000000000001        0.0000000000000000     
  0.66213999999999995       0.47589999999999999        0.0000000000000000     
  0.63373000000000002       0.47414000000000001        0.0000000000000000     
  0.68861000000000006       0.55347000000000002        0.0000000000000000     
  0.62687669000000001       0.62714972999999996        0.0000000000000000     
  0.51632500000000003       0.26038000000000000        0.0000000000000000     
  0.66345008000000005       0.20335998999999999        0.0000000000000000     
  0.68430000000000002       0.34078999999999998        0.0000000000000000     
  0.59737622999999995       0.42491739000000001        0.0000000000000000     
  0.55410000000000004       0.41776999999999997        0.0000000000000000     
  0.52314000000000005       0.40723999999999999        0.0000000000000000     
  0.46111999999999997       0.32850000000000001        0.0000000000000000     
  0.67330999999999996       0.19785000000000000        0.0000000000000000     
  0.69296999999999997       0.22594000000000000        0.0000000000000000     
  0.40191943000000002       0.86367486999999998        0.0000000000000000     
  0.12271248000000000       0.14762657000000001        0.0000000000000000     
  0.14852475000000001       0.12337326999999999        0.0000000000000000     
  0.74936000000000003       0.44945000000000002        0.0000000000000000     
  0.61883999999999995       0.82247000000000003        0.0000000000000000     
  0.26941311000000001       0.82690965999999999        0.0000000000000000     
  0.14224880000000001       0.37582204000000002        0.0000000000000000     
  0.16781681000000001       0.35746910999999998        0.0000000000000000     
  0.38384000000000001       0.56583499999999998        0.0000000000000000     
  0.17475499999999999       0.26156499999999999        0.0000000000000000     
  0.16588214000000001       0.27095785999999999        0.0000000000000000     
  0.19754658000000000       0.25190794000000000        0.0000000000000000     
  0.18240999999999999       0.26306000000000002        0.0000000000000000     
  0.38775999999999999       0.58301250000000004        0.0000000000000000     
   9.2598787000000002E-002  0.28369930999999998        0.0000000000000000     
  0.12988000000000000       0.31154999999999999        0.0000000000000000     
  0.15971573000000000       0.35549573000000001        0.0000000000000000     
  0.43006250000000001       0.70743999999999996        0.0000000000000000     
  0.40538000000000002       0.77361250000000004        0.0000000000000000     
  0.42100500000000002       0.81830000000000003        0.0000000000000000     
  0.41854986000000000       0.69665306000000005        0.0000000000000000     
  0.38971499999999998       0.61060999999999999        0.0000000000000000     
  0.38773564999999999       0.45901181000000002        0.0000000000000000     
  0.39590059000000000       0.45441031999999998        0.0000000000000000     
  0.38384000000000001       0.54735250000000002        0.0000000000000000     
  0.36502704000000002       0.72473217000000001        0.0000000000000000     
  0.32337357999999999       0.82795901000000005        0.0000000000000000     
  0.70706773000000001       0.36044921000000002        0.0000000000000000     
  0.74097999999999997       0.35293500000000000        0.0000000000000000     
  0.74097999999999997       0.31773499999999999        0.0000000000000000     
  0.71235000000000004       0.23181499999999999        0.0000000000000000     
  0.58099500000000004       0.12427000000000001        0.0000000000000000     
  0.50926802999999998       0.81618526000000002        0.0000000000000000     
  0.39694000000000002       0.25951249999999998        0.0000000000000000     
  0.43692275000000003       0.32087145000000000        0.0000000000000000     
  0.41615999999999997       0.32374500000000000        0.0000000000000000     
  0.43379000000000001       0.30536999999999997        0.0000000000000000     
  0.56120943999999995       0.14292195999999999        0.0000000000000000     
  0.56101000000000001       0.12778999999999999        0.0000000000000000     
  0.72713519000000004       0.36131693999999998        0.0000000000000000     
  0.74289499999999997       0.49852000000000002        0.0000000000000000     
  0.70664000000000005       0.43221999999999999        0.0000000000000000     
  0.53013999999999994       0.41189999999999999        0.0000000000000000     
  0.54561999999999999       0.41584500000000002        0.0000000000000000     
  0.71071649000000003       0.55600200000000000        0.0000000000000000     
  0.67979000000000001       0.56306999999999996        0.0000000000000000     
  0.62555094000000000       0.62995129000000005        0.0000000000000000     
  0.66964504000000002       0.20812000000000000        0.0000000000000000     
  0.58421811000000001       0.42326870000000000        0.0000000000000000     
  0.59798264000000001       0.43157266000000000        0.0000000000000000     
  0.54939000000000004       0.42473000000000000        0.0000000000000000     
  0.52732000000000001       0.40139999999999998        0.0000000000000000     
[...]
 CELL_DATA        1963
 SCALARS Nutrients float
 LOOKUP_TABLE default
    0.16941477327619335114E+02
    0.17022498855511543070E+02
    0.17095242158997965731E+02
    0.17085797446338428784E+02
    0.16998799684241159724E+02
    0.14206709660160861119E+02
    0.17023869693737324837E+02
    0.16840962615992843610E+02
    0.16794226329795638009E+02
    0.15915778232363274824E+02
    0.16353431670970149270E+02
    0.17159803847745660477E+02
    0.86420598891821907017E+01
    0.16699927646259755676E+02
    0.17202434727973265893E+02
    0.17262703499544620911E+02
    0.17227030868969297472E+02
    0.16848407097468342641E+02
    0.16967214847359798569E+02
    0.17302522841949397048E+02
    0.16741301495905442920E+02
    0.16486990770283501462E+02
    0.15661774570897808445E+02
    0.15627626578234066201E+02
    0.16546182620780534478E+02
    0.15920336073880257288E+02
    0.16075971783767741385E+02
    0.16296345720064731921E+02
    0.16844033019810325413E+02
    0.15506491113372360857E+02
    0.17195726747824224390E+02
    0.84709048208031632043E+01
    0.17434705137280630538E+02
    0.17644751221636756355E+02
    0.16180570610134953569E+02
    0.17643668711568619045E+02
    0.17960874693978990280E+02
    0.17918212961609810918E+02
    0.18149747993514630195E+02
    0.18293457753044034320E+02
    0.17983562167996900882E+02
    0.17237429420423872273E+02
    0.17198972317379499941E+02
    0.17911814090477506056E+02
    0.16604721926598525528E+02
    0.18012553961532301372E+02
    0.18687904194726389306E+02
    0.16826676784348208571E+02
    0.15362940285372468807E+02
    0.16055535863373819438E+02
    0.15029851902600070090E+02
    0.14886811751063893539E+02
    0.15752967284128802206E+02
    0.16271233690440393360E+02
    0.14744588534240888222E+02
    0.15802608183112061724E+02
    0.14481509684494223933E+02
    0.14757118336199814834E+02
    0.14103574261447715088E+02
    0.14564298809506514232E+02
    0.16144298756362086777E+02
    0.14983798204018539124E+02
    0.16518381727428366190E+02
    0.14930181607381149078E+02
    0.18231333875783523268E+02
    0.17107813504565566376E+02
    0.13701733602012613034E+02
    0.14462636703501688729E+02
    0.17307813237879418722E+02
    0.17253186486800327515E+02
    0.17442902128081733792E+02
    0.17343066025301673960E+02
    0.16954836746870594055E+02
    0.94129500345184862198E+01
    0.15849890743853988440E+02
    0.17170072528662426947E+02
    0.16213950747877813541E+02
    0.15964813474943740701E+02
    0.15483833060057502706E+02
    0.16786142398802180509E+02
    0.15412907903891213124E+02
    0.17183354956393657176E+02
    0.16305353702155333195E+02
    0.16344303275868767855E+02
    0.17441279247213511638E+02
    0.17242011492923897009E+02
    0.17540347399412805629E+02
    0.17657135453776827916E+02
    0.17276585570098522027E+02
    0.17545261751789308136E+02
    0.15934624885193436228E+02
    0.15914334428954285627E+02
    0.16404928953456995089E+02
    0.16792617595857574742E+02
    0.15723258856996526589E+02
    0.17130474979679011227E+02
    0.15301427892337860825E+02
    0.16771963105612197609E+02
    0.17024097375639804852E+02
    0.15830756670642722739E+02
    0.15461698251424419226E+02
    0.16321039133305497160E+02
    0.15068326068967271780E+02
    0.15613121229570213089E+02
    0.14801483108287955659E+02
    0.14992317662634780717E+02
    0.14768054038474337730E+02
    0.15238753713390979172E+02
    0.13913427040949910563E+02
    0.14571179122521872529E+02
    0.13479838189856602426E+02
    0.14000416953374024587E+02
    0.13596228055604090201E+02
    0.14469459792175221935E+02
    0.13231212046714993846E+02
    0.14299388342299545585E+02
    0.15208934463178293228E+02
    0.13773770954009657785E+02
    0.14670343181361435114E+02
    0.14827771532840651858E+02
    0.14618371829523473693E+02
    0.15016518470957249676E+02
    0.14733129383226032161E+02
    0.15099453105602803404E+02
    0.12981204193060095875E+02
    0.13941216855803499897E+02
    0.13733535479654726430E+02
    0.14439972683200066328E+02
    0.12722763367869783124E+02
    0.14518969713613698147E+02
    0.13024207592675606904E+02
    0.14344130973721998856E+02
    0.13724689732274855558E+02
    0.13624407704532144336E+02
    0.12843801284312073463E+02
    0.15193846680173310304E+02
    0.14398204813423154391E+02
    0.15299710018219494501E+02
    0.14482631269883652791E+02
    0.85758430379935450816E+01
    0.19366739795320743411E+02
    0.21439059647926711705E+02
    0.18913990508923951950E+02
    0.19533384474625663074E+02
    0.19382058181255068519E+02
    0.14177821674573328536E+02
    0.22419635595464690425E+02
    0.13860923251319828609E+02
    0.20498101057191238539E+02
    0.22660719556024773169E+02
    0.21453880544731003255E+02
    0.20322534075283499533E+02
    0.18795826710385696856E+02
    0.21012531486857518814E+02
    0.96512251767718133522E+01
    0.20267993015381417621E+02
    0.18689104420683019470E+02
    0.18959496550096066159E+02
    0.18047066655713617678E+02
    0.18422275425024949413E+02
    0.18227177935775348061E+02
    0.18455662566454634543E+02
    0.18314345749666518515E+02
    0.19182991411540143645E+02
    0.16000693348999245558E+02
    0.18080306717577578013E+02
    0.17511120288588045923E+02
    0.16141878708643318419E+02
    0.18298190869402851888E+02
    0.18844201311273707233E+02
    0.19200344204242981050E+02
    0.17880441080259053876E+02
    0.23458410225193635057E+02
    0.17899528591414295420E+02
    0.22969610291464078955E+02
    0.14295838783930715721E+02
    0.20667645987500410598E+02
    0.23463508169970218376E+02
    0.22721861793605516056E+02
    0.20287966571987048781E+02
    0.14794149920812850851E+02
    0.11729795659558895693E+02
    0.20132405852128204771E+02
    0.21310686440498983529E+02
    0.19456277337281129292E+02
    0.20670206313873400461E+02
    0.19568834354762135064E+02
    0.21748192351412935608E+02
    0.13861093405677390678E+02
    0.19812017076518039005E+02
    0.18509286904795235529E+02
    0.19864397096794391473E+02
    0.17452233500266935096E+02
    0.18476511859558975459E+02
    0.19668104691222140445E+02
    0.17201822994180943738E+02
    0.19006074415018797907E+02
    0.19719283489741165738E+02
    0.17532421723861350671E+02
    0.18350509864849268382E+02
    0.15573781583495254210E+02
    0.12644729480225255003E+02
    0.18462990475330336437E+02
    0.18234636900813690374E+02
    0.18701673601871462438E+02
    0.15134917103521738468E+02
    0.16569106748677835839E+02
    0.23378063526997138410E+02
    0.94614718814526987956E+01
    0.17090106242889969934E+02
    0.14162829618648611785E+02
    0.16278075250491138348E+02
    0.13822882992200788976E+02
    0.14215108868256747243E+02
    0.15969799776692196858E+02
    0.15266773212700842421E+02
    0.14566591124574518545E+02
    0.15277838327797601536E+02
    0.14238104184783038519E+02
    0.13556772607642429307E+02
    0.13214897771780160340E+02
    0.13238583792544737605E+02
    0.14486559350766757603E+02
    0.13300837591061487331E+02
    0.15896405746081127219E+02
    0.12742621117589850499E+02
    0.12290959774865847010E+02
    0.13169607269317456399E+02
    0.12352912675878899407E+02
    0.11873686029836974853E+02
    0.12913079729931931539E+02
    0.12542909667985478350E+02
    0.12831629177169624256E+02
    0.12415977867476405194E+02
    0.11370448047426426896E+02
    0.11449925844202144987E+02
    0.10445480820791120280E+02
    0.12544067264516739257E+02
    0.12339680148069927412E+02
    0.12951114510015674597E+02
    0.13185971741487973574E+02
    0.11306583510390110447E+02
    0.13291781109274575456E+02
    0.13754340223800612719E+02
    0.14597280157050695593E+02
    0.16486501403461577553E+02
    0.12532848720448837909E+02
    0.13146747337931557809E+02
    0.15646515716046289768E+02
    0.13363077481285500880E+02
    0.14134832272353497373E+02
    0.15671621844091925269E+02
    0.14609375090956680410E+02
    0.17584384662818127509E+02
    0.17501414226536962104E+02
    0.11701659058902182053E+02
    0.17370449282089445830E+02
    0.14004266050511642305E+02
    0.10049521643499051748E+02
    0.88339180397822012480E+01
    0.84340441195534427976E+01
    0.12162954697765410828E+02
    0.79554735783790508918E+01
    0.82237747417399322813E+01
    0.16386434751942669408E+02
    0.12517585781736929817E+02
    0.17092822735516723043E+02
    0.12956041327300095389E+02
    0.18207933457890561613E+02
    0.17625588143829769905E+02
    0.12081528825072783917E+02
    0.15623353213257086480E+02
    0.12706466774136327302E+02
    0.16122571681655202269E+02
    0.16418995653870830154E+02
    0.11131160136514386849E+02
    0.13712719003377001670E+02
    0.14873977095268536175E+02
    0.17028840189923446502E+02
    0.80048758290774575386E+01
    0.10856464985004910417E+02
    0.18507295535289845390E+02
    0.85574183856008332327E+01
    0.12484117060331476168E+02
    0.17448731470632438345E+02
    0.17399263210502351029E+02
    0.92652455927532280100E+01
    0.17180107971831819924E+02
    0.17254319176928913038E+02
    0.17622156501435497944E+02
    0.16568983524903369897E+02
    0.16643278637887345184E+02
    0.16411595544817913606E+02
    0.17031772998315013012E+02
    0.16212087593191057522E+02
    0.16760871687365490601E+02
    0.16404262743945956515E+02
    0.16986869745811773669E+02
    0.17238866710868759213E+02
    0.16494312692865495507E+02
    0.16214620709660657383E+02
    0.16622410728188523166E+02
    0.12751993812917820748E+02
    0.16052060217308557810E+02
    0.16297948472890272598E+02
    0.15637057157874043156E+02
    0.15886397154448902214E+02
    0.15495070672352062147E+02
    0.15548374826145876071E+02
    0.15729899732784883071E+02
    0.16114908708207494215E+02
    0.15987668963480333062E+02
    0.14678555128715450095E+02
    0.16194795415243476100E+02
    0.16070846607159651853E+02
    0.16311333558184077930E+02
    0.16244759555865460499E+02
    0.11535058948966014469E+02
    0.15153973395487501108E+02
    0.15775555453583386623E+02
    0.15269543378435727732E+02
    0.15623566215127562273E+02
    0.14808558565498545434E+02
    0.16132335679026731157E+02
    0.13473717719177201957E+02
    0.14790357922989644024E+02
    0.13769786541363501442E+02
    0.12950696236518199456E+02
    0.11769674336217921251E+02
    0.13225758260291533119E+02
    0.12685209804928094357E+02
    0.14140732947108325845E+02
    0.15591166226192290978E+02
    0.14205186452742644576E+02
    0.15253493055882687557E+02
    0.14858200459375725089E+02
    0.13929314422108431515E+02
    0.15092526750549087211E+02
    0.14457053767099493413E+02
    0.15567244849635189397E+02
    0.12828617094205799987E+02
    0.15062597656204914642E+02
    0.14342868713132906677E+02
    0.13527362265183441536E+02
    0.12697779282232106723E+02
    0.15506806281331424913E+02
    0.13307183074840832404E+02
    0.13491586926654557388E+02
    0.14763596228950486733E+02
    0.15564324411170684215E+02
    0.12064411426889408929E+02
    0.16157778364293960749E+02
    0.13932895007922677877E+02
    0.13903031701767687878E+02
    0.16727407851207281908E+02
    0.16555312642852960892E+02
    0.16945044051898765503E+02
    0.16870205781881640661E+02
    0.16539014431151226603E+02
    0.17245479447687817043E+02
    0.15708818147218602590E+02
    0.15982052998777323438E+02
    0.15758150283479849918E+02
    0.15958645824402999835E+02
    0.15447785653148518037E+02
    0.16509361574050888777E+02
    0.15277908158418098239E+02
    0.16193100040967522091E+02
    0.15810813811025317577E+02
    0.15979010962277705232E+02
    0.17678110224085287427E+02
    0.17442676467206336355E+02
    0.16688396018530468723E+02
    0.17226301831966232214E+02
    0.16664689273998277486E+02
    0.12845697537490890383E+02
    0.16368903347339692544E+02
    0.15569258725880137817E+02
    0.16112697130706603588E+02
    0.16317410394756667102E+02
    0.15796118798873838074E+02
    0.17052136524416070529E+02
    0.15681497216387549898E+02
    0.16866893436871475132E+02
    0.17265483079193099769E+02
    0.12976970160880410887E+02
    0.15129236283451358958E+02
    0.17156046170033093290E+02
    0.14210562861471133900E+02
    0.13556323692038533935E+02
    0.14573469453293933284E+02
    0.13937300294813320889E+02
    0.13612164014874609919E+02
    0.15188652227859151367E+02
    0.13204664045938125483E+02
    0.12620595029177410495E+02
    0.13004256066299488381E+02
    0.12730848662351354150E+02
    0.13496119753986763001E+02
    0.13432647436730512425E+02
    0.11869819015753932945E+02
    0.12364597839073928398E+02
    0.12939563344509815934E+02
    0.12982388637023211331E+02
    0.15473247780237425530E+02
    0.15295281172415741366E+02
    0.16059525357933097212E+02
    0.16104231494638614919E+02
    0.14833095159949021280E+02
    0.16226273543730911797E+02
    0.15091137669393722476E+02
    0.15246416508368042741E+02
    0.16412364440828440593E+02
    0.15715183523824704181E+02
    0.14691372357574085328E+02
    0.16132500318166474784E+02
    0.14820127990165586240E+02
    0.16207701122121985549E+02
    0.14183610267657821069E+02
    0.12039063462545028571E+02
    0.11843344855640626889E+02
    0.14268669702510573316E+02
    0.14737844244958035134E+02
    0.15061240457003890469E+02
    0.11145944382062509703E+02
    0.15027034611256095076E+02
    0.10014474519821529697E+02
    0.12751268502609267586E+02
    0.89015683248748285195E+01
    0.10614179635586078021E+02
    0.85758030599650041381E+01
    0.10942822498419838340E+02
    0.87578764258736914172E+01
    0.87234082022665049294E+01
    0.10294325892338232364E+02
    0.10326444160224738766E+02
    0.94519768558560208760E+01
    0.11678858239243078643E+02
    0.84656108823377032024E+01
    0.83496596319906810635E+01
    0.81581473582201109451E+01
    0.10354237255991346700E+02
    0.13731797024802103735E+02
    0.14083303526550485785E+02
    0.15596962426619237263E+02
    0.15304863609852196404E+02
    0.13186534334941939051E+02
    0.16341703320561418167E+02
    0.11333936544537904112E+02
    0.10361184795880538090E+02
    0.11431623771956797242E+02
    0.14114106471526460140E+02
    0.14545676993440352476E+02
    0.11940175133423789333E+02
    0.13741636799288245996E+02
    0.12826163696509434331E+02
    0.13322844471208702188E+02
    0.13822624523158467014E+02
    0.10935893503582592601E+02
    0.14176016556632990984E+02
    0.85631102415468429712E+01
    0.89931965718235886698E+01
    0.85973040501825490622E+01
    0.86610752909925210474E+01
    0.21762474560629673448E+02
    0.85601195089294996876E+01
    0.95434677642357641503E+01
    0.86015036311718020556E+01
    0.85989046066395911083E+01
    0.85760637629858997855E+01
    0.85797847771116551030E+01
    0.85645772450714883206E+01
    0.86564823801921040314E+01
    0.87310544069200997086E+01
    0.92626777821720800432E+01
    0.85609981594900350643E+01
    0.12193341417551001982E+02
    0.12632547012764421268E+02
    0.13322695237418347602E+02
    0.14314375945780721366E+02
    0.13081362795237641450E+02
    0.11522442729105954129E+02
    0.10677709948924896111E+02
    0.89222952477526256132E+01
    0.13709339500236195519E+02
    0.12180761206124188334E+02
    0.10011942533014112300E+02
    0.12830660883350422097E+02
    0.12309189785477450130E+02
    0.10197277896074767867E+02
    0.89444872137535131884E+01
    0.14441314294163818843E+02
    0.86223044657583312045E+01
    0.80323732431316212654E+01
    0.11528707421279577261E+02
    0.15267416172943146790E+02
    0.16366178620885481365E+02
    0.15918394761767185486E+02
    0.16312859397845311804E+02
    0.16544247457633449727E+02
    0.15588606804518830629E+02
    0.16237112460884738141E+02
    0.15800734636765305652E+02
    0.14788304269609863439E+02
    0.15408167906525312318E+02
    0.16687234908748969531E+02
    0.16269871408998056950E+02
    0.15997473966444042404E+02
    0.15786266489548042458E+02
    0.15376458116898096051E+02
    0.14864801018778662112E+02
    0.16378067051204375559E+02
    0.17033280921912581363E+02
    0.16534667195941203488E+02
    0.16911954809997268967E+02
    0.17836871399430844320E+02
    0.16341880168384449235E+02
    0.12106510756849436561E+02
    0.18003694690222971531E+02
    0.16777790319325639246E+02
    0.19465062674074143700E+02
    0.19115653846443997566E+02
    0.19285399062877484511E+02
    0.15852115217446248963E+02
    0.19319551610689043031E+02
    0.18469890291778742863E+02
    0.17293214978423769423E+02
    0.15762529923608303406E+02
    0.17372138682719992175E+02
    0.13594051752939483535E+02
    0.14820417891756665796E+02
    0.15173121407058665966E+02
    0.17877376957605303431E+02
    0.15799730005148738599E+02
    0.15720255160135284456E+02
    0.15150995368837763877E+02
    0.15951623399191106500E+02
    0.14491565590221062720E+02
    0.17948239774546255632E+02
    0.16655238002353282667E+02
    0.19708574828525335931E+02
    0.17599056414736136134E+02
    0.17032595713452533204E+02
    0.16345865078641839574E+02
    0.15180256416285617505E+02
    0.18287348449324760224E+02
    0.19973367528964125484E+02
    0.19613866932347253424E+02
    0.12657750949982240485E+02
    0.21614001379731210051E+02
    0.20299527340631151162E+02
    0.19662955927931879074E+02
    0.20778020763617011113E+02
    0.19544663925034114982E+02
    0.21970755631291815746E+02
    0.20837775266103403027E+02
    0.16315855692471142646E+02
    0.21230769461543538057E+02
    0.12937434683363429500E+02
    0.19060254481838040164E+02
    0.19703119946594625844E+02
    0.13112879827265521371E+02
    0.13202361231432169220E+02
    0.16239822093392906055E+02
    0.13967939730262811437E+02
    0.13451252519352744130E+02
    0.16996718714109935178E+02
    0.11937203583555136888E+02
    0.19220797214336592162E+02
    0.14576769098130869295E+02
    0.16825830252490916905E+02
    0.15939843109620076333E+02
    0.21741423488287477284E+02
    0.14208235003250377915E+02
    0.20777818868849049494E+02
    0.21181201703707944972E+02
    0.22048000591390177760E+02
    0.20077284812565647343E+02
    0.21280154911029573128E+02
    0.21600430567825593897E+02
    0.20356904143144500807E+02
    0.20943340105783718741E+02
    0.17246921657050123144E+02
    0.20281680781628807608E+02
    0.21931843171045443341E+02
    0.21843952816165376873E+02
    0.12199748154968892422E+02
    0.19761518372758047235E+02
    0.15132122661333413660E+02
    0.15894643872694949494E+02
    0.14304833427293781156E+02
    0.14388665498269132215E+02
    0.14772956888929236641E+02
    0.18598868908859305549E+02
    0.14191042009310057992E+02
    0.18973181309933345062E+02
    0.14407793372042700497E+02
    0.14918217873548721641E+02
    0.15006399868850266444E+02
    0.13908631824934877486E+02
    0.14455961761054039627E+02
    0.17222133224189505540E+02
    0.16991533149543847969E+02
    0.13765335077535947761E+02
    0.19639657776605368156E+02
    0.13778850722715047183E+02
    0.18463202813237924005E+02
    0.18955835080832521555E+02
    0.16884932566153985078E+02
    0.18422543283473171272E+02
    0.20310515807098965979E+02
    0.21255505301082774139E+02
    0.20081505501273944958E+02
    0.21421811369895003452E+02
    0.18297827101320621068E+02
    0.19180688016328559797E+02
    0.19490508038040051275E+02
    0.18496200660101600022E+02
    0.20761011483174954151E+02
    0.19295661776234847906E+02
    0.13718759069557627583E+02
    0.17367409118326527562E+02
    0.14654470213151318703E+02
    0.14292390143521201296E+02
    0.12184846410231306990E+02
    0.12658392422936630695E+02
    0.12352366423957624519E+02
    0.14982927941229606361E+02
    0.13868305236773480260E+02
    0.16534989041208088878E+02
    0.12177309376799367868E+02
    0.12994448661119470501E+02
    0.91825495274787769517E+01
    0.10719322675508866638E+02
    0.15875861404566570911E+02
    0.16124329838083390598E+02
    0.17167025415667566790E+02
    0.12001667063836556792E+02
    0.11828132842651859491E+02
    0.16155946535026494359E+02
    0.14087697572369030752E+02
    0.10184664725462678092E+02