# vtk DataFile Version 3.0
LAPLACIEN  2D
ASCII
DATASET UNSTRUCTURED_GRID
 POINTS        1083  float
  0.25752000000000003       0.83521000000000001        0.0000000000000000     
  0.26692436000000003       0.82361669999999998        0.0000000000000000     
  0.12755760999999999       0.37286407999999999        0.0000000000000000     
  0.16947000000000001       0.36312000000000000        0.0000000000000000     
  0.20556749999999999       0.30943999999999999        0.0000000000000000     
  0.19808000000000001       0.30240000000000000        0.0000000000000000     
  0.17829000000000000       0.29613000000000000        0.0000000000000000     
  0.16072427000000000       0.27611573000000000        0.0000000000000000     
  0.20518000000000000       0.25756000000000001        0.0000000000000000     
  0.14513182999999999       0.15495659000000001        0.0000000000000000     
  0.18475000000000000       0.25733000000000000        0.0000000000000000     
  0.15320000000000000       0.28981000000000001        0.0000000000000000     
   8.4010000000000001E-002  0.28726000000000002        0.0000000000000000     
  0.12066000000000000       0.31644000000000000        0.0000000000000000     
  0.15419146000000000       0.34997146000000001        0.0000000000000000     
   9.1609999999999997E-002  0.41126000000000001        0.0000000000000000     
   8.2839999999999997E-002  0.24906000000000000        0.0000000000000000     
  0.10719500000000000       0.24906000000000000        0.0000000000000000     
  0.10394500000000000       0.24026000000000000        0.0000000000000000     
  0.10306999999999999       0.16439999999999999        0.0000000000000000     
  0.20605000000000001        7.9089999999999994E-002   0.0000000000000000     
  0.42243181000000002       0.83768843000000004        0.0000000000000000     
  0.40538000000000002       0.78705000000000003        0.0000000000000000     
  0.42062500000000003       0.70743999999999996        0.0000000000000000     
  0.39167000000000002       0.62682000000000004        0.0000000000000000     
  0.38775999999999999       0.57162500000000005        0.0000000000000000     
  0.39058282000000000       0.54871530000000002        0.0000000000000000     
  0.39464117999999998       0.46212064000000003        0.0000000000000000     
  0.39241130000000002       0.45290363000000000        0.0000000000000000     
  0.38384000000000001       0.55516500000000002        0.0000000000000000     
  0.38069999999999998       0.59557000000000004        0.0000000000000000     
  0.36735092000000003       0.72975095999999995        0.0000000000000000     
  0.37138180999999998       0.84873708999999997        0.0000000000000000     
  0.31856716000000002       0.83411802999999995        0.0000000000000000     
  0.65566999999999998       0.71865999999999997        0.0000000000000000     
  0.62348499999999996       0.71865999999999997        0.0000000000000000     
  0.63253999999999999       0.72650000000000003        0.0000000000000000     
  0.63397590999999998       0.79238797000000005        0.0000000000000000     
  0.61133999999999999       0.77437999999999996        0.0000000000000000     
  0.58667000000000002       0.75475999999999999        0.0000000000000000     
  0.51746738999999997       0.83310978000000002        0.0000000000000000     
  0.51022000000000001       0.76192000000000004        0.0000000000000000     
  0.49914890000000001       0.74624727000000002        0.0000000000000000     
  0.50311967000000002       0.80879526000000002        0.0000000000000000     
  0.50158999999999998       0.83067000000000002        0.0000000000000000     
  0.46398766000000002       0.86013877000000005        0.0000000000000000     
  0.41615999999999997       0.37445000000000001        0.0000000000000000     
  0.43026551000000002       0.31678289999999998        0.0000000000000000     
  0.39694000000000002       0.24930500000000000        0.0000000000000000     
  0.41994211999999997       0.11642168999999999        0.0000000000000000     
  0.43478000000000000       0.10487000000000000        0.0000000000000000     
  0.57060999999999995       0.13406000000000001        0.0000000000000000     
  0.69662999999999997       0.19536999999999999        0.0000000000000000     
  0.71886000000000005       0.24690999999999999        0.0000000000000000     
  0.74097999999999997       0.33731000000000000        0.0000000000000000     
  0.72538453999999997       0.37890159000000001        0.0000000000000000     
  0.73320112000000004       0.40760169000000002        0.0000000000000000     
  0.70620000000000005       0.41999999999999998        0.0000000000000000     
  0.74504999999999999       0.48705999999999999        0.0000000000000000     
  0.68996999999999997       0.48530000000000001        0.0000000000000000     
  0.66213999999999995       0.47589999999999999        0.0000000000000000     
  0.63373000000000002       0.47414000000000001        0.0000000000000000     
  0.68861000000000006       0.55347000000000002        0.0000000000000000     
  0.62687669000000001       0.62714972999999996        0.0000000000000000     
  0.51632500000000003       0.26038000000000000        0.0000000000000000     
  0.66345008000000005       0.20335998999999999        0.0000000000000000     
  0.68430000000000002       0.34078999999999998        0.0000000000000000     
  0.59737622999999995       0.42491739000000001        0.0000000000000000     
  0.55410000000000004       0.41776999999999997        0.0000000000000000     
  0.52314000000000005       0.40723999999999999        0.0000000000000000     
  0.46111999999999997       0.32850000000000001        0.0000000000000000     
  0.67330999999999996       0.19785000000000000        0.0000000000000000     
  0.69296999999999997       0.22594000000000000        0.0000000000000000     
  0.40191943000000002       0.86367486999999998        0.0000000000000000     
  0.12271248000000000       0.14762657000000001        0.0000000000000000     
  0.14852475000000001       0.12337326999999999        0.0000000000000000     
  0.74936000000000003       0.44945000000000002        0.0000000000000000     
  0.61883999999999995       0.82247000000000003        0.0000000000000000     
  0.26941311000000001       0.82690965999999999        0.0000000000000000     
  0.14224880000000001       0.37582204000000002        0.0000000000000000     
  0.16781681000000001       0.35746910999999998        0.0000000000000000     
  0.38384000000000001       0.56583499999999998        0.0000000000000000     
  0.17475499999999999       0.26156499999999999        0.0000000000000000     
  0.16588214000000001       0.27095785999999999        0.0000000000000000     
  0.19754658000000000       0.25190794000000000        0.0000000000000000     
  0.18240999999999999       0.26306000000000002        0.0000000000000000     
  0.38775999999999999       0.58301250000000004        0.0000000000000000     
   9.2598787000000002E-002  0.28369930999999998        0.0000000000000000     
  0.12988000000000000       0.31154999999999999        0.0000000000000000     
  0.15971573000000000       0.35549573000000001        0.0000000000000000     
  0.43006250000000001       0.70743999999999996        0.0000000000000000     
  0.40538000000000002       0.77361250000000004        0.0000000000000000     
  0.42100500000000002       0.81830000000000003        0.0000000000000000     
  0.41854986000000000       0.69665306000000005        0.0000000000000000     
  0.38971499999999998       0.61060999999999999        0.0000000000000000     
  0.38773564999999999       0.45901181000000002        0.0000000000000000     
  0.39590059000000000       0.45441031999999998        0.0000000000000000     
  0.38384000000000001       0.54735250000000002        0.0000000000000000     
  0.36502704000000002       0.72473217000000001        0.0000000000000000     
  0.32337357999999999       0.82795901000000005        0.0000000000000000     
  0.70706773000000001       0.36044921000000002        0.0000000000000000     
  0.74097999999999997       0.35293500000000000        0.0000000000000000     
  0.74097999999999997       0.31773499999999999        0.0000000000000000     
  0.71235000000000004       0.23181499999999999        0.0000000000000000     
  0.58099500000000004       0.12427000000000001        0.0000000000000000     
  0.50926802999999998       0.81618526000000002        0.0000000000000000     
  0.39694000000000002       0.25951249999999998        0.0000000000000000     
  0.43692275000000003       0.32087145000000000        0.0000000000000000     
  0.41615999999999997       0.32374500000000000        0.0000000000000000     
  0.43379000000000001       0.30536999999999997        0.0000000000000000     
  0.56120943999999995       0.14292195999999999        0.0000000000000000     
  0.56101000000000001       0.12778999999999999        0.0000000000000000     
  0.72713519000000004       0.36131693999999998        0.0000000000000000     
  0.74289499999999997       0.49852000000000002        0.0000000000000000     
  0.70664000000000005       0.43221999999999999        0.0000000000000000     
  0.53013999999999994       0.41189999999999999        0.0000000000000000     
  0.54561999999999999       0.41584500000000002        0.0000000000000000     
  0.71071649000000003       0.55600200000000000        0.0000000000000000     
  0.67979000000000001       0.56306999999999996        0.0000000000000000     
  0.62555094000000000       0.62995129000000005        0.0000000000000000     
  0.66964504000000002       0.20812000000000000        0.0000000000000000     
  0.58421811000000001       0.42326870000000000        0.0000000000000000     
  0.59798264000000001       0.43157266000000000        0.0000000000000000     
  0.54939000000000004       0.42473000000000000        0.0000000000000000     
  0.52732000000000001       0.40139999999999998        0.0000000000000000     
[...]
 CELL_DATA        1963
 SCALARS Nutrients float
 LOOKUP_TABLE default
    0.17057155714960071435E+02
    0.17193318468297270840E+02
    0.17346922260008906136E+02
    0.17318809972108404338E+02
    0.17154210300889719321E+02
    0.14245978088294389607E+02
    0.17178119670589822476E+02
    0.16787194250643533877E+02
    0.16813792223099152778E+02
    0.15868775779280094085E+02
    0.16323260271546985223E+02
    0.17266504257583420667E+02
    0.86549291929432481396E+01
    0.16799112007980546935E+02
    0.17452487646031794810E+02
    0.17565690703562939490E+02
    0.17489893383134525351E+02
    0.16956788059685450776E+02
    0.17114904547554239400E+02
    0.17591783703394842320E+02
    0.16841559108056319616E+02
    0.16536587155639846713E+02
    0.15643853325107434316E+02
    0.15579042045483802781E+02
    0.16582221861409564667E+02
    0.15916601823993916653E+02
    0.16066321542432369540E+02
    0.16313457382937798457E+02
    0.16998413572069836164E+02
    0.15497846728297881569E+02
    0.17289519970339579658E+02
    0.84708878114331653819E+01
    0.17468279569465391177E+02
    0.17780377469969312898E+02
    0.16128229600472835159E+02
    0.17739726284753604801E+02
    0.18133949519410080597E+02
    0.18094418144763714906E+02
    0.18305611349829060686E+02
    0.18424575357423467636E+02
    0.18208418181888312404E+02
    0.17450033549847805858E+02
    0.17358017576617609024E+02
    0.18068089720522152675E+02
    0.16756039256467161636E+02
    0.18181591452245658758E+02
    0.18747425805753550776E+02
    0.16958420308372126328E+02
    0.15294770997912726429E+02
    0.15984563031832587754E+02
    0.14947455378660581715E+02
    0.14818314587071439448E+02
    0.15708773708832085347E+02
    0.16265470168809020635E+02
    0.14764552057829940068E+02
    0.15908282231789314665E+02
    0.14485028267521828482E+02
    0.14716670106816543750E+02
    0.14154226686345865005E+02
    0.14559636102234433608E+02
    0.16274731808974106428E+02
    0.14907744258296213857E+02
    0.16662126988188720844E+02
    0.14888704905315949034E+02
    0.18368119179936407193E+02
    0.17090443603890236091E+02
    0.13801900990552764981E+02
    0.14474808889827642133E+02
    0.17614747737929533855E+02
    0.17500723930913601123E+02
    0.17692429470473225450E+02
    0.17569434443812006919E+02
    0.16985826385369684033E+02
    0.94299916412811093380E+01
    0.15762170164865429101E+02
    0.17455150700044406165E+02
    0.16159986414111809694E+02
    0.15888805744717425128E+02
    0.15539749589968625543E+02
    0.16784586602322328019E+02
    0.15442550346259297456E+02
    0.17466534025979100875E+02
    0.16303155448502256064E+02
    0.16277214673252672128E+02
    0.17674029736698603443E+02
    0.17387674634934317197E+02
    0.17816446357013575152E+02
    0.17982970781271614413E+02
    0.17440917297808976372E+02
    0.17836642387446911329E+02
    0.15934873623192233438E+02
    0.15904461924608563450E+02
    0.16407248365497920872E+02
    0.16847142077094115820E+02
    0.15736387770736797620E+02
    0.17224623867606997152E+02
    0.15396597843490090085E+02
    0.16817735278073278948E+02
    0.17082250447417219874E+02
    0.15834418345705330466E+02
    0.15402830694899080299E+02
    0.16322028033382977696E+02
    0.15054857858294475648E+02
    0.15603363172964160199E+02
    0.14839599334063986902E+02
    0.14995322548299427012E+02
    0.14784694019874983439E+02
    0.15195367852450523571E+02
    0.14012398612503300654E+02
    0.14572711215058898659E+02
    0.13655964432817695453E+02
    0.14132854759033412151E+02
    0.13727915898406283901E+02
    0.14544403317486336746E+02
    0.13406076262512106823E+02
    0.14394476450284852120E+02
    0.15193929686596431949E+02
    0.13935267830317567217E+02
    0.14781946322117228476E+02
    0.14922856432296146778E+02
    0.14695455096808240469E+02
    0.15108097788999527822E+02
    0.14844861455628684865E+02
    0.15223968284216159219E+02
    0.13051310936074399294E+02
    0.14071039212067130819E+02
    0.13741991904726056362E+02
    0.14519707944691488066E+02
    0.12738737218664645923E+02
    0.14587085318501705089E+02
    0.13115850071245329644E+02
    0.14456007032202931484E+02
    0.13857618306917862228E+02
    0.13732269425903465887E+02
    0.12930814312053310999E+02
    0.15300187452629076645E+02
    0.14422527006984234177E+02
    0.15385586759229095577E+02
    0.14488916302021042526E+02
    0.86329551703038625021E+01
    0.19404643387278284195E+02
    0.21644989805016280116E+02
    0.18963206190927721195E+02
    0.19588125881500225489E+02
    0.19353067499115457650E+02
    0.14228605019273439680E+02
    0.22742564646079841850E+02
    0.13888543953953334409E+02
    0.20511830123544445570E+02
    0.22992783014908269479E+02
    0.21701314052614037564E+02
    0.20313624047053565391E+02
    0.18927771111560808492E+02
    0.21154501100807088676E+02
    0.97548626396048323528E+01
    0.20292253381269048873E+02
    0.18725925446383925532E+02
    0.18959288835242276150E+02
    0.18352346650076626133E+02
    0.18500745055416835783E+02
    0.18499874880018698065E+02
    0.18529291735660070373E+02
    0.18454821883730314624E+02
    0.19178027717413854702E+02
    0.15934621715565638667E+02
    0.18287730052395197333E+02
    0.17447208976562382787E+02
    0.16015082788528616220E+02
    0.18274212869807648474E+02
    0.18905988459483850761E+02
    0.19185106662422068524E+02
    0.18230454458686999430E+02
    0.23814013223482223935E+02
    0.18180601644217620816E+02
    0.23310110450989927955E+02
    0.14337732522218297859E+02
    0.20758025799270647838E+02
    0.23818402952044475995E+02
    0.23063829204133071471E+02
    0.20529710242534360276E+02
    0.15055894367696794234E+02
    0.12028187328550904667E+02
    0.20415246690376857686E+02
    0.21635792437850483338E+02
    0.19759162251543198607E+02
    0.20803374155258698153E+02
    0.19850865589629410835E+02
    0.22045246150152362219E+02
    0.14168260149429029227E+02
    0.20079925302978040236E+02
    0.18485061433180103307E+02
    0.19903238146170242118E+02
    0.17473331760281642033E+02
    0.18521017855046885359E+02
    0.19828469220100309656E+02
    0.17138119006425757362E+02
    0.19039054073558954627E+02
    0.19936832055769620808E+02
    0.17659335402678486560E+02
    0.18477584228961148938E+02
    0.15869125987870473793E+02
    0.12520037858628102256E+02
    0.18686148139176584237E+02
    0.18335201450713707771E+02
    0.18948282429524592629E+02
    0.15032403136890282624E+02
    0.16582081740528515468E+02
    0.23732033211038064735E+02
    0.94723327836318826911E+01
    0.17321820967087461440E+02
    0.14244497400351406213E+02
    0.16395636054976797880E+02
    0.13854032503821256839E+02
    0.14248614186868241660E+02
    0.16054153745155147703E+02
    0.15360739523141813123E+02
    0.14675194873695934561E+02
    0.15389354905914267135E+02
    0.14254402472696286353E+02
    0.13618414522800192046E+02
    0.13264910104943851366E+02
    0.13244969775847984295E+02
    0.14567911139729675440E+02
    0.13344352095860177343E+02
    0.15974549990543000177E+02
    0.12720716684960454046E+02
    0.12337006605263320935E+02
    0.13341746981110743420E+02
    0.12340555077657889171E+02
    0.11835803940806886914E+02
    0.13086342613261015444E+02
    0.12637169793215226932E+02
    0.12962273296702864656E+02
    0.12450955272331405865E+02
    0.11340619804486195221E+02
    0.11427514659583488665E+02
    0.10369941751611092329E+02
    0.12674926209119639964E+02
    0.12410633223706616590E+02
    0.13061737909937152224E+02
    0.13278518473192155724E+02
    0.11344522265990327980E+02
    0.13320993573402013510E+02
    0.13827913584476423381E+02
    0.14572328283645623159E+02
    0.16682551538397838442E+02
    0.12497173635244450907E+02
    0.13190229405983142641E+02
    0.15723882800151958605E+02
    0.13397324220331253031E+02
    0.14028366692777558100E+02
    0.15618923453317000494E+02
    0.14462674512537480709E+02
    0.17882141509386112688E+02
    0.17795996555132322925E+02
    0.11623064277689989510E+02
    0.17631835840654840553E+02
    0.13930223931569543083E+02
    0.99681365514297812780E+01
    0.87742104317126319302E+01
    0.83814697992544573424E+01
    0.12110464604814330514E+02
    0.79115705101970315027E+01
    0.81749527127126278003E+01
    0.16641857539099433438E+02
    0.12576950207049261365E+02
    0.17388495694506129752E+02
    0.13085543501643529751E+02
    0.18331794101562998378E+02
    0.17885497912695864642E+02
    0.12491430029153526959E+02
    0.15844369542347347846E+02
    0.13081743581227449624E+02
    0.16342517592974470375E+02
    0.16698178729501204742E+02
    0.11066346658438611428E+02
    0.13942506601855317427E+02
    0.14889377142946798926E+02
    0.17291128980926352199E+02
    0.79599727676185931813E+01
    0.11234768370502274948E+02
    0.18588807539453938489E+02
    0.85735461117058253677E+01
    0.12645185333262880079E+02
    0.17738431312967083642E+02
    0.17623919789950562631E+02
    0.93339666416201829691E+01
    0.17494729372249846477E+02
    0.17557760254998534322E+02
    0.17923932372728376805E+02
    0.16717087328025449722E+02
    0.16679377131596236694E+02
    0.16474068498161461349E+02
    0.17262660310427904164E+02
    0.16331914146660469811E+02
    0.16970681173219222870E+02
    0.16450197931752725822E+02
    0.17183373631796310832E+02
    0.17393711652594952000E+02
    0.16715512519809582415E+02
    0.16519415405231011817E+02
    0.16853586029058785556E+02
    0.12968863351818090024E+02
    0.16257960595102659340E+02
    0.16575820080460417216E+02
    0.15927123102825019529E+02
    0.16094842352431182775E+02
    0.15630899989787462090E+02
    0.15620942820830949316E+02
    0.15784755037207858663E+02
    0.16323008909925722065E+02
    0.16169490050166917428E+02
    0.14663102664282840593E+02
    0.16489734210156001382E+02
    0.16232218105654055762E+02
    0.16580588614941419223E+02
    0.16381409587654150783E+02
    0.11761608993037347304E+02
    0.15191638599248497243E+02
    0.15899270235443339061E+02
    0.15300788933031045147E+02
    0.15653033194387989013E+02
    0.14863774735152688322E+02
    0.16166955779694163198E+02
    0.13707944501718756669E+02
    0.14848321006659352506E+02
    0.13971331124402391666E+02
    0.13177825844165447222E+02
    0.11816662751944983611E+02
    0.13187864224358065712E+02
    0.12902544124890646060E+02
    0.14304788659580520260E+02
    0.15699525338902914129E+02
    0.14313471537819088653E+02
    0.15396964001013655476E+02
    0.14993683049795290430E+02
    0.13830976446103013799E+02
    0.15237778251763582915E+02
    0.14535513872994393125E+02
    0.15680234835346341882E+02
    0.12828781656817424661E+02
    0.15064970952795368575E+02
    0.14478174295638440938E+02
    0.13527842767988945027E+02
    0.12761655230990921694E+02
    0.15522136290679100057E+02
    0.13199724496825240294E+02
    0.13434178405483326202E+02
    0.14878669230946481861E+02
    0.15724492334222180290E+02
    0.12099863764167311686E+02
    0.16234144818171085234E+02
    0.14051192170255449199E+02
    0.13979462026433230548E+02
    0.16998340673981601867E+02
    0.16896579866437988926E+02
    0.17241621365893276874E+02
    0.17098987133698475560E+02
    0.16843035760609364360E+02
    0.17569328863581795019E+02
    0.15892175855460227041E+02
    0.16152386807742818320E+02
    0.15893051803276597056E+02
    0.16164593582325981203E+02
    0.15624401899685450346E+02
    0.16654395831085814450E+02
    0.15485503771871607981E+02
    0.16436369070531338110E+02
    0.15931278371622527246E+02
    0.16016942866821356262E+02
    0.18083276381954643597E+02
    0.17819235655283453212E+02
    0.16937251992813532553E+02
    0.17550226951278510512E+02
    0.16865850211085685828E+02
    0.12969472413369166119E+02
    0.16609905672894566209E+02
    0.15583947274961730045E+02
    0.16328380511237011063E+02
    0.16439253021361267315E+02
    0.15821705389730437830E+02
    0.17361328312562807952E+02
    0.15877782216254621162E+02
    0.17166037060490342725E+02
    0.17591612487710076351E+02
    0.13093014174557390916E+02
    0.15136654767857203652E+02
    0.17349834425633972046E+02
    0.14212111001696721146E+02
    0.13670940603180024908E+02
    0.14724553395119299282E+02
    0.14051642314163546033E+02
    0.13592946841874294250E+02
    0.15374147644544626345E+02
    0.13169676518447634095E+02
    0.12568687110007841667E+02
    0.13023692034691366715E+02
    0.12727291508276589838E+02
    0.13422431040671323643E+02
    0.13497641906466771644E+02
    0.11863242453988004144E+02
    0.12354590295602850603E+02
    0.13020772552543647294E+02
    0.12943642742053013350E+02
    0.15471957142696570742E+02
    0.15235623754038794431E+02
    0.16369571314660923633E+02
    0.16407610898025108526E+02
    0.14827213907840901541E+02
    0.16560675263713825700E+02
    0.15200163158285654674E+02
    0.15359802705147126645E+02
    0.16796654978462889574E+02
    0.15925585774494152247E+02
    0.14725536229673929611E+02
    0.16392291758769406584E+02
    0.14898182949406063358E+02
    0.16552424290224251990E+02
    0.14150957235300623438E+02
    0.12076991662762770474E+02
    0.11762700499037681112E+02
    0.14420614697984238006E+02
    0.14954123169093234580E+02
    0.15038203651438669439E+02
    0.11132124697692766802E+02
    0.15332630542210766933E+02
    0.99514815957884525943E+01
    0.12957049818782987671E+02
    0.88407057229028058742E+01
    0.10533679900928252238E+02
    0.85883343551522894899E+01
    0.10938152433510584416E+02
    0.87593758953193940897E+01
    0.87213995917341957664E+01
    0.10264644031323102880E+02
    0.10386163742530065690E+02
    0.95371547113773580406E+01
    0.11781342788689842749E+02
    0.85008599001535998241E+01
    0.83081109256528460350E+01
    0.81120572193963003116E+01
    0.10269926970697081714E+02
    0.13784405903519298064E+02
    0.14122708643177087851E+02
    0.15684045328556154075E+02
    0.15386659943133343731E+02
    0.13233718620110785480E+02
    0.16674826047746194035E+02
    0.11246956781857630148E+02
    0.10274700964946578807E+02
    0.11327141285324673348E+02
    0.14143069479902198538E+02
    0.14527477839524779668E+02
    0.11884574159197542897E+02
    0.13629380243371604919E+02
    0.12851465995749894233E+02
    0.13247509300040640312E+02
    0.13712018102043423085E+02
    0.10885176356903636830E+02
    0.14179210281486330558E+02
    0.86293349286114899854E+01
    0.90674780053957917403E+01
    0.87133239700231630565E+01
    0.87795257911997044431E+01
    0.22023981080886400719E+02
    0.86726250717867880979E+01
    0.96199364625104220039E+01
    0.87442013947748691294E+01
    0.86249403750658490964E+01
    0.86710903565220522893E+01
    0.86251301403081246377E+01
    0.86500886072293763362E+01
    0.86621226334419176851E+01
    0.88393727633182646031E+01
    0.91982614437773406735E+01
    0.85799429716250017464E+01
    0.12177093967580535860E+02
    0.12802245899577950894E+02
    0.13284386588472770541E+02
    0.14574736797375450692E+02
    0.13314693664795685280E+02
    0.11766998963437840686E+02
    0.10881834061210660991E+02
    0.89421762161091358223E+01
    0.13912382403259867303E+02
    0.12352242195939032499E+02
    0.10149888795064402558E+02
    0.13069621972158513401E+02
    0.12539732267423820744E+02
    0.10358853816154068639E+02
    0.89681410931933616126E+01
    0.14633437311109066314E+02
    0.87530931493127059895E+01
    0.79942141700266828863E+01
    0.11604729294658888250E+02
    0.15457465273032354958E+02
    0.16681694588870154661E+02
    0.16040583924343149391E+02
    0.16507030953684857622E+02
    0.16898495552128942165E+02
    0.15667277576240397963E+02
    0.16527572379466814567E+02
    0.15858390997502457509E+02
    0.14711343525131791665E+02
    0.15411225123818740101E+02
    0.16778645616308935473E+02
    0.16408990778676781019E+02
    0.16106644208399007567E+02
    0.15700201743564305090E+02
    0.15405971348161633827E+02
    0.14798853233710214994E+02
    0.16291600898850404633E+02
    0.17261229967397969887E+02
    0.16795931994843339652E+02
    0.17179450008517466841E+02
    0.18077012534302483004E+02
    0.16448776831516376262E+02
    0.12121657202216415072E+02
    0.18170904960972382725E+02
    0.16811269679582398595E+02
    0.19850582626360321115E+02
    0.19485470947263387131E+02
    0.19622847222176282855E+02
    0.16078793201244760525E+02
    0.19634801779956248424E+02
    0.18762443266398527442E+02
    0.17347303037672233472E+02
    0.16074602176907010431E+02
    0.17507427894603015517E+02
    0.13718004105066317067E+02
    0.14765692994988677711E+02
    0.15112814870363747488E+02
    0.18046370803774081537E+02
    0.15826635591872808106E+02
    0.15684095541153915576E+02
    0.15054585477037202068E+02
    0.16073857395166086803E+02
    0.14409024494748420508E+02
    0.18056228417595047375E+02
    0.16859788999301038359E+02
    0.19871461041082131516E+02
    0.17547352612777043390E+02
    0.17188520126785267195E+02
    0.16318639749548378148E+02
    0.15292608388228671856E+02
    0.18229452191910407777E+02
    0.20270197229293586361E+02
    0.19742814258164425922E+02
    0.13016203183491011686E+02
    0.21973102115400976686E+02
    0.20545481811736259203E+02
    0.19946883907513466738E+02
    0.21061862069102225803E+02
    0.19685658403046428333E+02
    0.22347913235518870323E+02
    0.21123477095196442122E+02
    0.16528429178663650134E+02
    0.21561342593056469497E+02
    0.13212125372227289333E+02
    0.19039419430755629037E+02
    0.19802077716548623698E+02
    0.13174690895828629067E+02
    0.13329754699884777125E+02
    0.16297867010698865897E+02
    0.13862058185601499716E+02
    0.13607802674053052883E+02
    0.17096739791821715215E+02
    0.11955142400704232841E+02
    0.19289405854933850293E+02
    0.14615103659587026286E+02
    0.17094164470341880246E+02
    0.15938033337185581573E+02
    0.22046739926930005282E+02
    0.14240228296596781021E+02
    0.20801165747195067723E+02
    0.21406399619121160072E+02
    0.22368108859859496818E+02
    0.20306855446880813787E+02
    0.21381676745424154973E+02
    0.21899787549018768118E+02
    0.20494592657676136582E+02
    0.21101084701179047443E+02
    0.17208194270249919100E+02
    0.20265149102130752823E+02
    0.22255144225992552265E+02
    0.22088511722043715935E+02
    0.12195812999208085259E+02
    0.19742852244433972686E+02
    0.15396037786552536630E+02
    0.16151200933439934460E+02
    0.14553327386482928674E+02
    0.14602845068577128274E+02
    0.14987529834030258513E+02
    0.18703967460439656634E+02
    0.14105223007335894181E+02
    0.18966425072259873730E+02
    0.14417914123933524451E+02
    0.14929768529324020321E+02
    0.14932646785857956573E+02
    0.14071076888875857946E+02
    0.14368653915756473438E+02
    0.17337332800853076265E+02
    0.17042983615673712450E+02
    0.13747653632321210182E+02
    0.19792228154280042673E+02
    0.14004583399479010097E+02
    0.18453626537227428628E+02
    0.19062338576794573441E+02
    0.16799371073012562050E+02
    0.18453921645719820077E+02
    0.20507168138107967792E+02
    0.21578922519942850045E+02
    0.20394053398695781709E+02
    0.21794423361994038402E+02
    0.18427222010756352688E+02
    0.19291790080432090093E+02
    0.19824725996090553082E+02
    0.18715840223470600279E+02
    0.21122962720281130089E+02
    0.19338048735268333900E+02
    0.13715035333143349661E+02
    0.17313838630155718334E+02
    0.14585718212430663243E+02
    0.14203716836823698344E+02
    0.12312690941325199034E+02
    0.12774642816221136954E+02
    0.12517608194960232026E+02
    0.14852383243403888713E+02
    0.13862271819464622169E+02
    0.16627667794879609886E+02
    0.12355998038646012205E+02
    0.13075841828980381720E+02
    0.98143404660868753808E+01
    0.11125923021726952911E+02
    0.15965148535789944972E+02
    0.16122100437959119290E+02
    0.17208437727021944852E+02
    0.12188709527200412452E+02
    0.12045732041933870704E+02
    0.16032852172824199499E+02
    0.14184935513376760952E+02
    0.10682222147415334490E+02