# vtk DataFile Version 3.0
LAPLACIEN  2D
ASCII
DATASET UNSTRUCTURED_GRID
 POINTS        1083  float
  0.25752000000000003       0.83521000000000001        0.0000000000000000     
  0.26692436000000003       0.82361669999999998        0.0000000000000000     
  0.12755760999999999       0.37286407999999999        0.0000000000000000     
  0.16947000000000001       0.36312000000000000        0.0000000000000000     
  0.20556749999999999       0.30943999999999999        0.0000000000000000     
  0.19808000000000001       0.30240000000000000        0.0000000000000000     
  0.17829000000000000       0.29613000000000000        0.0000000000000000     
  0.16072427000000000       0.27611573000000000        0.0000000000000000     
  0.20518000000000000       0.25756000000000001        0.0000000000000000     
  0.14513182999999999       0.15495659000000001        0.0000000000000000     
  0.18475000000000000       0.25733000000000000        0.0000000000000000     
  0.15320000000000000       0.28981000000000001        0.0000000000000000     
   8.4010000000000001E-002  0.28726000000000002        0.0000000000000000     
  0.12066000000000000       0.31644000000000000        0.0000000000000000     
  0.15419146000000000       0.34997146000000001        0.0000000000000000     
   9.1609999999999997E-002  0.41126000000000001        0.0000000000000000     
   8.2839999999999997E-002  0.24906000000000000        0.0000000000000000     
  0.10719500000000000       0.24906000000000000        0.0000000000000000     
  0.10394500000000000       0.24026000000000000        0.0000000000000000     
  0.10306999999999999       0.16439999999999999        0.0000000000000000     
  0.20605000000000001        7.9089999999999994E-002   0.0000000000000000     
  0.42243181000000002       0.83768843000000004        0.0000000000000000     
  0.40538000000000002       0.78705000000000003        0.0000000000000000     
  0.42062500000000003       0.70743999999999996        0.0000000000000000     
  0.39167000000000002       0.62682000000000004        0.0000000000000000     
  0.38775999999999999       0.57162500000000005        0.0000000000000000     
  0.39058282000000000       0.54871530000000002        0.0000000000000000     
  0.39464117999999998       0.46212064000000003        0.0000000000000000     
  0.39241130000000002       0.45290363000000000        0.0000000000000000     
  0.38384000000000001       0.55516500000000002        0.0000000000000000     
  0.38069999999999998       0.59557000000000004        0.0000000000000000     
  0.36735092000000003       0.72975095999999995        0.0000000000000000     
  0.37138180999999998       0.84873708999999997        0.0000000000000000     
  0.31856716000000002       0.83411802999999995        0.0000000000000000     
  0.65566999999999998       0.71865999999999997        0.0000000000000000     
  0.62348499999999996       0.71865999999999997        0.0000000000000000     
  0.63253999999999999       0.72650000000000003        0.0000000000000000     
  0.63397590999999998       0.79238797000000005        0.0000000000000000     
  0.61133999999999999       0.77437999999999996        0.0000000000000000     
  0.58667000000000002       0.75475999999999999        0.0000000000000000     
  0.51746738999999997       0.83310978000000002        0.0000000000000000     
  0.51022000000000001       0.76192000000000004        0.0000000000000000     
  0.49914890000000001       0.74624727000000002        0.0000000000000000     
  0.50311967000000002       0.80879526000000002        0.0000000000000000     
  0.50158999999999998       0.83067000000000002        0.0000000000000000     
  0.46398766000000002       0.86013877000000005        0.0000000000000000     
  0.41615999999999997       0.37445000000000001        0.0000000000000000     
  0.43026551000000002       0.31678289999999998        0.0000000000000000     
  0.39694000000000002       0.24930500000000000        0.0000000000000000     
  0.41994211999999997       0.11642168999999999        0.0000000000000000     
  0.43478000000000000       0.10487000000000000        0.0000000000000000     
  0.57060999999999995       0.13406000000000001        0.0000000000000000     
  0.69662999999999997       0.19536999999999999        0.0000000000000000     
  0.71886000000000005       0.24690999999999999        0.0000000000000000     
  0.74097999999999997       0.33731000000000000        0.0000000000000000     
  0.72538453999999997       0.37890159000000001        0.0000000000000000     
  0.73320112000000004       0.40760169000000002        0.0000000000000000     
  0.70620000000000005       0.41999999999999998        0.0000000000000000     
  0.74504999999999999       0.48705999999999999        0.0000000000000000     
  0.68996999999999997       0.48530000000000001        0.0000000000000000     
  0.66213999999999995       0.47589999999999999        0.0000000000000000     
  0.63373000000000002       0.47414000000000001        0.0000000000000000     
  0.68861000000000006       0.55347000000000002        0.0000000000000000     
  0.62687669000000001       0.62714972999999996        0.0000000000000000     
  0.51632500000000003       0.26038000000000000        0.0000000000000000     
  0.66345008000000005       0.20335998999999999        0.0000000000000000     
  0.68430000000000002       0.34078999999999998        0.0000000000000000     
  0.59737622999999995       0.42491739000000001        0.0000000000000000     
  0.55410000000000004       0.41776999999999997        0.0000000000000000     
  0.52314000000000005       0.40723999999999999        0.0000000000000000     
  0.46111999999999997       0.32850000000000001        0.0000000000000000     
  0.67330999999999996       0.19785000000000000        0.0000000000000000     
  0.69296999999999997       0.22594000000000000        0.0000000000000000     
  0.40191943000000002       0.86367486999999998        0.0000000000000000     
  0.12271248000000000       0.14762657000000001        0.0000000000000000     
  0.14852475000000001       0.12337326999999999        0.0000000000000000     
  0.74936000000000003       0.44945000000000002        0.0000000000000000     
  0.61883999999999995       0.82247000000000003        0.0000000000000000     
  0.26941311000000001       0.82690965999999999        0.0000000000000000     
  0.14224880000000001       0.37582204000000002        0.0000000000000000     
  0.16781681000000001       0.35746910999999998        0.0000000000000000     
  0.38384000000000001       0.56583499999999998        0.0000000000000000     
  0.17475499999999999       0.26156499999999999        0.0000000000000000     
  0.16588214000000001       0.27095785999999999        0.0000000000000000     
  0.19754658000000000       0.25190794000000000        0.0000000000000000     
  0.18240999999999999       0.26306000000000002        0.0000000000000000     
  0.38775999999999999       0.58301250000000004        0.0000000000000000     
   9.2598787000000002E-002  0.28369930999999998        0.0000000000000000     
  0.12988000000000000       0.31154999999999999        0.0000000000000000     
  0.15971573000000000       0.35549573000000001        0.0000000000000000     
  0.43006250000000001       0.70743999999999996        0.0000000000000000     
  0.40538000000000002       0.77361250000000004        0.0000000000000000     
  0.42100500000000002       0.81830000000000003        0.0000000000000000     
  0.41854986000000000       0.69665306000000005        0.0000000000000000     
  0.38971499999999998       0.61060999999999999        0.0000000000000000     
  0.38773564999999999       0.45901181000000002        0.0000000000000000     
  0.39590059000000000       0.45441031999999998        0.0000000000000000     
  0.38384000000000001       0.54735250000000002        0.0000000000000000     
  0.36502704000000002       0.72473217000000001        0.0000000000000000     
  0.32337357999999999       0.82795901000000005        0.0000000000000000     
  0.70706773000000001       0.36044921000000002        0.0000000000000000     
  0.74097999999999997       0.35293500000000000        0.0000000000000000     
  0.74097999999999997       0.31773499999999999        0.0000000000000000     
  0.71235000000000004       0.23181499999999999        0.0000000000000000     
  0.58099500000000004       0.12427000000000001        0.0000000000000000     
  0.50926802999999998       0.81618526000000002        0.0000000000000000     
  0.39694000000000002       0.25951249999999998        0.0000000000000000     
  0.43692275000000003       0.32087145000000000        0.0000000000000000     
  0.41615999999999997       0.32374500000000000        0.0000000000000000     
  0.43379000000000001       0.30536999999999997        0.0000000000000000     
  0.56120943999999995       0.14292195999999999        0.0000000000000000     
  0.56101000000000001       0.12778999999999999        0.0000000000000000     
  0.72713519000000004       0.36131693999999998        0.0000000000000000     
  0.74289499999999997       0.49852000000000002        0.0000000000000000     
  0.70664000000000005       0.43221999999999999        0.0000000000000000     
  0.53013999999999994       0.41189999999999999        0.0000000000000000     
  0.54561999999999999       0.41584500000000002        0.0000000000000000     
  0.71071649000000003       0.55600200000000000        0.0000000000000000     
  0.67979000000000001       0.56306999999999996        0.0000000000000000     
  0.62555094000000000       0.62995129000000005        0.0000000000000000     
  0.66964504000000002       0.20812000000000000        0.0000000000000000     
  0.58421811000000001       0.42326870000000000        0.0000000000000000     
  0.59798264000000001       0.43157266000000000        0.0000000000000000     
  0.54939000000000004       0.42473000000000000        0.0000000000000000     
  0.52732000000000001       0.40139999999999998        0.0000000000000000     
[...]
 CELL_DATA        1963
 SCALARS Nutrients float
 LOOKUP_TABLE default
    0.16315781568458845641E+02
    0.16373827162493071796E+02
    0.16218338771637238693E+02
    0.16271436180248123549E+02
    0.16341514252368320115E+02
    0.14057600836272476030E+02
    0.16438708717424159289E+02
    0.16412197833489202026E+02
    0.16280459336510780588E+02
    0.15699356907448901666E+02
    0.16003235288046301577E+02
    0.16594406774156336581E+02
    0.86710506868814896109E+01
    0.16092351531527096853E+02
    0.16168566168598697885E+02
    0.16217336047828517565E+02
    0.16131816585800265784E+02
    0.16018873769268690666E+02
    0.16087029152722095660E+02
    0.16166853719179201221E+02
    0.16027794483748046162E+02
    0.15925830494968698403E+02
    0.15453709991325787598E+02
    0.15478246991354296824E+02
    0.15903754763127006200E+02
    0.15599876007055904381E+02
    0.15748505640851899301E+02
    0.15807881913985758260E+02
    0.16127581958427306574E+02
    0.15321701128210714060E+02
    0.16622105604061005124E+02
    0.84941394049691236745E+01
    0.16726878197894741618E+02
    0.16872460438960551699E+02
    0.15906321296618262551E+02
    0.16859314008728738088E+02
    0.17055098977749189260E+02
    0.17029398053342902131E+02
    0.17172716469878398726E+02
    0.17326657822916473606E+02
    0.16945265635187528375E+02
    0.16372504778849592100E+02
    0.16441461118154272469E+02
    0.17012358050827213418E+02
    0.15911032765616218043E+02
    0.17060887090933633203E+02
    0.17839040987776730418E+02
    0.16201497163943976432E+02
    0.15276037343837643334E+02
    0.15838211550242576209E+02
    0.15043744486994814480E+02
    0.14892433426969219568E+02
    0.15573509322925584542E+02
    0.15907907218212601563E+02
    0.14566274847869230769E+02
    0.15429718357933618123E+02
    0.14394696753601039063E+02
    0.14683489424874808904E+02
    0.13921457721858233825E+02
    0.14498054146152897559E+02
    0.15644292800548804223E+02
    0.14957698735467754858E+02
    0.15926453492464341721E+02
    0.14883108857693258642E+02
    0.17237334022710648185E+02
    0.16576578057589426152E+02
    0.13318669624661762185E+02
    0.14354453978976458473E+02
    0.16176547465726958563E+02
    0.16180275621804607766E+02
    0.16263831926921643145E+02
    0.16236563544798698899E+02
    0.16109043126188559825E+02
    0.89980479962738666444E+01
    0.15580368632630738901E+02
    0.16097940878289989541E+02
    0.15766036578229071452E+02
    0.15631973757163413197E+02
    0.15080482771669220909E+02
    0.16042682947582566300E+02
    0.15060290965146016617E+02
    0.16114087766106813149E+02
    0.15793415285452052643E+02
    0.15827621355716559037E+02
    0.16217805062247425241E+02
    0.16185943372713417432E+02
    0.16152889628816776479E+02
    0.16280109001944925495E+02
    0.16129303844256693168E+02
    0.16292953944404494848E+02
    0.15408913280948596025E+02
    0.15446953090806044173E+02
    0.15638438226994137992E+02
    0.15913431808223119646E+02
    0.15194840724424889089E+02
    0.16027442536361292014E+02
    0.14799420256899846748E+02
    0.15926420829646160016E+02
    0.16111973263392044942E+02
    0.15250818174643718805E+02
    0.15278629094078622686E+02
    0.15803191869305107886E+02
    0.14933925547204269790E+02
    0.15393389452527253880E+02
    0.14466076205156054968E+02
    0.14713823184710253855E+02
    0.14564380066341573894E+02
    0.15069830920671543950E+02
    0.13580642016327823640E+02
    0.14433413049110503934E+02
    0.13114316643058117506E+02
    0.13627085063110174090E+02
    0.13286902825849193022E+02
    0.14098208679882519689E+02
    0.12903587491448234914E+02
    0.13953763153574801237E+02
    0.15084658045906737200E+02
    0.13386822249639680038E+02
    0.14242127459942802048E+02
    0.14425443631116369403E+02
    0.14101607667788721656E+02
    0.14479503156896678107E+02
    0.14270410026240341494E+02
    0.14623213891898373618E+02
    0.12706480366404351301E+02
    0.13537246896437602928E+02
    0.13331271140648734530E+02
    0.13984991039306548188E+02
    0.12476453410736541016E+02
    0.13971223416578139265E+02
    0.12739349874927730966E+02
    0.13917523786618881232E+02
    0.13334115779283164827E+02
    0.13161685540381180104E+02
    0.12597517586563906633E+02
    0.14762675406497884012E+02
    0.14188564230819414647E+02
    0.14728272272890784222E+02
    0.14400567148700579523E+02
    0.85478830582933280624E+01
    0.18630661070312694250E+02
    0.20031835803533855511E+02
    0.18150413576047075281E+02
    0.18775091072053996299E+02
    0.18684713875796660432E+02
    0.13919586203402522173E+02
    0.20562752421622541021E+02
    0.13748001312671178198E+02
    0.19453258625556856032E+02
    0.20679462391047600534E+02
    0.19916572291202580658E+02
    0.19375795574341037053E+02
    0.18166094711688902663E+02
    0.19785632894532902526E+02
    0.95280623450640256067E+01
    0.19263807966161682117E+02
    0.17856746493370511786E+02
    0.18218046954134965887E+02
    0.16895449387631185090E+02
    0.17458059434712726699E+02
    0.17258010952316137576E+02
    0.17493851526619582870E+02
    0.17660967832277535194E+02
    0.18500304556001790246E+02
    0.15986429791657613464E+02
    0.17336888125624575707E+02
    0.17292243783446149763E+02
    0.16268073042351783641E+02
    0.17880602885844478322E+02
    0.18179013415776029916E+02
    0.18496914010766776215E+02
    0.16738197039147525658E+02
    0.21127259800307115256E+02
    0.16809494602303125532E+02
    0.20734246357906009450E+02
    0.14142759581414118486E+02
    0.19313048485789931163E+02
    0.21076883902233063850E+02
    0.20546703638294339100E+02
    0.19099967202515401254E+02
    0.13755251208865521662E+02
    0.96595934900604092377E+01
    0.18809039699231664855E+02
    0.19577710615238032688E+02
    0.18183398320099975365E+02
    0.19274483051361578134E+02
    0.18314365466147112471E+02
    0.19897579013319091956E+02
    0.12725156849673778581E+02
    0.18593775487981186956E+02
    0.17935402507949557815E+02
    0.18829136813076946311E+02
    0.17073461693241778647E+02
    0.17825301387049346857E+02
    0.18572976095126112028E+02
    0.17084217054686508419E+02
    0.18263008594573484800E+02
    0.18567181398893907840E+02
    0.16814221428009449966E+02
    0.17644893058364754523E+02
    0.14487412693914963668E+02
    0.13396803410098877762E+02
    0.17333515891395215647E+02
    0.17582367246294911212E+02
    0.17527694258209496780E+02
    0.15431953565072737078E+02
    0.15932209249294055908E+02
    0.21050692617888145719E+02
    0.94119885445282811531E+01
    0.16296164690513386120E+02
    0.14014383437705912883E+02
    0.15659486866702209795E+02
    0.13685886389244425132E+02
    0.14083166365340897386E+02
    0.15405516169291548323E+02
    0.14959909344294016975E+02
    0.14341594469714618043E+02
    0.14898924987512215168E+02
    0.14114486229066923073E+02
    0.13540075549345685246E+02
    0.13289380309825082449E+02
    0.13159432452152223902E+02
    0.14306628494438191623E+02
    0.13324460675517858732E+02
    0.15347597577664508606E+02
    0.12785941639136696679E+02
    0.12167737502991830212E+02
    0.12893678863999451067E+02
    0.12205192519194685730E+02
    0.11839694462690610877E+02
    0.12654341607955837290E+02
    0.12356087176689390716E+02
    0.12669434009884076531E+02
    0.12428992621484180603E+02
    0.11529225408368459327E+02
    0.11567357209513792426E+02
    0.10750589409958305254E+02
    0.12364846586163411146E+02
    0.12304886854587545386E+02
    0.12799607828145429522E+02
    0.13021964412012623669E+02
    0.11331476597434363640E+02
    0.13297810793970405996E+02
    0.13556502994728120370E+02
    0.14515739381148257792E+02
    0.15778301610737843319E+02
    0.12647677627998046290E+02
    0.13263095004914207564E+02
    0.15303403016478261733E+02
    0.13472746802470300764E+02
    0.14420059573223818816E+02
    0.15650691900245824684E+02
    0.15156738385784944256E+02
    0.16271895519917841000E+02
    0.16091436385650904839E+02
    0.12146278039638874091E+02
    0.16242268351936399284E+02
    0.14138501123359525025E+02
    0.10736934187716146383E+02
    0.93662187750971348521E+01
    0.89069569224088542825E+01
    0.12370935870990548366E+02
    0.83193312773824725781E+01
    0.86588583558227742998E+01
    0.15116564747534845026E+02
    0.12484033299399612815E+02
    0.15433177999187023488E+02
    0.11892271461530688370E+02
    0.17383792982081420320E+02
    0.16422564470997773611E+02
    0.10365728254657753382E+02
    0.15153737885976518385E+02
    0.10962446549355872705E+02
    0.15010523758987574183E+02
    0.15237872840825010812E+02
    0.11308968810052316911E+02
    0.12737057488765605839E+02
    0.14656904548889125195E+02
    0.16157626669890486681E+02
    0.83965969509836551055E+01
    0.96252964816123682823E+01
    0.17584964234630270141E+02
    0.85692425950924349110E+01
    0.12198248947710228052E+02
    0.16056843250716980265E+02
    0.16082949343764205707E+02
    0.88729271011334773789E+01
    0.15830709943804349038E+02
    0.15908672042008518588E+02
    0.16209102835969549261E+02
    0.15624705056575407980E+02
    0.15761710950638535778E+02
    0.15410712299570112904E+02
    0.15814523134381119007E+02
    0.15195436441306686248E+02
    0.15568725929618203452E+02
    0.15439617184060127286E+02
    0.15843289255474152455E+02
    0.16029814814989951088E+02
    0.15338821275028966085E+02
    0.15067285061374308341E+02
    0.15435578658471026614E+02
    0.11440750576635508651E+02
    0.14993077876432185036E+02
    0.15150839338638514064E+02
    0.13632138290555543492E+02
    0.14918909631938912952E+02
    0.14732907669811650564E+02
    0.14759631215201039822E+02
    0.14840249409278159831E+02
    0.15000460065071060001E+02
    0.14967422553820114217E+02
    0.14219389031164768156E+02
    0.15066204368921155776E+02
    0.15078343700755041823E+02
    0.15058275167653961901E+02
    0.15387188566553502866E+02
    0.96133084614404875623E+01
    0.14540311238633554680E+02
    0.15046960723160314188E+02
    0.14645367948322222773E+02
    0.14908658270558918346E+02
    0.14235946926721748440E+02
    0.15282197929736206277E+02
    0.13002188312308231133E+02
    0.14217318090339365000E+02
    0.13322210491225630946E+02
    0.12556280707493174376E+02
    0.11686928512514588974E+02
    0.13212665288864357649E+02
    0.12326477837656835135E+02
    0.13659238871967485096E+02
    0.14932529902904082775E+02
    0.13830961342782797985E+02
    0.14608987624080560508E+02
    0.14342996707254082267E+02
    0.13854196482395055412E+02
    0.14492500316419597794E+02
    0.14095701803166020838E+02
    0.14825039214066515925E+02
    0.12852415298291306911E+02
    0.14445538021273398144E+02
    0.13889905507136505847E+02
    0.13387561807742002884E+02
    0.12712153651795974341E+02
    0.14709581713897144084E+02
    0.13421978336418463940E+02
    0.13491721391551767084E+02
    0.14261346611251306982E+02
    0.14773591965626861722E+02
    0.12229691956296951716E+02
    0.15202286104598892180E+02
    0.13421816905598088709E+02
    0.13610247256328909415E+02
    0.15256963280288799112E+02
    0.15151946734462995892E+02
    0.15361991773493121727E+02
    0.15334636949693521757E+02
    0.15150823203352915769E+02
    0.15500392040085611001E+02
    0.14735208936110645084E+02
    0.14908627183884398448E+02
    0.14766580820509481953E+02
    0.14865743065938454848E+02
    0.14582199691000758079E+02
    0.15173621423913960626E+02
    0.14455786844879376929E+02
    0.14985210483150162020E+02
    0.14832998644291995660E+02
    0.14924439734324881357E+02
    0.15676534518861226175E+02
    0.15573746204363017043E+02
    0.15279191477785026620E+02
    0.15505179262401581397E+02
    0.15274618823738233431E+02
    0.12594175818865361194E+02
    0.15081907308191539130E+02
    0.14698258912980449509E+02
    0.14970478332987854131E+02
    0.15136808750859085393E+02
    0.14909159083809401025E+02
    0.15436941476950176266E+02
    0.14746104950887980678E+02
    0.15320943842228134102E+02
    0.15504408018299834282E+02
    0.12701082461779238386E+02
    0.14438445835334499989E+02
    0.16129019302531261815E+02
    0.13834361421650051227E+02
    0.13318982020297514879E+02
    0.14091049671122879872E+02
    0.13671563841568023179E+02
    0.13437809383995849899E+02
    0.14457796745812149908E+02
    0.13151070894350336715E+02
    0.12717833837698025334E+02
    0.13035571681761837226E+02
    0.12842971809016693996E+02
    0.13503088588266491499E+02
    0.13347660080383569436E+02
    0.12080057872353254567E+02
    0.12483047292444512166E+02
    0.12881451247981631880E+02
    0.13093138919909176110E+02
    0.14724945513274429132E+02
    0.14674695212454700766E+02
    0.14766973983147030580E+02
    0.14836949855842110679E+02
    0.14276574430678289573E+02
    0.14909598339003228062E+02
    0.14338899381529552457E+02
    0.14430292735308110963E+02
    0.14878431194905768820E+02
    0.14610568955289757298E+02
    0.14156509111758522224E+02
    0.14870100534867292552E+02
    0.14204800251133372413E+02
    0.14796511869549446416E+02
    0.13897545036031759835E+02
    0.12071212981369995987E+02
    0.12217662058599755071E+02
    0.13811270686316875711E+02
    0.14108542794600396064E+02
    0.14857260333709252365E+02
    0.11211461366636530812E+02
    0.13604904931309135918E+02
    0.10334857591619924122E+02
    0.12385282668751250057E+02
    0.93840299896923244916E+01
    0.11072191937879020784E+02
    0.86015794775116010129E+01
    0.11039559829392395329E+02
    0.88181195376767167460E+01
    0.87881990324544538851E+01
    0.10313061057741601090E+02
    0.10167777396235852194E+02
    0.93677545968133681953E+01
    0.11288683676606941830E+02
    0.84365072687334343726E+01
    0.85653087788351829346E+01
    0.84716374675922061499E+01
    0.10810022646077753095E+02
    0.13594677662464439649E+02
    0.13808412971539627989E+02
    0.14678885986507737016E+02
    0.14470120460946693797E+02
    0.13245206656174156379E+02
    0.15012601240802823099E+02
    0.11859677959878533571E+02
    0.10945703041803710676E+02
    0.12038582542989134438E+02
    0.13907415466930002523E+02
    0.14443461713589680784E+02
    0.12366429449797610829E+02
    0.14120719607777170168E+02
    0.12995130208616206602E+02
    0.13371488875468642732E+02
    0.14160812392975614671E+02
    0.10961459891254694554E+02
    0.13891902417871751396E+02
    0.84795177110530595144E+01
    0.87167399890573626919E+01
    0.84740143138552781465E+01
    0.85105521210150332223E+01
    0.20175055388431129444E+02
    0.84625172116626856678E+01
    0.90269823443732537527E+01
    0.84692749339599391334E+01
    0.86083969093387757709E+01
    0.85024297178407071129E+01
    0.85661385176333606495E+01
    0.85034526327664732293E+01
    0.86920157158679121068E+01
    0.85509332977345238191E+01
    0.96814618880622322905E+01
    0.85748161066863328728E+01
    0.12106865839159674181E+02
    0.12142931326182052842E+02
    0.13241274462498617837E+02
    0.13831382083150325357E+02
    0.12539834028683371159E+02
    0.11003071181925713873E+02
    0.10311313751377614523E+02
    0.89502764346762031522E+01
    0.13286546792042200238E+02
    0.11671087107469306332E+02
    0.97852594674084301118E+01
    0.12250301200308815197E+02
    0.11726421537913804372E+02
    0.99308168714516771303E+01
    0.89715165356302044586E+01
    0.14034522390280404380E+02
    0.84798502210240780386E+01
    0.82735074978325613415E+01
    0.11483052113384568216E+02
    0.14851440436389005129E+02
    0.15178209794304214242E+02
    0.15221111280992030146E+02
    0.15446884077747180086E+02
    0.15295170713032604226E+02
    0.14990927718815632019E+02
    0.15039503603605048454E+02
    0.15285666061616844047E+02
    0.14853339235467178270E+02
    0.15087093683374829922E+02
    0.15897906470680741364E+02
    0.15503107044011885662E+02
    0.15332034216024196027E+02
    0.15681553881182589194E+02
    0.14673832166782089459E+02
    0.14634681623971523834E+02
    0.16043193645311866646E+02
    0.16001936484963717788E+02
    0.15520867257863448785E+02
    0.15852691094571932595E+02
    0.16595312527209735265E+02
    0.15611373755088864712E+02
    0.12185856100654046230E+02
    0.16891675543884915101E+02
    0.16055293108404736557E+02
    0.17596797730210024469E+02
    0.17331585491217378348E+02
    0.17622559853214330161E+02
    0.14937629251411983944E+02
    0.17763913278772932358E+02
    0.16988299082724118705E+02
    0.16560950298437859374E+02
    0.14566656325070683309E+02
    0.16662732422272082289E+02
    0.13217046989679232638E+02
    0.14944064957957515105E+02
    0.15165053505004232548E+02
    0.16998491174099676471E+02
    0.15659298959380942406E+02
    0.15605014815899565406E+02
    0.15242151198362927644E+02
    0.15557380262507781055E+02
    0.14568210497138656123E+02
    0.17199060270721535204E+02
    0.16095094039550161824E+02
    0.18409174819556469060E+02
    0.17035277042515300394E+02
    0.16441667945123736416E+02
    0.16064225616903033966E+02
    0.14865074578997024446E+02
    0.17546228984557963315E+02
    0.18327470705974889142E+02
    0.18255964284070199000E+02
    0.11057992529734981701E+02
    0.19469079408707059997E+02
    0.18638933300700660567E+02
    0.18089952509649613432E+02
    0.19028580322000671288E+02
    0.18306386814887076753E+02
    0.19669727846909925262E+02
    0.19059403220691635283E+02
    0.15500145984301287427E+02
    0.19251677150329587818E+02
    0.11695001704951843990E+02
    0.18042449011161071581E+02
    0.18423947775738973576E+02
    0.12992178816931501117E+02
    0.12231292129198756413E+02
    0.15950594523857336782E+02
    0.14343508011596584950E+02
    0.13091367028927185956E+02
    0.16460770174606121685E+02
    0.12138863080281545592E+02
    0.18581854409219186408E+02
    0.14340234674974844609E+02
    0.15736013176781412426E+02
    0.15598228441445900927E+02
    0.19993813102899743228E+02
    0.13758645775643044473E+02
    0.19471499470928314679E+02
    0.19644677126546334023E+02
    0.20186504864059891418E+02
    0.18794811889501080060E+02
    0.19756749524198259138E+02
    0.19744386215318336042E+02
    0.19087791093148570809E+02
    0.19457559007259192185E+02
    0.16866488178093707262E+02
    0.19145276716425030372E+02
    0.20006597807630559060E+02
    0.20066710643483531840E+02
    0.12067470522483327855E+02
    0.18769108748561464495E+02
    0.14084199652418051940E+02
    0.14860317436764479027E+02
    0.13297642226363194595E+02
    0.13410049207694317630E+02
    0.13786978858566856232E+02
    0.17742766338444489804E+02
    0.13772488779479417076E+02
    0.18175380390840281564E+02
    0.13674615441489388346E+02
    0.14224984581086149049E+02
    0.14512184128242987313E+02
    0.12990035028870268619E+02
    0.14101253533163836451E+02
    0.16297109952925445953E+02
    0.16441173204415921560E+02
    0.13029176634289745706E+02
    0.18580965250695197000E+02
    0.12808800174870077271E+02
    0.17585709111557584094E+02
    0.18129325124228490296E+02
    0.16465096420974614233E+02
    0.17656316774762359501E+02
    0.18805455150990901814E+02
    0.19363827720766604301E+02
    0.18120099972367825103E+02
    0.19287569254517482165E+02
    0.17006273720943294592E+02
    0.17787517793800102339E+02
    0.17505879278480907857E+02
    0.16887559364232544112E+02
    0.18636424901403870535E+02
    0.18089622090948772382E+02
    0.13637626642506152308E+02
    0.16763948094637473929E+02
    0.13850429765525580805E+02
    0.13922705677688220760E+02
    0.11045742286211821082E+02
    0.11588372001542017742E+02
    0.11046847596558629689E+02
    0.14736765516128864206E+02
    0.12748267208402168649E+02
    0.15145175481610742452E+02
    0.10443075477080109081E+02
    0.11610410856964236359E+02
    0.66701795202018123732E+01
    0.88529805529346585757E+01
    0.14364283501124011977E+02
    0.15167216128569465994E+02
    0.16209691713030643712E+02
    0.10780413821091904936E+02
    0.97817571493028037111E+01
    0.15922365579402438129E+02
    0.13855432791317563002E+02
    0.79219389189359965542E+01