# vtk DataFile Version 3.0
LAPLACIEN  2D
ASCII
DATASET UNSTRUCTURED_GRID
 POINTS        1083  float
  0.25752000000000003       0.83521000000000001        0.0000000000000000     
  0.26692436000000003       0.82361669999999998        0.0000000000000000     
  0.12755760999999999       0.37286407999999999        0.0000000000000000     
  0.16947000000000001       0.36312000000000000        0.0000000000000000     
  0.20556749999999999       0.30943999999999999        0.0000000000000000     
  0.19808000000000001       0.30240000000000000        0.0000000000000000     
  0.17829000000000000       0.29613000000000000        0.0000000000000000     
  0.16072427000000000       0.27611573000000000        0.0000000000000000     
  0.20518000000000000       0.25756000000000001        0.0000000000000000     
  0.14513182999999999       0.15495659000000001        0.0000000000000000     
  0.18475000000000000       0.25733000000000000        0.0000000000000000     
  0.15320000000000000       0.28981000000000001        0.0000000000000000     
   8.4010000000000001E-002  0.28726000000000002        0.0000000000000000     
  0.12066000000000000       0.31644000000000000        0.0000000000000000     
  0.15419146000000000       0.34997146000000001        0.0000000000000000     
   9.1609999999999997E-002  0.41126000000000001        0.0000000000000000     
   8.2839999999999997E-002  0.24906000000000000        0.0000000000000000     
  0.10719500000000000       0.24906000000000000        0.0000000000000000     
  0.10394500000000000       0.24026000000000000        0.0000000000000000     
  0.10306999999999999       0.16439999999999999        0.0000000000000000     
  0.20605000000000001        7.9089999999999994E-002   0.0000000000000000     
  0.42243181000000002       0.83768843000000004        0.0000000000000000     
  0.40538000000000002       0.78705000000000003        0.0000000000000000     
  0.42062500000000003       0.70743999999999996        0.0000000000000000     
  0.39167000000000002       0.62682000000000004        0.0000000000000000     
  0.38775999999999999       0.57162500000000005        0.0000000000000000     
  0.39058282000000000       0.54871530000000002        0.0000000000000000     
  0.39464117999999998       0.46212064000000003        0.0000000000000000     
  0.39241130000000002       0.45290363000000000        0.0000000000000000     
  0.38384000000000001       0.55516500000000002        0.0000000000000000     
  0.38069999999999998       0.59557000000000004        0.0000000000000000     
  0.36735092000000003       0.72975095999999995        0.0000000000000000     
  0.37138180999999998       0.84873708999999997        0.0000000000000000     
  0.31856716000000002       0.83411802999999995        0.0000000000000000     
  0.65566999999999998       0.71865999999999997        0.0000000000000000     
  0.62348499999999996       0.71865999999999997        0.0000000000000000     
  0.63253999999999999       0.72650000000000003        0.0000000000000000     
  0.63397590999999998       0.79238797000000005        0.0000000000000000     
  0.61133999999999999       0.77437999999999996        0.0000000000000000     
  0.58667000000000002       0.75475999999999999        0.0000000000000000     
  0.51746738999999997       0.83310978000000002        0.0000000000000000     
  0.51022000000000001       0.76192000000000004        0.0000000000000000     
  0.49914890000000001       0.74624727000000002        0.0000000000000000     
  0.50311967000000002       0.80879526000000002        0.0000000000000000     
  0.50158999999999998       0.83067000000000002        0.0000000000000000     
  0.46398766000000002       0.86013877000000005        0.0000000000000000     
  0.41615999999999997       0.37445000000000001        0.0000000000000000     
  0.43026551000000002       0.31678289999999998        0.0000000000000000     
  0.39694000000000002       0.24930500000000000        0.0000000000000000     
  0.41994211999999997       0.11642168999999999        0.0000000000000000     
  0.43478000000000000       0.10487000000000000        0.0000000000000000     
  0.57060999999999995       0.13406000000000001        0.0000000000000000     
  0.69662999999999997       0.19536999999999999        0.0000000000000000     
  0.71886000000000005       0.24690999999999999        0.0000000000000000     
  0.74097999999999997       0.33731000000000000        0.0000000000000000     
  0.72538453999999997       0.37890159000000001        0.0000000000000000     
  0.73320112000000004       0.40760169000000002        0.0000000000000000     
  0.70620000000000005       0.41999999999999998        0.0000000000000000     
  0.74504999999999999       0.48705999999999999        0.0000000000000000     
  0.68996999999999997       0.48530000000000001        0.0000000000000000     
  0.66213999999999995       0.47589999999999999        0.0000000000000000     
  0.63373000000000002       0.47414000000000001        0.0000000000000000     
  0.68861000000000006       0.55347000000000002        0.0000000000000000     
  0.62687669000000001       0.62714972999999996        0.0000000000000000     
  0.51632500000000003       0.26038000000000000        0.0000000000000000     
  0.66345008000000005       0.20335998999999999        0.0000000000000000     
  0.68430000000000002       0.34078999999999998        0.0000000000000000     
  0.59737622999999995       0.42491739000000001        0.0000000000000000     
  0.55410000000000004       0.41776999999999997        0.0000000000000000     
  0.52314000000000005       0.40723999999999999        0.0000000000000000     
  0.46111999999999997       0.32850000000000001        0.0000000000000000     
  0.67330999999999996       0.19785000000000000        0.0000000000000000     
  0.69296999999999997       0.22594000000000000        0.0000000000000000     
  0.40191943000000002       0.86367486999999998        0.0000000000000000     
  0.12271248000000000       0.14762657000000001        0.0000000000000000     
  0.14852475000000001       0.12337326999999999        0.0000000000000000     
  0.74936000000000003       0.44945000000000002        0.0000000000000000     
  0.61883999999999995       0.82247000000000003        0.0000000000000000     
  0.26941311000000001       0.82690965999999999        0.0000000000000000     
  0.14224880000000001       0.37582204000000002        0.0000000000000000     
  0.16781681000000001       0.35746910999999998        0.0000000000000000     
  0.38384000000000001       0.56583499999999998        0.0000000000000000     
  0.17475499999999999       0.26156499999999999        0.0000000000000000     
  0.16588214000000001       0.27095785999999999        0.0000000000000000     
  0.19754658000000000       0.25190794000000000        0.0000000000000000     
  0.18240999999999999       0.26306000000000002        0.0000000000000000     
  0.38775999999999999       0.58301250000000004        0.0000000000000000     
   9.2598787000000002E-002  0.28369930999999998        0.0000000000000000     
  0.12988000000000000       0.31154999999999999        0.0000000000000000     
  0.15971573000000000       0.35549573000000001        0.0000000000000000     
  0.43006250000000001       0.70743999999999996        0.0000000000000000     
  0.40538000000000002       0.77361250000000004        0.0000000000000000     
  0.42100500000000002       0.81830000000000003        0.0000000000000000     
  0.41854986000000000       0.69665306000000005        0.0000000000000000     
  0.38971499999999998       0.61060999999999999        0.0000000000000000     
  0.38773564999999999       0.45901181000000002        0.0000000000000000     
  0.39590059000000000       0.45441031999999998        0.0000000000000000     
  0.38384000000000001       0.54735250000000002        0.0000000000000000     
  0.36502704000000002       0.72473217000000001        0.0000000000000000     
  0.32337357999999999       0.82795901000000005        0.0000000000000000     
  0.70706773000000001       0.36044921000000002        0.0000000000000000     
  0.74097999999999997       0.35293500000000000        0.0000000000000000     
  0.74097999999999997       0.31773499999999999        0.0000000000000000     
  0.71235000000000004       0.23181499999999999        0.0000000000000000     
  0.58099500000000004       0.12427000000000001        0.0000000000000000     
  0.50926802999999998       0.81618526000000002        0.0000000000000000     
  0.39694000000000002       0.25951249999999998        0.0000000000000000     
  0.43692275000000003       0.32087145000000000        0.0000000000000000     
  0.41615999999999997       0.32374500000000000        0.0000000000000000     
  0.43379000000000001       0.30536999999999997        0.0000000000000000     
  0.56120943999999995       0.14292195999999999        0.0000000000000000     
  0.56101000000000001       0.12778999999999999        0.0000000000000000     
  0.72713519000000004       0.36131693999999998        0.0000000000000000     
  0.74289499999999997       0.49852000000000002        0.0000000000000000     
  0.70664000000000005       0.43221999999999999        0.0000000000000000     
  0.53013999999999994       0.41189999999999999        0.0000000000000000     
  0.54561999999999999       0.41584500000000002        0.0000000000000000     
  0.71071649000000003       0.55600200000000000        0.0000000000000000     
  0.67979000000000001       0.56306999999999996        0.0000000000000000     
  0.62555094000000000       0.62995129000000005        0.0000000000000000     
  0.66964504000000002       0.20812000000000000        0.0000000000000000     
  0.58421811000000001       0.42326870000000000        0.0000000000000000     
  0.59798264000000001       0.43157266000000000        0.0000000000000000     
  0.54939000000000004       0.42473000000000000        0.0000000000000000     
  0.52732000000000001       0.40139999999999998        0.0000000000000000     
[...]
 CELL_DATA        1963
 SCALARS Nutrients float
 LOOKUP_TABLE default
    0.16684656653641383173E+02
    0.16746915097604670564E+02
    0.16666918984869813158E+02
    0.16696717052469299603E+02
    0.16717551025235305673E+02
    0.14145565081376901162E+02
    0.16800010336456324467E+02
    0.16750339825278100392E+02
    0.16620958570574000390E+02
    0.15912225485668878733E+02
    0.16280863178742446706E+02
    0.16976779080015131029E+02
    0.86343315693844040482E+01
    0.16456193335676136513E+02
    0.16685862004512074463E+02
    0.16727392995088901984E+02
    0.16682716750285742080E+02
    0.16482133416428450090E+02
    0.16557958717653889380E+02
    0.16728021798501707451E+02
    0.16435605027327223837E+02
    0.16278043896656566147E+02
    0.15660516290521773186E+02
    0.15656522720209990140E+02
    0.16303443845125968892E+02
    0.15861387870863206118E+02
    0.16006955998886009951E+02
    0.16139650129253933386E+02
    0.16527226980188949312E+02
    0.15515653196683230064E+02
    0.17012432761663308867E+02
    0.84598143960534102348E+01
    0.17180027119192398999E+02
    0.17351643721001366316E+02
    0.16153189789917124841E+02
    0.17344694350974290131E+02
    0.17592493926751554767E+02
    0.17558721262394055174E+02
    0.17743653592201415137E+02
    0.17909620718869149414E+02
    0.17502992749824983321E+02
    0.16827540367217189043E+02
    0.16875198320639906768E+02
    0.17544552590203061015E+02
    0.16279900201287865968E+02
    0.17612697272989791486E+02
    0.18405910049334028855E+02
    0.16574287534406277445E+02
    0.15411234482518361588E+02
    0.16061009072327404823E+02
    0.15128732280898120166E+02
    0.14969963814922035539E+02
    0.15759899341473714074E+02
    0.16185162408758952068E+02
    0.14676633504092725602E+02
    0.15659334629354894730E+02
    0.14475341655659272888E+02
    0.14772529353364134863E+02
    0.14015132615794057003E+02
    0.14578650290508925025E+02
    0.15930836233068895069E+02
    0.15050042619397526522E+02
    0.16264876642798270723E+02
    0.14984108911723463819E+02
    0.17817930010306614719E+02
    0.16961240613580329750E+02
    0.13511644349971534851E+02
    0.14443750799812375973E+02
    0.16762826687892950162E+02
    0.16766545064099382500E+02
    0.16927510915457251173E+02
    0.16864369876311350538E+02
    0.16666094480489931584E+02
    0.92637581239021873358E+01
    0.15858484869196770362E+02
    0.16645121224406196347E+02
    0.16137821815437675355E+02
    0.15946440456937169827E+02
    0.15381683991982072257E+02
    0.16554993088079825725E+02
    0.15333708480119122797E+02
    0.16669235974615766338E+02
    0.16154606723533266432E+02
    0.16246369021315146597E+02
    0.16918156786272540160E+02
    0.16821237318165866981E+02
    0.16914583216867043802E+02
    0.17027456143192747362E+02
    0.16810264662648531697E+02
    0.16983531211775854786E+02
    0.15804928001666240789E+02
    0.15816697312993364122E+02
    0.16170926369848590554E+02
    0.16489519527010401134E+02
    0.15582404299376831247E+02
    0.16702712650743897882E+02
    0.15134908142173621570E+02
    0.16485609470804917009E+02
    0.16698428216245815747E+02
    0.15672573328876197252E+02
    0.15489090620446928526E+02
    0.16161006204021685306E+02
    0.15084316387422667560E+02
    0.15610109477620204288E+02
    0.14675978666616781965E+02
    0.14918683447862548519E+02
    0.14717412189665056488E+02
    0.15255406094788218851E+02
    0.13713166620128387052E+02
    0.14540840138342987942E+02
    0.13256117097063695454E+02
    0.13785454267539162032E+02
    0.13395773213268896029E+02
    0.14295622108351794921E+02
    0.13023426223847264893E+02
    0.14123819728762702752E+02
    0.15236522222416338579E+02
    0.13545264841113516141E+02
    0.14489032450993216017E+02
    0.14668444532961025573E+02
    0.14416761265473851950E+02
    0.14824325107561881154E+02
    0.14546987500620527811E+02
    0.14926355367871195767E+02
    0.12842047782498898556E+02
    0.13721832153657638642E+02
    0.13567578233511332186E+02
    0.14252229314176666719E+02
    0.12615350843991070207E+02
    0.14286595546126356737E+02
    0.12870999065679971096E+02
    0.14145558710025143867E+02
    0.13509810346563495997E+02
    0.13387534815323663295E+02
    0.12706247751437301119E+02
    0.15049623632877825230E+02
    0.14309808198068058260E+02
    0.15106969875379165913E+02
    0.14480788497351438693E+02
    0.85287142936246365110E+01
    0.19192457009924272171E+02
    0.20920397240713469955E+02
    0.18701566739219046553E+02
    0.19353072243303724775E+02
    0.19226059035173857836E+02
    0.14042630647661153986E+02
    0.21651694349614665214E+02
    0.13799660861730416173E+02
    0.20173178308429093875E+02
    0.21831061012345841732E+02
    0.20828656719499132777E+02
    0.20060036060605668240E+02
    0.18575151585931578779E+02
    0.20594029004717839371E+02
    0.95506519059741314948E+01
    0.19945697240611107048E+02
    0.18399068136159545617E+02
    0.18757048751537091391E+02
    0.17459137098766134955E+02
    0.18044606151731660049E+02
    0.17751673128259184864E+02
    0.18074281311957999918E+02
    0.18068527390675967581E+02
    0.18992342197554457073E+02
    0.16062866036107003254E+02
    0.17749933818720339929E+02
    0.17513952949441730311E+02
    0.16300634395131503140E+02
    0.18210479585867101804E+02
    0.18644405910070833698E+02
    0.19036540794880156824E+02
    0.17264000232005326296E+02
    0.22485479818207064540E+02
    0.17360275473882953889E+02
    0.22043422029918929184E+02
    0.14219108270370750091E+02
    0.20153652648474086106E+02
    0.22477218001027846839E+02
    0.21813727748453334954E+02
    0.19796296009611122457E+02
    0.14333023439670167676E+02
    0.10983806673771997708E+02
    0.19560545204988244450E+02
    0.20561461358185464832E+02
    0.18889956696820760840E+02
    0.20124744468338398917E+02
    0.19027539166679634519E+02
    0.20969121233845140040E+02
    0.13309568708182130337E+02
    0.19285647849348837468E+02
    0.18350884015848876629E+02
    0.19495728563188841065E+02
    0.17340458658648408630E+02
    0.18259529401066913579E+02
    0.19234207534111277482E+02
    0.17242198271895993855E+02
    0.18810082396993060172E+02
    0.19240324627281641057E+02
    0.17270438550400456279E+02
    0.18073038854859650115E+02
    0.15063912674266958902E+02
    0.12979397026960937112E+02
    0.17965549710536375727E+02
    0.17988781290988963946E+02
    0.18178654418970463524E+02
    0.15317253000133582930E+02
    0.16394089429780830613E+02
    0.22409638083309154410E+02
    0.94182300043189535188E+01
    0.16712985512548218736E+02
    0.14076239932227446516E+02
    0.15986932523067601153E+02
    0.13752141064093580169E+02
    0.14165627573701124575E+02
    0.15697541132887950610E+02
    0.15134827219367604556E+02
    0.14445219275028236439E+02
    0.15092614567996038843E+02
    0.14191287093424552523E+02
    0.13531851473327920488E+02
    0.13233614442970711877E+02
    0.13185735775578303119E+02
    0.14391502350153025702E+02
    0.13295791696703256335E+02
    0.15624610716554267142E+02
    0.12751414945401620571E+02
    0.12216052759764583158E+02
    0.12976114843973732604E+02
    0.12297850659160593167E+02
    0.11875353233098264738E+02
    0.12731655869762562361E+02
    0.12422949663908164908E+02
    0.12704153995562418089E+02
    0.12394822871417549237E+02
    0.11430540204424286088E+02
    0.11494243744968267507E+02
    0.10596233965830602841E+02
    0.12411961522305634986E+02
    0.12286445350269827870E+02
    0.12835240203767279255E+02
    0.13070476228913403105E+02
    0.11303589029314499825E+02
    0.13280327434349617377E+02
    0.13638418171708993398E+02
    0.14574799722028993543E+02
    0.16113830469406014601E+02
    0.12578078182015765663E+02
    0.13187138063555323697E+02
    0.15483094044583225468E+02
    0.13405580842850980616E+02
    0.14310349611497438005E+02
    0.15715639985934327427E+02
    0.14922615055403472439E+02
    0.16996945767827469354E+02
    0.16860447641986265666E+02
    0.11895318653238607709E+02
    0.16865540111244662569E+02
    0.14093635260786207652E+02
    0.10301653065999515135E+02
    0.90205465054493156885E+01
    0.85986002624764612534E+01
    0.12253350223149254816E+02
    0.80882718739902763616E+01
    0.83763720408576958221E+01
    0.15848067359476315730E+02
    0.12468872002579997726E+02
    0.16362107014107806435E+02
    0.12598562023935217624E+02
    0.17943445868556128886E+02
    0.17084085365748872931E+02
    0.11276930529686303828E+02
    0.15364626280699384964E+02
    0.11935302617678749115E+02
    0.15645177926415147596E+02
    0.15871638291022794220E+02
    0.11224475933043633447E+02
    0.13338981148651027908E+02
    0.14776389955911811924E+02
    0.16562309254318861917E+02
    0.81441702466960812501E+01
    0.10227915882067184938E+02
    0.18168403117366722199E+02
    0.85395175262346079137E+01
    0.12306370943349358882E+02
    0.16819509697118316893E+02
    0.16824906669583615582E+02
    0.90872300361635929278E+01
    0.16568975030137536919E+02
    0.16650524458062342603E+02
    0.16976186239023366653E+02
    0.16221885500139638481E+02
    0.16347689565100708364E+02
    0.16030629997563231370E+02
    0.16515789620555732853E+02
    0.15788190681497765055E+02
    0.16248724245919593301E+02
    0.16051835497073934533E+02
    0.16521228629674972410E+02
    0.16739850576026825024E+02
    0.15983345872812501298E+02
    0.15672916937077705057E+02
    0.16100227904996664563E+02
    0.12259421459181075065E+02
    0.15598773233248435233E+02
    0.15763326745381579741E+02
    0.14927586111060493934E+02
    0.15457925719650436491E+02
    0.15188360019315801708E+02
    0.15245653231146198081E+02
    0.15394036069144291901E+02
    0.15638239897346361218E+02
    0.15554045530335558922E+02
    0.14551270057145311299E+02
    0.15663201605375482117E+02
    0.15644090670790138375E+02
    0.15748983398063153061E+02
    0.15938755460074085946E+02
    0.10877683277114600813E+02
    0.14932044281882998149E+02
    0.15519024888594209699E+02
    0.15053530814568619078E+02
    0.15378228571534462432E+02
    0.14580691451019204052E+02
    0.15839445211250398060E+02
    0.13189469882129809974E+02
    0.14561883024758122573E+02
    0.13524675734829861184E+02
    0.12690452648581906914E+02
    0.11688764392086349986E+02
    0.13268000393788527802E+02
    0.12443773543297703910E+02
    0.13906008010789783214E+02
    0.15365320763164213247E+02
    0.14059159265804295202E+02
    0.15006683707285086271E+02
    0.14667158093940500407E+02
    0.14004529342080630272E+02
    0.14860679626750044946E+02
    0.14343915292488269131E+02
    0.15284518232244057145E+02
    0.12851790484042437512E+02
    0.14863184539995973665E+02
    0.14155041907467225570E+02
    0.13495917581470965985E+02
    0.12698434621025576519E+02
    0.15225002859423058865E+02
    0.13455886277975873000E+02
    0.13562483371723462966E+02
    0.14576491675514567703E+02
    0.15238289715563215765E+02
    0.12125685805060543387E+02
    0.15781327773528786906E+02
    0.13676024558000271725E+02
    0.13790988843547379972E+02
    0.16082549474515936083E+02
    0.15900666944869120911E+02
    0.16247068302054923805E+02
    0.16212530558786099277E+02
    0.15911764560072395369E+02
    0.16468037502741186273E+02
    0.15302381456750973499E+02
    0.15531751303435685330E+02
    0.15363403062916548336E+02
    0.15494671406808235403E+02
    0.15089484590384419249E+02
    0.15965273507710589840E+02
    0.14927195346007566812E+02
    0.15665307109416586329E+02
    0.15418133049367622078E+02
    0.15592208323616320698E+02
    0.16745936309088591543E+02
    0.16585250889958903286E+02
    0.16089719353029291682E+02
    0.16455397036519993748E+02
    0.16085760802342932152E+02
    0.12688848106187069931E+02
    0.15823988251746243350E+02
    0.15269378476604162032E+02
    0.15637141338606515006E+02
    0.15861476112496541546E+02
    0.15507818481943825617E+02
    0.16339317698116257560E+02
    0.15313212147736662061E+02
    0.16185302042808093148E+02
    0.16476228072952579851E+02
    0.12814869263958378554E+02
    0.14905370695750724153E+02
    0.16703365571403015366E+02
    0.14098425593124879640E+02
    0.13451930049272601053E+02
    0.14403865395323727228E+02
    0.13854738075750523407E+02
    0.13580411790270913386E+02
    0.14909155053197849838E+02
    0.13218943216577388355E+02
    0.12687468840888163513E+02
    0.13049022695537409788E+02
    0.12809546096853004826E+02
    0.13580170616698712394E+02
    0.13429973866959830531E+02
    0.11952124816544477781E+02
    0.12419769421318289204E+02
    0.12908716920121017679E+02
    0.13081899031971957470E+02
    0.15248658116462578960E+02
    0.15156038876657104808E+02
    0.15435729956375061178E+02
    0.15506365231014289208E+02
    0.14659802206344847875E+02
    0.15602063713264143985E+02
    0.14778665686252830724E+02
    0.14909171546064349911E+02
    0.15636552446646044601E+02
    0.15199148580725911017E+02
    0.14491623871224643239E+02
    0.15526934331638168274E+02
    0.14577998145259234875E+02
    0.15506959359716594449E+02
    0.14130819984392470445E+02
    0.12024676726425457929E+02
    0.12030418178052331157E+02
    0.14074480683512465617E+02
    0.14458058838208017960E+02
    0.15040002368757788176E+02
    0.11150261806519134566E+02
    0.14387637954134399720E+02
    0.10159531257278308303E+02
    0.12518324532016864126E+02
    0.90867531032659538681E+01
    0.10818879556051204105E+02
    0.85620334794917134502E+01
    0.10965322282611699833E+02
    0.87683803311231027777E+01
    0.87360929766673169894E+01
    0.10294127096405629729E+02
    0.10210729787986389638E+02
    0.93767429882145751918E+01
    0.11439093105687517138E+02
    0.84144576585229433618E+01
    0.84354822943479259578E+01
    0.82817038973982430861E+01
    0.10563134033870783313E+02
    0.13710213345459447254E+02
    0.14009526211643649418E+02
    0.15207316385924093183E+02
    0.14952095083203632342E+02
    0.13241944305750038779E+02
    0.15681643240129503170E+02
    0.11563298686583078023E+02
    0.10607987054962661588E+02
    0.11713269451453037107E+02
    0.14002074818895072994E+02
    0.14511550276751171040E+02
    0.12132401807885818457E+02
    0.13985996643358285851E+02
    0.12925681760329624126E+02
    0.13414563999071123845E+02
    0.14052778915059914056E+02
    0.10950499224212187244E+02
    0.14097651421175482866E+02
    0.84983215310896298433E+01
    0.88568199242167580110E+01
    0.84980962282892935633E+01
    0.85555796990813064440E+01
    0.21131315078985561939E+02
    0.84646204511144134131E+01
    0.93146692217352651255E+01
    0.84857240291710844815E+01
    0.85775321134476882889E+01
    0.84970646410334556009E+01
    0.85419949733679949588E+01
    0.84929461342382666089E+01
    0.86553374994059204539E+01
    0.86177504119266092886E+01
    0.94381260235763662081E+01
    0.85393954894526551413E+01
    0.12141937326630680261E+02
    0.12331304281862728089E+02
    0.13290396232674616783E+02
    0.13998971061551793937E+02
    0.12743064019352985383E+02
    0.11185749954823686281E+02
    0.10426475189854853554E+02
    0.89162759875269603782E+01
    0.13441686895158879267E+02
    0.11865220568288027181E+02
    0.98523260332718294308E+01
    0.12468469292046473029E+02
    0.11944343317351858502E+02
    0.10009283470539529048E+02
    0.89372654201898242832E+01
    0.14185814339858463740E+02
    0.85083816139390933131E+01
    0.81234802844710927161E+01
    0.11480833593183419339E+02
    0.15031055615357903577E+02
    0.15767913396947614402E+02
    0.15627363348052357495E+02
    0.15921537834679572398E+02
    0.15901712321121040716E+02
    0.15355157109740375176E+02
    0.15648591541227453661E+02
    0.15618052989715291545E+02
    0.14904350254121343511E+02
    0.15330238344863325040E+02
    0.16377217341863349986E+02
    0.15945828167547118071E+02
    0.15728012781766839367E+02
    0.15858390843387207170E+02
    0.15110480930092656138E+02
    0.14851693720410391819E+02
    0.16354043476866724660E+02
    0.16569578979234780292E+02
    0.16050926025001729158E+02
    0.16417494245886004478E+02
    0.17285203882169227541E+02
    0.16048148625987401772E+02
    0.12119785981965451427E+02
    0.17542236568822776377E+02
    0.16522860449137063199E+02
    0.18579838923853454702E+02
    0.18271264461632018339E+02
    0.18524256475303971570E+02
    0.15435045548646282754E+02
    0.18631505641014463492E+02
    0.17791766484786034397E+02
    0.17044778788362172861E+02
    0.15190930523159632770E+02
    0.17123934480286717275E+02
    0.13390224158433314372E+02
    0.14946811797297822721E+02
    0.15238748526927338389E+02
    0.17549110201598111303E+02
    0.15814031889543302967E+02
    0.15747955630848149866E+02
    0.15297548625769318065E+02
    0.15782877973369570768E+02
    0.14574833767030980880E+02
    0.17714186651412308748E+02
    0.16412638644051181558E+02
    0.19246310391608830059E+02
    0.17489357038998480931E+02
    0.16812028754025419630E+02
    0.16308128404935150257E+02
    0.15017410577786694859E+02
    0.18121914015600356862E+02
    0.19277787784235410840E+02
    0.19112245017203338904E+02
    0.11984211686169334854E+02
    0.20704364101679118448E+02
    0.19628814219574056921E+02
    0.18994305654524907823E+02
    0.20077643553418571543E+02
    0.19113687351281406279E+02
    0.20983794187292222233E+02
    0.20122582525465734449E+02
    0.15953223090004913232E+02
    0.20405497578717461948E+02
    0.12418439562905360773E+02
    0.18768612596562562089E+02
    0.19265845274373123885E+02
    0.13025349398012107116E+02
    0.12878114361289860312E+02
    0.16190205251784213658E+02
    0.14204686910846634262E+02
    0.13238480963020343495E+02
    0.16816402423719811310E+02
    0.12018222199687143004E+02
    0.19057113791039995476E+02
    0.14488956395260057519E+02
    0.16320956633970226335E+02
    0.15872716399357569728E+02
    0.21023642627666880855E+02
    0.14029435664266145523E+02
    0.20350243080225840941E+02
    0.20580719318383650318E+02
    0.21277527822256075751E+02
    0.19563039792929973970E+02
    0.20731720325119702864E+02
    0.20837837062689107626E+02
    0.19917595933359674376E+02
    0.20394461105596690231E+02
    0.17243063102950216603E+02
    0.19940767480712953130E+02
    0.21132710314773866855E+02
    0.21139357394192419548E+02
    0.12133176331676216009E+02
    0.19477889523318040688E+02
    0.14658748682703897970E+02
    0.15426957609128036708E+02
    0.13881268515224483906E+02
    0.13986883720890551430E+02
    0.14355763944216711536E+02
    0.18316583226502967108E+02
    0.14204016191846339012E+02
    0.18765548504275887609E+02
    0.14202843835850613274E+02
    0.14723835399745679453E+02
    0.14951795402114962386E+02
    0.13573828682355980391E+02
    0.14504260944053303461E+02
    0.16846559165459570551E+02
    0.16872078028027349461E+02
    0.13586641474412678221E+02
    0.19297051483836035857E+02
    0.13405835226968886076E+02
    0.18255940260495627570E+02
    0.18728938100954810153E+02
    0.16914465491837429312E+02
    0.18251527246219101386E+02
    0.19747460529928417827E+02
    0.20468977438645904243E+02
    0.19274190191302803754E+02
    0.20499976054865722830E+02
    0.17886984260924293721E+02
    0.18705074578192355972E+02
    0.18672528440385505633E+02
    0.17909571960042132588E+02
    0.19855445549107301417E+02
    0.18917919708472723528E+02
    0.13677517741374638049E+02
    0.17309417600632013290E+02
    0.14546453839871363201E+02
    0.14339518404438090116E+02
    0.11771105633588257788E+02
    0.12289605755292489775E+02
    0.11876845269282613415E+02
    0.15113162456249465748E+02
    0.13589843568924447226E+02
    0.16125543831746579571E+02
    0.11520736796490284704E+02
    0.12543361736350069791E+02
    0.78671240871589507293E+01
    0.98868279187273735431E+01
    0.15433892590487996443E+02
    0.15935052938778756726E+02
    0.16950096895018962329E+02
    0.11525930387456575943E+02
    0.11018511351993444336E+02
    0.16277326794035467117E+02
    0.13944145752751696321E+02
    0.91192500902189728151E+01