# vtk DataFile Version 3.0
LAPLACIEN  2D
ASCII
DATASET UNSTRUCTURED_GRID
 POINTS        1083  float
  0.25752000000000003       0.83521000000000001        0.0000000000000000     
  0.26692436000000003       0.82361669999999998        0.0000000000000000     
  0.12755760999999999       0.37286407999999999        0.0000000000000000     
  0.16947000000000001       0.36312000000000000        0.0000000000000000     
  0.20556749999999999       0.30943999999999999        0.0000000000000000     
  0.19808000000000001       0.30240000000000000        0.0000000000000000     
  0.17829000000000000       0.29613000000000000        0.0000000000000000     
  0.16072427000000000       0.27611573000000000        0.0000000000000000     
  0.20518000000000000       0.25756000000000001        0.0000000000000000     
  0.14513182999999999       0.15495659000000001        0.0000000000000000     
  0.18475000000000000       0.25733000000000000        0.0000000000000000     
  0.15320000000000000       0.28981000000000001        0.0000000000000000     
   8.4010000000000001E-002  0.28726000000000002        0.0000000000000000     
  0.12066000000000000       0.31644000000000000        0.0000000000000000     
  0.15419146000000000       0.34997146000000001        0.0000000000000000     
   9.1609999999999997E-002  0.41126000000000001        0.0000000000000000     
   8.2839999999999997E-002  0.24906000000000000        0.0000000000000000     
  0.10719500000000000       0.24906000000000000        0.0000000000000000     
  0.10394500000000000       0.24026000000000000        0.0000000000000000     
  0.10306999999999999       0.16439999999999999        0.0000000000000000     
  0.20605000000000001        7.9089999999999994E-002   0.0000000000000000     
  0.42243181000000002       0.83768843000000004        0.0000000000000000     
  0.40538000000000002       0.78705000000000003        0.0000000000000000     
  0.42062500000000003       0.70743999999999996        0.0000000000000000     
  0.39167000000000002       0.62682000000000004        0.0000000000000000     
  0.38775999999999999       0.57162500000000005        0.0000000000000000     
  0.39058282000000000       0.54871530000000002        0.0000000000000000     
  0.39464117999999998       0.46212064000000003        0.0000000000000000     
  0.39241130000000002       0.45290363000000000        0.0000000000000000     
  0.38384000000000001       0.55516500000000002        0.0000000000000000     
  0.38069999999999998       0.59557000000000004        0.0000000000000000     
  0.36735092000000003       0.72975095999999995        0.0000000000000000     
  0.37138180999999998       0.84873708999999997        0.0000000000000000     
  0.31856716000000002       0.83411802999999995        0.0000000000000000     
  0.65566999999999998       0.71865999999999997        0.0000000000000000     
  0.62348499999999996       0.71865999999999997        0.0000000000000000     
  0.63253999999999999       0.72650000000000003        0.0000000000000000     
  0.63397590999999998       0.79238797000000005        0.0000000000000000     
  0.61133999999999999       0.77437999999999996        0.0000000000000000     
  0.58667000000000002       0.75475999999999999        0.0000000000000000     
  0.51746738999999997       0.83310978000000002        0.0000000000000000     
  0.51022000000000001       0.76192000000000004        0.0000000000000000     
  0.49914890000000001       0.74624727000000002        0.0000000000000000     
  0.50311967000000002       0.80879526000000002        0.0000000000000000     
  0.50158999999999998       0.83067000000000002        0.0000000000000000     
  0.46398766000000002       0.86013877000000005        0.0000000000000000     
  0.41615999999999997       0.37445000000000001        0.0000000000000000     
  0.43026551000000002       0.31678289999999998        0.0000000000000000     
  0.39694000000000002       0.24930500000000000        0.0000000000000000     
  0.41994211999999997       0.11642168999999999        0.0000000000000000     
  0.43478000000000000       0.10487000000000000        0.0000000000000000     
  0.57060999999999995       0.13406000000000001        0.0000000000000000     
  0.69662999999999997       0.19536999999999999        0.0000000000000000     
  0.71886000000000005       0.24690999999999999        0.0000000000000000     
  0.74097999999999997       0.33731000000000000        0.0000000000000000     
  0.72538453999999997       0.37890159000000001        0.0000000000000000     
  0.73320112000000004       0.40760169000000002        0.0000000000000000     
  0.70620000000000005       0.41999999999999998        0.0000000000000000     
  0.74504999999999999       0.48705999999999999        0.0000000000000000     
  0.68996999999999997       0.48530000000000001        0.0000000000000000     
  0.66213999999999995       0.47589999999999999        0.0000000000000000     
  0.63373000000000002       0.47414000000000001        0.0000000000000000     
  0.68861000000000006       0.55347000000000002        0.0000000000000000     
  0.62687669000000001       0.62714972999999996        0.0000000000000000     
  0.51632500000000003       0.26038000000000000        0.0000000000000000     
  0.66345008000000005       0.20335998999999999        0.0000000000000000     
  0.68430000000000002       0.34078999999999998        0.0000000000000000     
  0.59737622999999995       0.42491739000000001        0.0000000000000000     
  0.55410000000000004       0.41776999999999997        0.0000000000000000     
  0.52314000000000005       0.40723999999999999        0.0000000000000000     
  0.46111999999999997       0.32850000000000001        0.0000000000000000     
  0.67330999999999996       0.19785000000000000        0.0000000000000000     
  0.69296999999999997       0.22594000000000000        0.0000000000000000     
  0.40191943000000002       0.86367486999999998        0.0000000000000000     
  0.12271248000000000       0.14762657000000001        0.0000000000000000     
  0.14852475000000001       0.12337326999999999        0.0000000000000000     
  0.74936000000000003       0.44945000000000002        0.0000000000000000     
  0.61883999999999995       0.82247000000000003        0.0000000000000000     
  0.26941311000000001       0.82690965999999999        0.0000000000000000     
  0.14224880000000001       0.37582204000000002        0.0000000000000000     
  0.16781681000000001       0.35746910999999998        0.0000000000000000     
  0.38384000000000001       0.56583499999999998        0.0000000000000000     
  0.17475499999999999       0.26156499999999999        0.0000000000000000     
  0.16588214000000001       0.27095785999999999        0.0000000000000000     
  0.19754658000000000       0.25190794000000000        0.0000000000000000     
  0.18240999999999999       0.26306000000000002        0.0000000000000000     
  0.38775999999999999       0.58301250000000004        0.0000000000000000     
   9.2598787000000002E-002  0.28369930999999998        0.0000000000000000     
  0.12988000000000000       0.31154999999999999        0.0000000000000000     
  0.15971573000000000       0.35549573000000001        0.0000000000000000     
  0.43006250000000001       0.70743999999999996        0.0000000000000000     
  0.40538000000000002       0.77361250000000004        0.0000000000000000     
  0.42100500000000002       0.81830000000000003        0.0000000000000000     
  0.41854986000000000       0.69665306000000005        0.0000000000000000     
  0.38971499999999998       0.61060999999999999        0.0000000000000000     
  0.38773564999999999       0.45901181000000002        0.0000000000000000     
  0.39590059000000000       0.45441031999999998        0.0000000000000000     
  0.38384000000000001       0.54735250000000002        0.0000000000000000     
  0.36502704000000002       0.72473217000000001        0.0000000000000000     
  0.32337357999999999       0.82795901000000005        0.0000000000000000     
  0.70706773000000001       0.36044921000000002        0.0000000000000000     
  0.74097999999999997       0.35293500000000000        0.0000000000000000     
  0.74097999999999997       0.31773499999999999        0.0000000000000000     
  0.71235000000000004       0.23181499999999999        0.0000000000000000     
  0.58099500000000004       0.12427000000000001        0.0000000000000000     
  0.50926802999999998       0.81618526000000002        0.0000000000000000     
  0.39694000000000002       0.25951249999999998        0.0000000000000000     
  0.43692275000000003       0.32087145000000000        0.0000000000000000     
  0.41615999999999997       0.32374500000000000        0.0000000000000000     
  0.43379000000000001       0.30536999999999997        0.0000000000000000     
  0.56120943999999995       0.14292195999999999        0.0000000000000000     
  0.56101000000000001       0.12778999999999999        0.0000000000000000     
  0.72713519000000004       0.36131693999999998        0.0000000000000000     
  0.74289499999999997       0.49852000000000002        0.0000000000000000     
  0.70664000000000005       0.43221999999999999        0.0000000000000000     
  0.53013999999999994       0.41189999999999999        0.0000000000000000     
  0.54561999999999999       0.41584500000000002        0.0000000000000000     
  0.71071649000000003       0.55600200000000000        0.0000000000000000     
  0.67979000000000001       0.56306999999999996        0.0000000000000000     
  0.62555094000000000       0.62995129000000005        0.0000000000000000     
  0.66964504000000002       0.20812000000000000        0.0000000000000000     
  0.58421811000000001       0.42326870000000000        0.0000000000000000     
  0.59798264000000001       0.43157266000000000        0.0000000000000000     
  0.54939000000000004       0.42473000000000000        0.0000000000000000     
  0.52732000000000001       0.40139999999999998        0.0000000000000000     
[...]
 CELL_DATA        1963
 SCALARS Tumor_cells float
 LOOKUP_TABLE default
    0.12179072390255845457E-06
    0.11850665345245296096E-06
    0.12923335869536487367E-06
    0.12397816725648014419E-06
    0.11808244348532886550E-06
    0.68741905785546885718E-07
    0.12247521715876386817E-06
    0.14706713300132429169E-06
    0.13383239368148493677E-06
    0.11151845753186185734E-06
    0.12248999971141453185E-06
    0.92783177755564371836E-07
    0.56111714053434181390E-07
    0.11180727866201728014E-06
    0.14111621159370265326E-06
    0.14334525323701486212E-06
    0.14766587081239424806E-06
    0.13834581570379690060E-06
    0.13434346846652862565E-06
    0.14877735650333556832E-06
    0.12013820706596745200E-06
    0.11061454591771468894E-06
    0.10350925709968609971E-06
    0.12030411793635160941E-06
    0.13353854301110338311E-06
    0.10268883910579150231E-06
    0.10510662009303637913E-06
    0.11362175141907707465E-06
    0.11621106756290348651E-06
    0.10561934937483409845E-06
    0.93466330755583872814E-07
    0.10491791667025245415E-05
    0.13887186824877603696E-06
    0.86429347594828040824E-07
    0.12603778198692028603E-06
    0.10896171866185822009E-06
    0.71639352713947822273E-07
    0.68941943941451009653E-07
    0.99094378644812296655E-07
    0.83517010367920740754E-07
    0.12187424004886034816E-06
    0.13576817675596584605E-06
    0.14382061931701599918E-06
    0.91400392051106808619E-07
    0.12747497935964809652E-06
    0.10126783219730431109E-06
    0.10026727768332751761E-06
    0.14277810426461480314E-06
    0.13206948447939904719E-06
    0.14837728682042156522E-06
    0.14818481780698628600E-06
    0.13638311023819592152E-06
    0.14566033214796125904E-06
    0.10826047963273796103E-06
    0.99360405571458941539E-07
    0.14019357586904792722E-06
    0.72013331232353572272E-07
    0.95752040111440202941E-07
    0.78176531656655759510E-07
    0.95887793593228466369E-07
    0.13425822368659572054E-06
    0.12832673267968429269E-06
    0.13456268007681796314E-06
    0.13303929698812599741E-06
    0.10414039986732790590E-06
    0.13097637635034006160E-06
    0.91837816435177098883E-07
    0.92021075640041356602E-07
    0.15233442093395986986E-06
    0.14562373157531836785E-06
    0.12453741037535878969E-06
    0.12760651476791943108E-06
    0.13503624211016216369E-06
    0.57078667475533645045E-03
    0.15619133982445648612E-06
    0.15163842473003175735E-06
    0.15034584244032658131E-06
    0.15196901869382103374E-06
    0.13359362371285570940E-06
    0.14369115417761363941E-06
    0.13553501367589329846E-06
    0.15131953386036549178E-06
    0.14966413537816015822E-06
    0.15035323325144164560E-06
    0.13333919594619434630E-06
    0.12638712323681132891E-06
    0.10921361265493266083E-06
    0.12857567547470753017E-06
    0.13418022187610892358E-06
    0.12818771403649783338E-06
    0.13245233629410397583E-06
    0.13814155866280474220E-06
    0.14028928174878218772E-06
    0.12734977221064431465E-06
    0.13861534996632792558E-06
    0.14058679738589581463E-06
    0.13233544433576983855E-06
    0.12434988062837386675E-06
    0.12867232410671261181E-06
    0.13729748022176440508E-06
    0.13979710186603233317E-06
    0.13693692902468842741E-06
    0.11726128985404447069E-06
    0.11137821084712724643E-06
    0.13521322605842659272E-06
    0.13695727276835272592E-06
    0.11885753226872751655E-06
    0.13403814356155879771E-06
    0.13450545638049737637E-06
    0.11846314088191626379E-06
    0.91022317314946322797E-07
    0.12374242950041088392E-06
    0.12648806650024989174E-06
    0.12555973553327763560E-06
    0.90485400113520587490E-07
    0.12390346535601087311E-06
    0.11468945970198601907E-06
    0.10414117146485783983E-06
    0.11664311683392735395E-06
    0.12464838755175397278E-06
    0.14234930090357967834E-06
    0.13461593267959945224E-06
    0.12387248693779379989E-06
    0.12876687582329649077E-06
    0.92937758462932268813E-07
    0.94067482699664691950E-07
    0.14522676836557517117E-06
    0.12574673088785201516E-06
    0.15082851885486559861E-06
    0.14629646177268725736E-06
    0.79701846662578425553E-07
    0.10632489338993381737E-06
    0.81278626867465541860E-07
    0.14162390207331598230E-06
    0.80175409255076986968E-07
    0.12939854349456127217E-06
    0.12301771726079017092E-06
    0.13186985597452814039E-06
    0.79154959194220876142E-07
    0.18610254151335804046E-06
    0.11559122213406150980E-06
    0.14259624679445208748E-06
    0.11286105374432068746E-06
    0.11375158530391096313E-06
    0.14857395678651288327E-06
    0.12282628930148555556E-06
    0.15897540736854686745E-06
    0.15685273205111961857E-07
    0.14458696994681884446E-06
    0.16520005525537356265E-06
    0.15421582625204041075E-06
    0.14261565483858972307E-06
    0.16582965741024486675E-06
    0.13779181594201700964E-06
    0.13557485582911571041E-06
    0.14660828725258945388E-06
    0.14378746795260849933E-06
    0.13899038054784235948E-06
    0.14536925068894794894E-06
    0.10546796098484678503E-06
    0.15673390979339489678E-06
    0.12230759612406637428E-06
    0.14945758837385390129E-06
    0.14876689250896889285E-06
    0.15095417392712063556E-06
    0.15204029110372654334E-06
    0.15691980978059374776E-06
    0.16069904235484197581E-06
    0.15902380216876417271E-06
    0.14875115949449082087E-06
    0.13837036125396530642E-06
    0.15914942964465402439E-06
    0.17201784805865065573E-06
    0.13628932385521599101E-06
    0.16453355617195773379E-06
    0.32647465410396747659E-07
    0.15096089111052498754E-06
    0.16944085217883185012E-06
    0.16622904241586296772E-06
    0.16330204574960549039E-06
    0.76305525548567322558E-02
    0.11267773221907972925E+00
    0.14597156893676960261E-06
    0.15924920288476552907E-06
    0.79504959712523186658E-04
    0.14808357562504034015E-06
    0.89587984894359354326E-04
    0.15922964799438798061E-06
    0.30421308850056484109E-06
    0.13759711942558537088E-06
    0.15479735231937262074E-06
    0.15592542559526192761E-06
    0.13537231201577765260E-06
    0.14308039461996833003E-06
    0.14087988040934996970E-06
    0.16328527808183947496E-06
    0.12073905455887317644E-06
    0.13973154619980389308E-06
    0.87919195271693799079E-07
    0.11039694794443526315E-06
    0.49425498101768709780E-02
    0.16742189587125432244E-06
    0.35322516177312308916E-03
    0.12344380881634472699E-06
    0.24239090825265127206E-03
    0.15712181857624101113E-06
    0.63368555314405579718E-02
    0.16806390001808788223E-06
    0.15226457213039656960E-06
    0.12235287840608722686E-06
    0.69856307917202654365E-07
    0.12876297154422788043E-06
    0.60902534340605397874E-07
    0.59731368046705269807E-07
    0.13868400231634267223E-06
    0.13042135976542138131E-06
    0.11378754168922568206E-06
    0.13325271493662386393E-06
    0.18244508779474338140E-07
    0.66812240913132579483E-07
    0.77762565777114218762E-07
    0.10274968805855756814E-06
    0.12290639814888980044E-06
    0.61708042240466611231E-07
    0.14856052391809995729E-06
    0.11536992201195106749E-06
    0.10665956887345316033E-06
    0.12341076511752445853E-06
    0.14399139330284866781E-06
    0.15099921911170502561E-06
    0.11590503185239438577E-06
    0.96774981045674016883E-07
    0.10973773741713411865E-06
    0.99871644175951588113E-07
    0.15207300359560063900E-06
    0.15207538162965890440E-06
    0.16548382990237904928E-06
    0.11982979227606685243E-06
    0.10976541704219482164E-06
    0.97428231631679698950E-07
    0.92111553456541194045E-07
    0.13752479807254717161E-06
    0.58921751483687371320E-07
    0.79737095073381132794E-07
    0.14893246976684034823E-06
    0.15220461574521811635E-06
    0.12074113480397690469E-06
    0.97238519581064314220E-07
    0.15027043843582260066E-06
    0.11391815414475355409E-06
    0.16083715535723763373E-06
    0.14765166665789169152E-06
    0.16499504440387343901E-06
    0.13139972459328136139E-06
    0.11258376758618291686E-06
    0.15965005489319604524E-06
    0.13393010058604425654E-06
    0.15591745490035294165E-06
    0.17246757262716528529E-06
    0.17223822959610001273E-06
    0.17470664550665740282E-06
    0.13865979095584134854E-06
    0.17049762554681139548E-06
    0.17195871042944267842E-06
    0.14316330667712985868E-06
    0.96504138196411746240E-07
    0.13010221225693856130E-06
    0.83091383329110223011E-02
    0.11731081421181625626E-06
    0.13974158206265047495E-06
    0.60874605284547186196E-02
    0.13267827737528995555E-06
    0.14358554491421511926E-01
    0.12098181904939911653E-06
    0.13254374372487260460E-06
    0.16065663675423253074E-06
    0.83105719550729539868E-02
    0.14382063706722464543E-06
    0.15425338844729367068E-06
    0.17317163137394990083E-06
    0.15206956904044121020E-02
    0.88529201584710323647E-07
    0.32571656478541771685E-06
    0.14256268677545575481E-06
    0.11758463366382391214E-06
    0.11622585447764820298E-06
    0.10375956082118893426E-03
    0.14496573179443641604E-06
    0.13797171891325781691E-06
    0.11349852508447558865E-06
    0.14249016480131523074E-06
    0.14330679635037690102E-06
    0.14156429864302379661E-06
    0.14155345970954594186E-06
    0.13895751769366030852E-06
    0.14062182394589439106E-06
    0.14395006737607256355E-06
    0.13992867838952658177E-06
    0.13101686064542720389E-06
    0.13499351462003598710E-06
    0.12905629250405007807E-06
    0.13612339819115119098E-06
    0.12107629602588182438E-01
    0.12213758736864185666E-06
    0.13065887371420329991E-06
    0.42676794335479398268E-01
    0.12446189608186291497E-06
    0.13071459487385871807E-06
    0.13321469662936160101E-06
    0.13356242139419511162E-06
    0.12384390053996594279E-06
    0.12439686276731224557E-06
    0.13637028994518419929E-06
    0.12760054274889394824E-06
    0.13592907508358540299E-06
    0.12682371030658408297E-06
    0.14252478770820041801E-06
    0.12439997812137122690E+00
    0.14653539754810770696E-06
    0.13892521952480537019E-06
    0.14699378708211062697E-06
    0.14406391178144634596E-06
    0.14915783911239636486E-06
    0.14526730763037105306E-06
    0.14583728428130293272E-06
    0.14610577217318156874E-06
    0.14675108670052246166E-06
    0.14610969631030267039E-06
    0.14856653712518087919E-06
    0.15566541478921615006E-06
    0.14274060519925453890E-06
    0.14638775508273882511E-06
    0.13282355159872538226E-06
    0.14530646819855034081E-06
    0.13111998373827229229E-06
    0.13452290171993144927E-06
    0.16358886398199833264E-06
    0.13134588977376347040E-06
    0.13758200297891137277E-06
    0.13299384095774111454E-06
    0.14257161635689015680E-06
    0.13135098413791037498E-06
    0.13779323693215544808E-06
    0.14917217918086908409E-06
    0.13174685537855601627E-06
    0.13379706135692861946E-06
    0.16625139959211723269E-06
    0.15838391493940223728E-06
    0.14108643418742690729E-06
    0.13102975376590450880E-06
    0.13678429027112313213E-06
    0.13928670244570730690E-06
    0.14364368514676612126E-06
    0.14141323615425399676E-06
    0.13149162468876098612E-06
    0.14069936595278973095E-06
    0.13209835664340237908E-06
    0.12794969932094755758E-06
    0.13322615594973218263E-06
    0.13564875885399293246E-06
    0.11291275375571514975E-06
    0.11551086996055157072E-06
    0.12665227206882017841E-06
    0.11739980198480032677E-06
    0.11673869043148985723E-06
    0.13040824781191123711E-06
    0.12541526898871483257E-06
    0.12109077669925300508E-06
    0.11767609139059018564E-06
    0.14122386442641722152E-06
    0.16467324088168692331E-06
    0.15645401561221885154E-06
    0.13862711658866840178E-06
    0.14877043410149459871E-06
    0.13697285921489713885E-06
    0.77179669426481046540E-07
    0.13908379917790192162E-06
    0.14591130938663056904E-06
    0.14655081718164062818E-06
    0.13728485022325666932E-06
    0.14629933094039451809E-06
    0.14390731874416665382E-06
    0.14130795187744623904E-06
    0.14368243898533940163E-06
    0.14071564253074925581E-06
    0.65538840639267482190E-07
    0.14976598405864436652E-06
    0.13918558030409698776E-02
    0.15152201293986319456E-06
    0.12763524978195974137E-06
    0.14106129786170971249E-06
    0.13888555017551374913E-06
    0.14886903348316074372E-06
    0.14266697063711593505E-06
    0.14850760285110413927E-06
    0.15590839797452091477E-06
    0.13560893660793962016E-06
    0.13756849836506229121E-06
    0.16239878399498485806E-06
    0.13784885078044389307E-06
    0.15002342421106715944E-06
    0.15016862076689296066E-06
    0.13007405962133176021E-06
    0.15286710726478904329E-06
    0.15300727693868308693E-06
    0.15698715807940009311E-06
    0.14858467416489694505E-06
    0.15338926300142494671E-06
    0.15408602112943472506E-06
    0.15471294548538498043E-06
    0.12964110435759726877E-06
    0.14216430391862026996E-06
    0.15846151415375486685E-06
    0.13612300496944527065E-06
    0.13766146935198518802E-06
    0.15392252097954227906E-06
    0.12977236699739811345E-06
    0.14895482406028608395E-06
    0.15361074813043314501E-06
    0.11930743033084910610E-06
    0.16140707871951947154E-06
    0.13509143749253867268E-06
    0.13373214219861314072E-06
    0.13358956087491979890E-06
    0.15353608113315811412E-06
    0.15181194058972289700E-06
    0.16515778053181199007E-06
    0.14063745373341461399E-06
    0.16571624366009220118E-06
    0.16063594093284675906E-06
    0.86874019829690440989E-07
    0.14991290040785230160E-06
    0.61932573498469415569E-07
    0.69305596077041778095E-07
    0.16438715027469229813E-06
    0.15990960636583663419E-06
    0.12319124705248290631E-06
    0.92006667842214462355E-07
    0.21543401928544704406E-06
    0.16663801895337240038E-06
    0.16743563194444298300E-06
    0.16397361226111355475E-06
    0.13616192050346997773E-06
    0.13823634876441622515E-06
    0.14955161456123706013E-06
    0.14047590786071242365E-06
    0.13820805716568574328E-06
    0.15664837295460778625E-06
    0.16675053601201767010E-06
    0.16427762766783262595E-06
    0.16967057637139086834E-06
    0.15736380623919441797E-06
    0.14720615087184149963E-06
    0.15557984280614460565E-06
    0.11091396947863787371E-06
    0.14353304268062182270E-06
    0.16107836873092997542E-06
    0.11107439187303355806E-06
    0.13816646775541762000E-06
    0.13963494441664603190E-06
    0.90357069192659335679E-05
    0.49705040443364693838E-04
    0.25472240578317713864E-05
    0.62858296706055034872E-05
    0.14794611858453822900E-06
    0.41442983777851034120E-06
    0.19981699376900598198E-03
    0.85301400225956551580E-06
    0.83230107061592757650E-07
    0.29713789775391747104E-06
    0.12991478651698036568E-06
    0.21506399494090588058E-06
    0.73301003832608942327E-07
    0.12589648122945644939E-04
    0.16957171486824508695E-06
    0.93911616648070887602E-07
   -0.16777386502924031586E-07
    0.74709255213840636921E-07
    0.16292334285667001727E-06
    0.15365766873859565562E-06
    0.13632466211587947021E-06
    0.13331340365052501268E-06
    0.15244548846419828448E-06
    0.65183781167490358957E-07
    0.14243521882442573179E-06
    0.61752833903742385588E-07
    0.14528591516828303082E-06
    0.12249337173523704520E-06
    0.10279244495632359093E-06
    0.14667541228356788399E-06
    0.65425511211237343951E-07
    0.15173243546698081929E-06
    0.25854745387860997532E-05
    0.20104027317767391219E-06
    0.13826057889455681689E-06
    0.13594052539572170645E-06
    0.14460314567133611687E-06
    0.10541849016337289790E-06
    0.10569984725424840158E-06
    0.14608252655888115271E-06
    0.12488598403087196097E-06
    0.15129099938687634060E-06
    0.90944608679619087714E-07
    0.71320734055952741702E-07
    0.91972751547641167238E-07
    0.12752721706508624399E-06
    0.10081836963068351233E-06
    0.95682331786442343639E-07
    0.12699042322419760395E-06
    0.15306670772333320789E-06
    0.14821026236024168226E-06
    0.15242561076711391226E-06
    0.13108818512479095375E-06
    0.11890463874157466069E-06
    0.12969976981739961790E-06
    0.14352702552930842380E-06
    0.10599957922387823707E-06
    0.11039545263881675279E-06
    0.14440362812269836155E-06
    0.14004263166839075084E-06
    0.16438654754560594917E-06
    0.16350762549394885170E-06
    0.15357879735810060198E-06
    0.12664953620450434940E-06
    0.15153740908335070584E-06
    0.15099195948353091841E-06
    0.14876557683548539407E-06
    0.13506962858269408642E-06
    0.14413709184753026289E-06
    0.77344992810171283885E-07
    0.76249717225215370498E-07
    0.97121063307583937880E-07
    0.14768872449069616335E-06
    0.11869289470977096907E-06
    0.11678386501990781076E-06
    0.91077386658681724295E-07
    0.12679337605621448301E-06
    0.13616380970134385890E-06
    0.12210201935858846655E-06
    0.12890398800823793493E-06
    0.11761127382235757166E-06
    0.15079715003931073138E-06
    0.12647358969217630875E-06
    0.13035831765411107561E-06
    0.13673352551288420291E-06
    0.15029696876543487746E-06
    0.15121284660232953871E-06
    0.14700064850460487082E-06
    0.95753759734573413304E-02
    0.15264341314991849384E-06
    0.14717893847330637788E-06
    0.14984650075254228391E-06
    0.13168727931833640836E-06
    0.11949035407741415959E-06
    0.16338728555862466820E-06
    0.13848287012977041218E-06
    0.88066720272298719430E-07
    0.14758599300437813788E-06
    0.78169888925258567986E-03
    0.15134440058068672283E-06
    0.13920076021114877656E-06
    0.93879226057214788268E-07
    0.89146641679385147522E-02
    0.12865850979432630209E-06
    0.10603835829518440565E-06
    0.75523672347574844536E-07
    0.12130193863991205366E-06
    0.13790475761737079803E-06
    0.12297086810679253168E-06
    0.11916270341625024219E-06
    0.17617676527991157822E-02
    0.11223025687875185155E-06
    0.10117879387878150414E-05
    0.14098775978796917196E-06
    0.13245740933731369135E-04
    0.43258747392953022696E-05
    0.40243789740407255811E-06
    0.39332117193006894745E-04
    0.64633608337547998856E-05
    0.64118711091190899612E-05
    0.93355499733167732678E-04
    0.29954644867734140940E-04
    0.45185844084232153553E-02
    0.40467681324482540368E-04
    0.13125346034671147245E-05
    0.12442731641104026450E-05
    0.12378028905821453971E-06
    0.96734146000496142970E-04
    0.73800362753440830119E-02
    0.54041811471448927134E-02
    0.85483202067398299934E-02
    0.11992587179097286346E-01
    0.11146118372255386236E-01
    0.79802865398909128558E-03
    0.68206408601495432942E-01
    0.36571376574904759923E-03
    0.27826194502964664984E-01
    0.18249607782865877315E-01
    0.24765935566244214050E-01
    0.18577312069429655073E-01
    0.61594784605845026570E-01
    0.19224004483444825236E-02
    0.54266181573754462483E-02
    0.47484868014449087281E-01
    0.26437899699811151901E-03
    0.94958447890675021230E-02
    0.18026424328985979611E-02
    0.63290938190217792617E-03
    0.75390652075288354383E-02
    0.19689357389476285637E-02
    0.16225480985175951476E-03
    0.23921361920570946086E-04
    0.53533039463220504633E-03
    0.16322213706372348628E-04
    0.52261099380655562721E-02
    0.13643372930195309198E-02
    0.15982010222690766054E-02
    0.64879866049752229692E-02
    0.13175912981602051939E-03
    0.61037134837756666390E-03
    0.14510790223467531535E-06
    0.51935316691997801541E-02
    0.88910628643352584977E-01
    0.84026343475496478863E-01
    0.31672849142605169481E+00
    0.29895182822901888997E+00
    0.37477783793570396131E+00
    0.40781080361278400359E-01
    0.18201553214536797531E+00
    0.36647427731235325543E-01
    0.47842864803834123100E+00
    0.30440690190549180016E+00
    0.48910131243525267752E+00
    0.49704858919154115693E+00
    0.72366802132277377457E-01
    0.33244589198252620654E-01
    0.13082412857197077069E-01
    0.38802307799075003159E+00
    0.44508654195821550914E+00
    0.13404004335905935624E-01
    0.10833943322497560090E-06
    0.48622301510354859477E+00