# vtk DataFile Version 3.0
LAPLACIEN  2D
ASCII
DATASET UNSTRUCTURED_GRID
 POINTS        1083  float
  0.25752000000000003       0.83521000000000001        0.0000000000000000     
  0.26692436000000003       0.82361669999999998        0.0000000000000000     
  0.12755760999999999       0.37286407999999999        0.0000000000000000     
  0.16947000000000001       0.36312000000000000        0.0000000000000000     
  0.20556749999999999       0.30943999999999999        0.0000000000000000     
  0.19808000000000001       0.30240000000000000        0.0000000000000000     
  0.17829000000000000       0.29613000000000000        0.0000000000000000     
  0.16072427000000000       0.27611573000000000        0.0000000000000000     
  0.20518000000000000       0.25756000000000001        0.0000000000000000     
  0.14513182999999999       0.15495659000000001        0.0000000000000000     
  0.18475000000000000       0.25733000000000000        0.0000000000000000     
  0.15320000000000000       0.28981000000000001        0.0000000000000000     
   8.4010000000000001E-002  0.28726000000000002        0.0000000000000000     
  0.12066000000000000       0.31644000000000000        0.0000000000000000     
  0.15419146000000000       0.34997146000000001        0.0000000000000000     
   9.1609999999999997E-002  0.41126000000000001        0.0000000000000000     
   8.2839999999999997E-002  0.24906000000000000        0.0000000000000000     
  0.10719500000000000       0.24906000000000000        0.0000000000000000     
  0.10394500000000000       0.24026000000000000        0.0000000000000000     
  0.10306999999999999       0.16439999999999999        0.0000000000000000     
  0.20605000000000001        7.9089999999999994E-002   0.0000000000000000     
  0.42243181000000002       0.83768843000000004        0.0000000000000000     
  0.40538000000000002       0.78705000000000003        0.0000000000000000     
  0.42062500000000003       0.70743999999999996        0.0000000000000000     
  0.39167000000000002       0.62682000000000004        0.0000000000000000     
  0.38775999999999999       0.57162500000000005        0.0000000000000000     
  0.39058282000000000       0.54871530000000002        0.0000000000000000     
  0.39464117999999998       0.46212064000000003        0.0000000000000000     
  0.39241130000000002       0.45290363000000000        0.0000000000000000     
  0.38384000000000001       0.55516500000000002        0.0000000000000000     
  0.38069999999999998       0.59557000000000004        0.0000000000000000     
  0.36735092000000003       0.72975095999999995        0.0000000000000000     
  0.37138180999999998       0.84873708999999997        0.0000000000000000     
  0.31856716000000002       0.83411802999999995        0.0000000000000000     
  0.65566999999999998       0.71865999999999997        0.0000000000000000     
  0.62348499999999996       0.71865999999999997        0.0000000000000000     
  0.63253999999999999       0.72650000000000003        0.0000000000000000     
  0.63397590999999998       0.79238797000000005        0.0000000000000000     
  0.61133999999999999       0.77437999999999996        0.0000000000000000     
  0.58667000000000002       0.75475999999999999        0.0000000000000000     
  0.51746738999999997       0.83310978000000002        0.0000000000000000     
  0.51022000000000001       0.76192000000000004        0.0000000000000000     
  0.49914890000000001       0.74624727000000002        0.0000000000000000     
  0.50311967000000002       0.80879526000000002        0.0000000000000000     
  0.50158999999999998       0.83067000000000002        0.0000000000000000     
  0.46398766000000002       0.86013877000000005        0.0000000000000000     
  0.41615999999999997       0.37445000000000001        0.0000000000000000     
  0.43026551000000002       0.31678289999999998        0.0000000000000000     
  0.39694000000000002       0.24930500000000000        0.0000000000000000     
  0.41994211999999997       0.11642168999999999        0.0000000000000000     
  0.43478000000000000       0.10487000000000000        0.0000000000000000     
  0.57060999999999995       0.13406000000000001        0.0000000000000000     
  0.69662999999999997       0.19536999999999999        0.0000000000000000     
  0.71886000000000005       0.24690999999999999        0.0000000000000000     
  0.74097999999999997       0.33731000000000000        0.0000000000000000     
  0.72538453999999997       0.37890159000000001        0.0000000000000000     
  0.73320112000000004       0.40760169000000002        0.0000000000000000     
  0.70620000000000005       0.41999999999999998        0.0000000000000000     
  0.74504999999999999       0.48705999999999999        0.0000000000000000     
  0.68996999999999997       0.48530000000000001        0.0000000000000000     
  0.66213999999999995       0.47589999999999999        0.0000000000000000     
  0.63373000000000002       0.47414000000000001        0.0000000000000000     
  0.68861000000000006       0.55347000000000002        0.0000000000000000     
  0.62687669000000001       0.62714972999999996        0.0000000000000000     
  0.51632500000000003       0.26038000000000000        0.0000000000000000     
  0.66345008000000005       0.20335998999999999        0.0000000000000000     
  0.68430000000000002       0.34078999999999998        0.0000000000000000     
  0.59737622999999995       0.42491739000000001        0.0000000000000000     
  0.55410000000000004       0.41776999999999997        0.0000000000000000     
  0.52314000000000005       0.40723999999999999        0.0000000000000000     
  0.46111999999999997       0.32850000000000001        0.0000000000000000     
  0.67330999999999996       0.19785000000000000        0.0000000000000000     
  0.69296999999999997       0.22594000000000000        0.0000000000000000     
  0.40191943000000002       0.86367486999999998        0.0000000000000000     
  0.12271248000000000       0.14762657000000001        0.0000000000000000     
  0.14852475000000001       0.12337326999999999        0.0000000000000000     
  0.74936000000000003       0.44945000000000002        0.0000000000000000     
  0.61883999999999995       0.82247000000000003        0.0000000000000000     
  0.26941311000000001       0.82690965999999999        0.0000000000000000     
  0.14224880000000001       0.37582204000000002        0.0000000000000000     
  0.16781681000000001       0.35746910999999998        0.0000000000000000     
  0.38384000000000001       0.56583499999999998        0.0000000000000000     
  0.17475499999999999       0.26156499999999999        0.0000000000000000     
  0.16588214000000001       0.27095785999999999        0.0000000000000000     
  0.19754658000000000       0.25190794000000000        0.0000000000000000     
  0.18240999999999999       0.26306000000000002        0.0000000000000000     
  0.38775999999999999       0.58301250000000004        0.0000000000000000     
   9.2598787000000002E-002  0.28369930999999998        0.0000000000000000     
  0.12988000000000000       0.31154999999999999        0.0000000000000000     
  0.15971573000000000       0.35549573000000001        0.0000000000000000     
  0.43006250000000001       0.70743999999999996        0.0000000000000000     
  0.40538000000000002       0.77361250000000004        0.0000000000000000     
  0.42100500000000002       0.81830000000000003        0.0000000000000000     
  0.41854986000000000       0.69665306000000005        0.0000000000000000     
  0.38971499999999998       0.61060999999999999        0.0000000000000000     
  0.38773564999999999       0.45901181000000002        0.0000000000000000     
  0.39590059000000000       0.45441031999999998        0.0000000000000000     
  0.38384000000000001       0.54735250000000002        0.0000000000000000     
  0.36502704000000002       0.72473217000000001        0.0000000000000000     
  0.32337357999999999       0.82795901000000005        0.0000000000000000     
  0.70706773000000001       0.36044921000000002        0.0000000000000000     
  0.74097999999999997       0.35293500000000000        0.0000000000000000     
  0.74097999999999997       0.31773499999999999        0.0000000000000000     
  0.71235000000000004       0.23181499999999999        0.0000000000000000     
  0.58099500000000004       0.12427000000000001        0.0000000000000000     
  0.50926802999999998       0.81618526000000002        0.0000000000000000     
  0.39694000000000002       0.25951249999999998        0.0000000000000000     
  0.43692275000000003       0.32087145000000000        0.0000000000000000     
  0.41615999999999997       0.32374500000000000        0.0000000000000000     
  0.43379000000000001       0.30536999999999997        0.0000000000000000     
  0.56120943999999995       0.14292195999999999        0.0000000000000000     
  0.56101000000000001       0.12778999999999999        0.0000000000000000     
  0.72713519000000004       0.36131693999999998        0.0000000000000000     
  0.74289499999999997       0.49852000000000002        0.0000000000000000     
  0.70664000000000005       0.43221999999999999        0.0000000000000000     
  0.53013999999999994       0.41189999999999999        0.0000000000000000     
  0.54561999999999999       0.41584500000000002        0.0000000000000000     
  0.71071649000000003       0.55600200000000000        0.0000000000000000     
  0.67979000000000001       0.56306999999999996        0.0000000000000000     
  0.62555094000000000       0.62995129000000005        0.0000000000000000     
  0.66964504000000002       0.20812000000000000        0.0000000000000000     
  0.58421811000000001       0.42326870000000000        0.0000000000000000     
  0.59798264000000001       0.43157266000000000        0.0000000000000000     
  0.54939000000000004       0.42473000000000000        0.0000000000000000     
  0.52732000000000001       0.40139999999999998        0.0000000000000000     
[...]
 CELL_DATA        1963
 SCALARS Tumor_cells float
 LOOKUP_TABLE default
    0.16172179209476381312E-07
    0.15413581807877486430E-07
    0.17468537065336062179E-07
    0.16477102636695057635E-07
    0.15410615626080738074E-07
    0.12038527162269674369E-07
    0.16244773668205503159E-07
    0.21149828779544745741E-07
    0.18440286705325764741E-07
    0.14452491611658209616E-07
    0.16203229666301705748E-07
    0.11243393917490834957E-07
    0.61398694309335320093E-08
    0.14275343325852867332E-07
    0.19756826366870146327E-07
    0.20219471786542114329E-07
    0.20817578635215410867E-07
    0.19128790247575757530E-07
    0.18373116214540497579E-07
    0.21050100709348021604E-07
    0.15710870931448537758E-07
    0.13970877653316345457E-07
    0.13034668791012255053E-07
    0.16096722723090317750E-07
    0.18296382132185109490E-07
    0.12805335527443161666E-07
    0.13056540258383487661E-07
    0.14716945483701194691E-07
    0.15093676923810996718E-07
    0.13397650062950551806E-07
    0.11416282151538649472E-07
    0.26149288659632357717E-07
    0.19948506917633993932E-07
    0.10576757845021878927E-07
    0.16945642505356330496E-07
    0.14690317289492000177E-07
    0.80738870554798908323E-08
    0.76885680275564267509E-08
    0.12572173271387628059E-07
    0.98058985918136360369E-08
    0.16382869183112449214E-07
    0.18557931742951180802E-07
    0.20305142266663611695E-07
    0.11506555895704499836E-07
    0.17108883765924027213E-07
    0.13052649628600820487E-07
    0.12515294539463860062E-07
    0.20021031300327741660E-07
    0.19110615591519438060E-07
    0.21212433244027439918E-07
    0.21802908905432345716E-07
    0.20544188762082347599E-07
    0.20908850809780035215E-07
    0.13594189294759478251E-07
    0.19447271019517907958E-07
    0.20434726459480985691E-07
    0.13754019126725720609E-07
    0.16873723584311183612E-07
    0.12871595643186409432E-07
    0.15505557196180428484E-07
    0.18786589882503126327E-07
    0.19536516791726267869E-07
    0.18568119906011979868E-07
    0.18601418492661205628E-07
    0.13319798503760116350E-07
    0.18328369492936454015E-07
    0.12716004915592019789E-07
    0.14308706150742655077E-07
    0.21615891230744369281E-07
    0.20368891681096364207E-07
    0.16379634008157060518E-07
    0.16924639096489151118E-07
    0.18270189046536732776E-07
    0.25177187661127387118E-04
    0.22664067187673707123E-07
    0.21494589534651414516E-07
    0.21345751495176537689E-07
    0.21749592875297654372E-07
    0.18059115752245943710E-07
    0.19985205954054450845E-07
    0.18526443106979264178E-07
    0.21438646631230866544E-07
    0.21407968302105241174E-07
    0.21301110543233650638E-07
    0.18124924114052374995E-07
    0.16673310369471281023E-07
    0.13806029283953892969E-07
    0.17318689029615148334E-07
    0.18346084858657651851E-07
    0.17026147060693428108E-07
    0.17930059866052769034E-07
    0.18917177709787100408E-07
    0.19346931109625090817E-07
    0.16913132414027679380E-07
    0.19001029984499510985E-07
    0.19586085899511427498E-07
    0.17827794507615747575E-07
    0.16316666364232071065E-07
    0.17006604873638388628E-07
    0.18747943265365984464E-07
    0.19486374145847268021E-07
    0.19021835827978253100E-07
    0.15380324898805563190E-07
    0.14415377307166700972E-07
    0.18787587188228223945E-07
    0.18953228415630898905E-07
    0.15800694029988637763E-07
    0.18360538915718497959E-07
    0.19706393962897489695E-07
    0.16400504905022099793E-07
    0.13874827752905480852E-07
    0.18012798942698008712E-07
    0.18586096662608198251E-07
    0.17513141060153670656E-07
    0.13746411370812640841E-07
    0.17447085365671115939E-07
    0.15060804922310554028E-07
    0.15409496978979658626E-07
    0.15338560177425686544E-07
    0.16693455474378057963E-07
    0.19738590754336133717E-07
    0.18265184810398637482E-07
    0.16393849486468788719E-07
    0.17151312127760569552E-07
    0.13644676559038156921E-07
    0.13307075394278994411E-07
    0.20576310832621834388E-07
    0.16911946333662370381E-07
    0.21793266214960257021E-07
    0.20434740776451455820E-07
    0.11924642756516431604E-07
    0.14025322275532727079E-07
    0.11670201764245483056E-07
    0.19556602800095857131E-07
    0.12040549383679189227E-07
    0.17292791247375986423E-07
    0.17121278140282232608E-07
    0.17698899274336993994E-07
    0.13918147600085978830E-07
    0.12072355894921405314E-07
    0.14903187891060946831E-07
    0.19537680651483691627E-07
    0.14624901837660423607E-07
    0.14482189266168701095E-07
    0.21027843748166528116E-07
    0.17693055858633608750E-07
    0.22796199037908560872E-07
    0.86463988354501270020E-08
    0.19882852424704185115E-07
    0.24036547193309624266E-07
    0.21730382806285169388E-07
    0.19598251691377472961E-07
    0.24181014477973222134E-07
    0.18644781895129640780E-07
    0.18661533086060405598E-07
    0.20202332813536246309E-07
    0.20424638780018615123E-07
    0.19456007494439999358E-07
    0.20513945754158821925E-07
    0.13510869662105035520E-07
    0.22549762902166269176E-07
    0.16490782298621715586E-07
    0.20906918299139429712E-07
    0.20730035511852423578E-07
    0.21047143335604355772E-07
    0.21430230745843891157E-07
    0.22329349694089074812E-07
    0.23083881319002466499E-07
    0.22729336124078768555E-07
    0.20840670365450325429E-07
    0.19277706576789955312E-07
    0.23067407904558354144E-07
    0.25392284239849910339E-07
    0.18780301031669281501E-07
    0.23807105654161010436E-07
    0.10567465103737495447E-07
    0.21069133732222532442E-07
    0.24802153136156412164E-07
    0.24206476278541009026E-07
    0.23632885393773828528E-07
    0.17648589133680736736E-02
    0.48089043726025758330E-01
    0.20767976023469178663E-07
    0.23069708944252682745E-07
    0.31394550310454867316E-05
    0.20601349060800970311E-07
    0.48267292439604542355E-05
    0.22909987234602206352E-07
    0.14122814236435698410E-07
    0.19439654361684815074E-07
    0.21964331974766253847E-07
    0.22095864328234420100E-07
    0.18709356736048943223E-07
    0.19864022658508270429E-07
    0.19479154775871540201E-07
    0.23615820310839654465E-07
    0.16041897493557038327E-07
    0.19498269616346485390E-07
    0.10677549340188687509E-07
    0.14396741974282787952E-07
    0.10160845820661595917E-02
    0.24370018113603504633E-07
    0.26563689429028358632E-04
    0.16722641944820589842E-07
    0.14499341759473996884E-04
    0.22625983874065045677E-07
    0.16725501082013205945E-02
    0.24527531553330687467E-07
    0.21857717277603542744E-07
    0.16128497409437916015E-07
    0.13877208586817051625E-07
    0.17411711356674180038E-07
    0.13937932040752014357E-07
    0.11697676490892846712E-07
    0.19340839143576130372E-07
    0.21137827847419946877E-07
    0.18077626459371392885E-07
    0.20180865218099734758E-07
    0.91155380383392559329E-08
    0.11452189512220594084E-07
    0.11567727376056225390E-07
    0.18147109850365726079E-07
    0.18394901429970601790E-07
    0.10521112292813691189E-07
    0.21009673585247980930E-07
    0.17979053317456869781E-07
    0.15970750429790897570E-07
    0.17840301812442811283E-07
    0.20853242233767867717E-07
    0.21850103594373722992E-07
    0.17083781168789008781E-07
    0.14758665108935602809E-07
    0.15357080409635524826E-07
    0.13950694069907528724E-07
    0.22013411353417607129E-07
    0.22173563016959601607E-07
    0.24189795471205332883E-07
    0.17727481693758859622E-07
    0.15143921798871958613E-07
    0.13864907027589097786E-07
    0.13806583086079682142E-07
    0.18771346461485808350E-07
    0.11035988179576746796E-07
    0.13531524403164646386E-07
    0.21097660033256785481E-07
    0.21538305691866942374E-07
    0.18229228546861514505E-07
    0.13857657187363910208E-07
    0.21060501756753372133E-07
    0.16186124561428647608E-07
    0.23164168457017009295E-07
    0.20450068958335752935E-07
    0.23897487432254106753E-07
    0.17804293769552602809E-07
    0.14337379596184735146E-07
    0.23296540986962521180E-07
    0.18031195838707156425E-07
    0.22396014816697559419E-07
    0.25349414558568383302E-07
    0.25285690289414130749E-07
    0.25828957941342014548E-07
    0.20213357520058795890E-07
    0.24925492530549923756E-07
    0.25237326558780128763E-07
    0.19522178254026509207E-07
    0.13357799090243905999E-07
    0.17433226963248386127E-07
    0.12327376185519507874E-02
    0.14991795649182588111E-07
    0.19297866798491952843E-07
    0.66347745102834356987E-03
    0.17828570202341562043E-07
    0.25322199270453957937E-02
    0.15752932013389384314E-07
    0.17804762348410945479E-07
    0.23625211537623384757E-07
    0.14109312948256686870E-02
    0.20436014941757852391E-07
    0.21994624085401192305E-07
    0.25506570023185382822E-07
    0.10642361892788942956E-03
    0.10514111570487826832E-07
    0.15019271789303788023E-07
    0.19624078143681973134E-07
    0.15272010039938545702E-07
    0.15126156690322249456E-07
    0.21230144489279166974E-05
    0.20393387658218566820E-07
    0.19070115081891921200E-07
    0.14592234308025911282E-07
    0.19781224939937141040E-07
    0.20005677264354503040E-07
    0.19546097085555422718E-07
    0.19684500123184137185E-07
    0.19018945624678482565E-07
    0.19435656658115108375E-07
    0.19992422668718717930E-07
    0.19379947591917216556E-07
    0.17824254295299974309E-07
    0.18285451658075933556E-07
    0.17175455997866651283E-07
    0.18502290169092557583E-07
    0.23281041653236333663E-02
    0.15892685539958424697E-07
    0.17481438216866494152E-07
    0.12049059186350668388E-01
    0.16430908284075432094E-07
    0.17487792207530725844E-07
    0.18071693671660115180E-07
    0.18205836702996074908E-07
    0.16367763886403199393E-07
    0.16357043902733886111E-07
    0.18692729395819638093E-07
    0.16933884072007125202E-07
    0.18430228498988624767E-07
    0.17201972415049130398E-07
    0.19683016833851116226E-07
    0.60061252770005374435E-01
    0.20485508084334472364E-07
    0.18906962295207813217E-07
    0.20511034279005732715E-07
    0.19990615890249961030E-07
    0.20960923899120841461E-07
    0.20218750740339410287E-07
    0.20154713012088181214E-07
    0.20378559819028878394E-07
    0.20350796669193280451E-07
    0.20171295165003782172E-07
    0.20699384975713112878E-07
    0.22098855008682737865E-07
    0.19528940396777833629E-07
    0.20328561769697094092E-07
    0.17757394276053852243E-07
    0.20075253141744485920E-07
    0.17312156907953929047E-07
    0.17974765018293001658E-07
    0.23976576240747993102E-07
    0.17396318247752244650E-07
    0.18688617552371152078E-07
    0.17754151161936532951E-07
    0.19578409780160145752E-07
    0.17771067846149408143E-07
    0.18873506684421800874E-07
    0.21004622849807248589E-07
    0.17455224890087964555E-07
    0.18260311178069886198E-07
    0.24404622762918506956E-07
    0.22724486773746457183E-07
    0.19255923604701316720E-07
    0.17419913056921727647E-07
    0.18348742174780085279E-07
    0.19061603834879193830E-07
    0.19871637237398269186E-07
    0.19580172035627214130E-07
    0.17774820497765056622E-07
    0.19841091858118905876E-07
    0.17766220002672014123E-07
    0.17157620154575057582E-07
    0.18211144364422839222E-07
    0.18406598172774910150E-07
    0.14322023692339147898E-07
    0.15025675698434166163E-07
    0.16881618478014354301E-07
    0.15140580961584559573E-07
    0.14979996364200547526E-07
    0.17622484932588098385E-07
    0.16513642953747124215E-07
    0.15896774418023396239E-07
    0.15414663320306469693E-07
    0.19612292318653401974E-07
    0.24271829482387548774E-07
    0.22561504169200880730E-07
    0.18714074197671230331E-07
    0.20846617849281407792E-07
    0.18491500805811573225E-07
    0.11427090409150631973E-07
    0.18996972788351797368E-07
    0.20504797858258667081E-07
    0.20311015840208942627E-07
    0.18490162347334867183E-07
    0.20252020651517610826E-07
    0.19741984644974617976E-07
    0.19271410184840524994E-07
    0.19854753496001667613E-07
    0.19544620143792368001E-07
    0.95038826099262559260E-08
    0.21191068025294441452E-07
    0.17629670579374890575E-03
    0.21491421632658578581E-07
    0.16916089269380441624E-07
    0.19216770410952766873E-07
    0.18689390395971628599E-07
    0.20869224976292833627E-07
    0.19530179387447909210E-07
    0.20829645113048135185E-07
    0.22277508252438854967E-07
    0.18187574724811850475E-07
    0.18610198957992088986E-07
    0.23573699505583315305E-07
    0.18516077423369741609E-07
    0.20998055019235689575E-07
    0.21105264968499163480E-07
    0.17264775693107331314E-07
    0.21519484519867061413E-07
    0.21682724134354087411E-07
    0.22485367390151879284E-07
    0.20793740821159366967E-07
    0.21736901552026303558E-07
    0.21866465004263525172E-07
    0.21975010274265893209E-07
    0.17232862757568760127E-07
    0.19555791601045986054E-07
    0.22898546362650187842E-07
    0.18543224081087494324E-07
    0.18553910783523207331E-07
    0.21935875396842789250E-07
    0.17197027868442241413E-07
    0.20935012751660345166E-07
    0.21785155938356141259E-07
    0.16636686780153109572E-07
    0.23208685420043848724E-07
    0.18372991963735428429E-07
    0.18054204577185256675E-07
    0.18257765686297753348E-07
    0.21640401428350466829E-07
    0.21224600595237529006E-07
    0.24036504332129075969E-07
    0.19188861501582377811E-07
    0.23979493616229853743E-07
    0.23018280457173772446E-07
    0.12192974202286822306E-07
    0.20888343612180051061E-07
    0.99336099514739402829E-08
    0.11052512526536448592E-07
    0.25047818743437593699E-07
    0.23257962167197362097E-07
    0.16971946073376039619E-07
    0.27697796756816601696E-07
    0.21858213713118505367E-07
    0.24395020719245573949E-07
    0.24084042725787717415E-07
    0.24005989100445157033E-07
    0.18153262990450006222E-07
    0.18670211697902581724E-07
    0.20985606455524303782E-07
    0.19171759826423613739E-07
    0.18514211812134737172E-07
    0.22447211876700342595E-07
    0.24297539922512250597E-07
    0.23689237390836288834E-07
    0.25631369322230472296E-07
    0.23094005148049163036E-07
    0.21785475088603615493E-07
    0.21998623341341581763E-07
    0.15878927217652324844E-07
    0.19574615536427624438E-07
    0.23263001531214077386E-07
    0.15888120620466213680E-07
    0.28418506574364193274E-07
    0.18927324862773829087E-07
    0.10901129220504940133E-06
    0.79382926417984180922E-06
    0.30017209767416238079E-07
    0.62829833293009148162E-07
    0.20467355831266101843E-07
    0.18917346873537532333E-07
    0.51055481898565568494E-05
    0.20489984450843455571E-07
    0.66854569209230960516E-08
    0.15331021648104020530E-07
    0.10097224707681541469E-07
    0.15388976711341950373E-07
    0.85024491653625280763E-08
    0.14960166843006068183E-06
    0.24854402604067470115E-07
    0.12645205298080118102E-07
    0.51919328723942955043E-07
    0.27701281570451362963E-07
    0.25918206042466864057E-07
    0.22020922965934777749E-07
    0.25572961627601654937E-07
    0.23369136565726697313E-07
    0.21905556925642447235E-07
    0.95843991627586230355E-08
    0.21726658832851971385E-07
    0.22972604892040283916E-07
    0.20140581012717055151E-07
    0.22669536065810553887E-07
    0.21219481789302060907E-07
    0.20399422580274851202E-07
    0.96888258381906681498E-08
    0.21620211694919020609E-07
    0.32842616307610524979E-07
    0.24273475478679144497E-07
    0.18788614812321063667E-07
    0.18574444354876821930E-07
    0.20426950646232387384E-07
    0.13753841665852044846E-07
    0.13735968676106609738E-07
    0.20732123049268011638E-07
    0.17176629530596204735E-07
    0.21482772910956625880E-07
    0.11909303875149214915E-07
    0.94272981393972342027E-08
    0.12502561038686109182E-07
    0.17686323692261737910E-07
    0.13102350110977084992E-07
    0.12360476606452055984E-07
    0.18952501878435615918E-07
    0.21790113147530297506E-07
    0.21444752737936312801E-07
    0.22782255902743148260E-07
    0.18000507735975256548E-07
    0.15906789239511370927E-07
    0.17712223919229745916E-07
    0.20043230465089347058E-07
    0.14064772463840996441E-07
    0.15308114788695750439E-07
    0.20349756548750948570E-07
    0.20032782614526219623E-07
    0.23993426138830756740E-07
    0.23854312371751312289E-07
    0.21804617707369363259E-07
    0.17160867170512302851E-07
    0.21287923232095567737E-07
    0.21438259637082132805E-07
    0.21295449364401968763E-07
    0.18219991669715295870E-07
    0.20633228716861417005E-07
    0.11177861426090685765E-07
    0.11285987640206907295E-07
    0.14729529783421314509E-07
    0.20950689757599863822E-07
    0.18320372524911856941E-07
    0.17921123214746673244E-07
    0.13157536214214343267E-07
    0.17373953942156010010E-07
    0.21020059311019656776E-07
    0.15932891529587520563E-07
    0.17191293217198238726E-07
    0.15027589441338488862E-07
    0.21707768860855545960E-07
    0.16850047124519984664E-07
    0.18980045881258266074E-07
    0.19102426817505290761E-07
    0.21431348016015199570E-07
    0.21209759132399556477E-07
    0.20578093915569619512E-07
    0.64628620301307264633E-03
    0.21659771224501533032E-07
    0.20494033854293407961E-07
    0.20964352721075953122E-07
    0.17646445940561055628E-07
    0.15382841206207840123E-07
    0.23842505784654894815E-07
    0.18847704338451455504E-07
    0.10349572812954645485E-07
    0.20578841688956575686E-07
    0.16801676108504046169E-04
    0.21519814543634616631E-07
    0.19099558434055198355E-07
    0.14749308279613047808E-07
    0.15463953956111079965E-02
    0.19364267408499072104E-07
    0.15770327192681195282E-07
    0.11376330197104159589E-07
    0.16244364750265302672E-07
    0.18572907667280598537E-07
    0.15747978216061113958E-07
    0.16089318809988055403E-07
    0.25954177186725670232E-03
    0.14604942222110764941E-07
    0.29561548296460203211E-07
    0.19649469514158154289E-07
    0.28639808904170866988E-06
    0.75354525077951118224E-07
    0.25492474938080002382E-07
    0.13933329586361045711E-05
    0.10463163504135121504E-06
    0.86996174623720866192E-07
    0.32299604052914172774E-05
    0.67786993808529749615E-06
    0.85761720994646209633E-03
    0.13600748589754638633E-05
    0.30832983282758722296E-07
    0.31362915762587822577E-07
    0.16495792745550102705E-07
    0.49491654649132692920E-05
    0.19660359734562679428E-02
    0.13460902407353479791E-02
    0.18172736665269036572E-02
    0.36055473656092557229E-02
    0.37162574843819201446E-02
    0.11608555926688578360E-03
    0.36249973540099032776E-01
    0.30611568797671298505E-04
    0.13423643261209506142E-01
    0.70041358666010451392E-02
    0.99938830456099934929E-02
    0.66537420643924937574E-02
    0.29522738376330140420E-01
    0.32345231865304389885E-03
    0.12735042318255669451E-02
    0.26306455465114269437E-01
    0.13085463772597061445E-04
    0.19052303716432792465E-02
    0.13918667195783946040E-03
    0.46858809339896538072E-04
    0.12195377732701735089E-02
    0.21538402276703404984E-03
    0.42588142346055467757E-05
    0.34799057066340857656E-06
    0.21058421428794907450E-04
    0.18395589746454350030E-06
    0.50861891975340035518E-03
    0.77588413511686673781E-04
    0.11065325474320698320E-03
    0.79924307506565078936E-03
    0.27508616143832736028E-05
    0.24945447540707976536E-04
    0.20684574267852033681E-07
    0.57958354221891836191E-03
    0.33235086736493738013E-01
    0.46865845964441855964E-01
    0.24104354959188534213E+00
    0.23251160780285576313E+00
    0.28187272100701249444E+00
    0.14170828317976320518E-01
    0.91823464617176914215E-01
    0.88019502786412569945E-02
    0.28902383882582466379E+00
    0.18240193776789145885E+00
    0.65754077840709668212E+00
    0.65345914599310017667E+00
    0.25666242109881325095E-01
    0.73514898322268647929E-02
    0.19408439190641076262E-02
    0.30284602987690112386E+00
    0.35365636058362243110E+00
    0.29601084153351412027E-02
    0.14490982675551824969E-07
    0.66805934182999782145E+00