# vtk DataFile Version 3.0
LAPLACIEN  2D
ASCII
DATASET UNSTRUCTURED_GRID
 POINTS        1083  float
  0.25752000000000003       0.83521000000000001        0.0000000000000000     
  0.26692436000000003       0.82361669999999998        0.0000000000000000     
  0.12755760999999999       0.37286407999999999        0.0000000000000000     
  0.16947000000000001       0.36312000000000000        0.0000000000000000     
  0.20556749999999999       0.30943999999999999        0.0000000000000000     
  0.19808000000000001       0.30240000000000000        0.0000000000000000     
  0.17829000000000000       0.29613000000000000        0.0000000000000000     
  0.16072427000000000       0.27611573000000000        0.0000000000000000     
  0.20518000000000000       0.25756000000000001        0.0000000000000000     
  0.14513182999999999       0.15495659000000001        0.0000000000000000     
  0.18475000000000000       0.25733000000000000        0.0000000000000000     
  0.15320000000000000       0.28981000000000001        0.0000000000000000     
   8.4010000000000001E-002  0.28726000000000002        0.0000000000000000     
  0.12066000000000000       0.31644000000000000        0.0000000000000000     
  0.15419146000000000       0.34997146000000001        0.0000000000000000     
   9.1609999999999997E-002  0.41126000000000001        0.0000000000000000     
   8.2839999999999997E-002  0.24906000000000000        0.0000000000000000     
  0.10719500000000000       0.24906000000000000        0.0000000000000000     
  0.10394500000000000       0.24026000000000000        0.0000000000000000     
  0.10306999999999999       0.16439999999999999        0.0000000000000000     
  0.20605000000000001        7.9089999999999994E-002   0.0000000000000000     
  0.42243181000000002       0.83768843000000004        0.0000000000000000     
  0.40538000000000002       0.78705000000000003        0.0000000000000000     
  0.42062500000000003       0.70743999999999996        0.0000000000000000     
  0.39167000000000002       0.62682000000000004        0.0000000000000000     
  0.38775999999999999       0.57162500000000005        0.0000000000000000     
  0.39058282000000000       0.54871530000000002        0.0000000000000000     
  0.39464117999999998       0.46212064000000003        0.0000000000000000     
  0.39241130000000002       0.45290363000000000        0.0000000000000000     
  0.38384000000000001       0.55516500000000002        0.0000000000000000     
  0.38069999999999998       0.59557000000000004        0.0000000000000000     
  0.36735092000000003       0.72975095999999995        0.0000000000000000     
  0.37138180999999998       0.84873708999999997        0.0000000000000000     
  0.31856716000000002       0.83411802999999995        0.0000000000000000     
  0.65566999999999998       0.71865999999999997        0.0000000000000000     
  0.62348499999999996       0.71865999999999997        0.0000000000000000     
  0.63253999999999999       0.72650000000000003        0.0000000000000000     
  0.63397590999999998       0.79238797000000005        0.0000000000000000     
  0.61133999999999999       0.77437999999999996        0.0000000000000000     
  0.58667000000000002       0.75475999999999999        0.0000000000000000     
  0.51746738999999997       0.83310978000000002        0.0000000000000000     
  0.51022000000000001       0.76192000000000004        0.0000000000000000     
  0.49914890000000001       0.74624727000000002        0.0000000000000000     
  0.50311967000000002       0.80879526000000002        0.0000000000000000     
  0.50158999999999998       0.83067000000000002        0.0000000000000000     
  0.46398766000000002       0.86013877000000005        0.0000000000000000     
  0.41615999999999997       0.37445000000000001        0.0000000000000000     
  0.43026551000000002       0.31678289999999998        0.0000000000000000     
  0.39694000000000002       0.24930500000000000        0.0000000000000000     
  0.41994211999999997       0.11642168999999999        0.0000000000000000     
  0.43478000000000000       0.10487000000000000        0.0000000000000000     
  0.57060999999999995       0.13406000000000001        0.0000000000000000     
  0.69662999999999997       0.19536999999999999        0.0000000000000000     
  0.71886000000000005       0.24690999999999999        0.0000000000000000     
  0.74097999999999997       0.33731000000000000        0.0000000000000000     
  0.72538453999999997       0.37890159000000001        0.0000000000000000     
  0.73320112000000004       0.40760169000000002        0.0000000000000000     
  0.70620000000000005       0.41999999999999998        0.0000000000000000     
  0.74504999999999999       0.48705999999999999        0.0000000000000000     
  0.68996999999999997       0.48530000000000001        0.0000000000000000     
  0.66213999999999995       0.47589999999999999        0.0000000000000000     
  0.63373000000000002       0.47414000000000001        0.0000000000000000     
  0.68861000000000006       0.55347000000000002        0.0000000000000000     
  0.62687669000000001       0.62714972999999996        0.0000000000000000     
  0.51632500000000003       0.26038000000000000        0.0000000000000000     
  0.66345008000000005       0.20335998999999999        0.0000000000000000     
  0.68430000000000002       0.34078999999999998        0.0000000000000000     
  0.59737622999999995       0.42491739000000001        0.0000000000000000     
  0.55410000000000004       0.41776999999999997        0.0000000000000000     
  0.52314000000000005       0.40723999999999999        0.0000000000000000     
  0.46111999999999997       0.32850000000000001        0.0000000000000000     
  0.67330999999999996       0.19785000000000000        0.0000000000000000     
  0.69296999999999997       0.22594000000000000        0.0000000000000000     
  0.40191943000000002       0.86367486999999998        0.0000000000000000     
  0.12271248000000000       0.14762657000000001        0.0000000000000000     
  0.14852475000000001       0.12337326999999999        0.0000000000000000     
  0.74936000000000003       0.44945000000000002        0.0000000000000000     
  0.61883999999999995       0.82247000000000003        0.0000000000000000     
  0.26941311000000001       0.82690965999999999        0.0000000000000000     
  0.14224880000000001       0.37582204000000002        0.0000000000000000     
  0.16781681000000001       0.35746910999999998        0.0000000000000000     
  0.38384000000000001       0.56583499999999998        0.0000000000000000     
  0.17475499999999999       0.26156499999999999        0.0000000000000000     
  0.16588214000000001       0.27095785999999999        0.0000000000000000     
  0.19754658000000000       0.25190794000000000        0.0000000000000000     
  0.18240999999999999       0.26306000000000002        0.0000000000000000     
  0.38775999999999999       0.58301250000000004        0.0000000000000000     
   9.2598787000000002E-002  0.28369930999999998        0.0000000000000000     
  0.12988000000000000       0.31154999999999999        0.0000000000000000     
  0.15971573000000000       0.35549573000000001        0.0000000000000000     
  0.43006250000000001       0.70743999999999996        0.0000000000000000     
  0.40538000000000002       0.77361250000000004        0.0000000000000000     
  0.42100500000000002       0.81830000000000003        0.0000000000000000     
  0.41854986000000000       0.69665306000000005        0.0000000000000000     
  0.38971499999999998       0.61060999999999999        0.0000000000000000     
  0.38773564999999999       0.45901181000000002        0.0000000000000000     
  0.39590059000000000       0.45441031999999998        0.0000000000000000     
  0.38384000000000001       0.54735250000000002        0.0000000000000000     
  0.36502704000000002       0.72473217000000001        0.0000000000000000     
  0.32337357999999999       0.82795901000000005        0.0000000000000000     
  0.70706773000000001       0.36044921000000002        0.0000000000000000     
  0.74097999999999997       0.35293500000000000        0.0000000000000000     
  0.74097999999999997       0.31773499999999999        0.0000000000000000     
  0.71235000000000004       0.23181499999999999        0.0000000000000000     
  0.58099500000000004       0.12427000000000001        0.0000000000000000     
  0.50926802999999998       0.81618526000000002        0.0000000000000000     
  0.39694000000000002       0.25951249999999998        0.0000000000000000     
  0.43692275000000003       0.32087145000000000        0.0000000000000000     
  0.41615999999999997       0.32374500000000000        0.0000000000000000     
  0.43379000000000001       0.30536999999999997        0.0000000000000000     
  0.56120943999999995       0.14292195999999999        0.0000000000000000     
  0.56101000000000001       0.12778999999999999        0.0000000000000000     
  0.72713519000000004       0.36131693999999998        0.0000000000000000     
  0.74289499999999997       0.49852000000000002        0.0000000000000000     
  0.70664000000000005       0.43221999999999999        0.0000000000000000     
  0.53013999999999994       0.41189999999999999        0.0000000000000000     
  0.54561999999999999       0.41584500000000002        0.0000000000000000     
  0.71071649000000003       0.55600200000000000        0.0000000000000000     
  0.67979000000000001       0.56306999999999996        0.0000000000000000     
  0.62555094000000000       0.62995129000000005        0.0000000000000000     
  0.66964504000000002       0.20812000000000000        0.0000000000000000     
  0.58421811000000001       0.42326870000000000        0.0000000000000000     
  0.59798264000000001       0.43157266000000000        0.0000000000000000     
  0.54939000000000004       0.42473000000000000        0.0000000000000000     
  0.52732000000000001       0.40139999999999998        0.0000000000000000     
[...]
 CELL_DATA        1963
 SCALARS VEGF float
 LOOKUP_TABLE default
    0.21228468883272722700E-07
    0.14332527564471633153E-07
    0.22013464148355907269E-07
    0.17076958563003051432E-07
    0.14228772349279675194E-07
    0.19852072283278188797E-06
    0.25462099698538726201E-07
    0.83659382801052773770E-07
    0.42943406236983552806E-07
    0.68192568022558156809E-07
    0.53002459742970685872E-07
    0.61575245987152605744E-08
    0.12750063574299022248E-01
    0.16792896957433610409E-07
    0.36861544830341735900E-07
    0.37236161982283950618E-07
    0.47695602725609455331E-07
    0.39041945023126876862E-07
    0.30684763980291684745E-07
    0.47819595488530931516E-07
    0.18740916494572911394E-07
    0.16742412851538303200E-07
    0.43966205199808323047E-07
    0.69368607679395671763E-07
    0.39628028708684599133E-07
    0.33334279869039616462E-07
    0.29487231760653776788E-07
    0.26343119824050578908E-07
    0.13428931914763002229E-07
    0.54206158012127321302E-07
    0.60069991890260745982E-08
    0.38156453996150176133E-01
    0.51736650121901570069E-07
   -0.23299079813607837093E-07
    0.76251441749623123309E-07
    0.67256124570288459247E-09
   -0.53952303459495488078E-07
   -0.63562373456739660269E-07
   -0.45490719908312379559E-07
   -0.71281462678317903823E-07
    0.10715963931226814118E-07
    0.78328693640956737373E-07
    0.87821525645162431733E-07
   -0.37489608208757544160E-07
    0.99261679400227533655E-07
   -0.31144809190874315863E-07
   -0.56517257343449653599E-07
    0.10586505062820672151E-06
    0.15841327145789212208E-06
    0.13399183021112589207E-06
    0.15415268131317785736E-06
    0.17434187692409310688E-06
    0.15504146101636872293E-06
    0.33647933314052486554E-07
    0.23281746218385776023E-06
    0.16246276988487549361E-06
    0.19403305508799718296E-06
    0.19367574810924353894E-06
    0.21852022929248318735E-06
    0.17360099028230132176E-06
    0.13548545097575134598E-06
    0.18265574801359244718E-06
    0.11445156710390847213E-06
    0.13143169189465978283E-06
   -0.40612819195892157925E-07
    0.54861166792965475023E-07
    0.55348501390333091620E-06
    0.17302834268937971002E-06
    0.24746609662669232583E-07
    0.38144464268942534188E-08
   -0.66196598558657077750E-07
   -0.47961428489473327056E-07
   -0.31318347347835407605E-07
    0.30741014778768388505E+00
    0.76647402399699138463E-07
    0.48273380722175215489E-07
    0.43720022089819801346E-07
    0.60574520339823587270E-07
    0.35585378118234230893E-07
   -0.68742232329908034230E-08
    0.49557023177742090843E-07
    0.38408605801517274332E-07
    0.62557684614863666779E-07
    0.21177255929222582569E-07
   -0.69088540876789085385E-07
   -0.62183451723923699562E-07
   -0.10407361277836323659E-06
   -0.82589130653880643761E-07
   -0.63846631360119261097E-07
   -0.70319789226313769366E-07
   -0.65966124092776684746E-08
    0.10082877948077364247E-07
   -0.33269071424654989594E-07
   -0.54833262613799245074E-07
    0.91710253059638436633E-09
   -0.56286738537170357469E-07
    0.37291285956336561366E-07
   -0.51741903628312754627E-07
   -0.50227377768775746739E-07
   -0.82513275462808469971E-08
    0.74108088616015384030E-07
    0.49396519984405588817E-07
    0.85107047262148512174E-07
    0.49344552645529300530E-07
    0.10897152318278147275E-06
    0.86601260364739189025E-07
    0.11267945921139182567E-06
    0.76872532283236289228E-07
    0.28819295277564443123E-06
    0.14984590431089412567E-06
    0.57494008372555436243E-06
    0.28837187119750171106E-06
    0.38911557053320814386E-06
    0.17130607183965161591E-06
    0.72779703195998857139E-06
    0.20718926934279183790E-06
    0.80546870908017431637E-07
    0.40286305471961416117E-06
    0.12500644117132865224E-06
    0.96722002325761451485E-07
    0.18040998621151486141E-06
    0.92537176167012695576E-07
    0.11784495110608713284E-06
    0.57916064383514569595E-07
    0.12417333351713486409E-05
    0.34700245235440120341E-06
    0.60240287962158444335E-06
    0.19728290678710836750E-06
    0.18252160086562008243E-05
    0.26095802400399821478E-06
    0.10922401537520762833E-05
    0.21488635451361872624E-06
    0.47584402962085361235E-06
    0.10237744908712231992E-05
    0.12881857568625931608E-05
    0.52879070332354614591E-07
    0.17287368562272659120E-06
    0.44599670054889081331E-07
    0.18886772947867993487E-06
    0.21349809292958869811E-01
   -0.56379914582017247520E-07
   -0.25233082127455206213E-07
   -0.54379005574995536332E-07
   -0.66079392767885406009E-07
   -0.15759465177707242701E-07
    0.21636700649531325244E-06
    0.88667170071548228250E-08
    0.34208876161657594871E-06
   -0.20766734247245732179E-07
    0.23472237659007229739E-07
    0.33916275804301556069E-08
   -0.28918548634850407078E-07
    0.28629001262275557853E-07
   -0.32947762981586640785E-07
    0.15873221088033456251E-02
   -0.13256230396435282066E-07
   -0.25307328469869442493E-08
   -0.21005047244808479971E-07
    0.51722724335498200347E-07
   -0.45549804717503541976E-07
    0.49326377183185862209E-07
   -0.23492326232062679535E-07
    0.19423404920865197159E-07
    0.97495658816486085143E-10
    0.53374953626235493861E-07
    0.34610394376048902855E-07
    0.29406411350006442092E-07
    0.50603254451252615260E-07
    0.22505878645870759074E-07
    0.27283674468597810366E-08
   -0.27414394708142800617E-07
    0.79680013558986003446E-07
    0.46253827329074344372E-07
    0.44126834012266614043E-07
    0.24848091736404529452E-07
    0.27630501622019801027E-06
   -0.11916358127297685449E-07
    0.39458428851529983280E-07
    0.21975328351862017823E-07
    0.18366263133077298309E-07
    0.29744107963230498326E+00
    0.16943223640743207969E+01
   -0.36993877525093026066E-07
   -0.86728620975727228857E-08
    0.29777500008192771264E-01
   -0.19475783655285194273E-07
    0.28331633957519058997E-01
   -0.16050806598411283796E-09
    0.35088103818101457065E-01
   -0.46198779010372363124E-07
   -0.22465316104292546591E-08
   -0.26202590405807627543E-08
   -0.34954236896157634486E-07
   -0.28350415608488563062E-07
   -0.37951920085542660314E-07
    0.27635328697076266786E-07
   -0.45821919081416776071E-07
   -0.42363682914477117750E-07
   -0.19138133014707130760E-07
   -0.62466489141816091308E-07
    0.21718072679121469548E+00
    0.17522295912179435490E-06
    0.53583952743529221496E-01
   -0.64299492922826762566E-07
    0.46893137811456840625E-01
    0.23166068562298658623E-07
    0.15460663331563082035E+00
    0.39383193914028185734E-07
    0.31394011141517115179E-02
    0.13040940433164263112E-07
    0.24384628313664940945E-06
    0.11299497113000269717E-06
    0.26590504710636871289E-06
    0.20282763393678859525E-06
    0.13211885700250322469E-06
    0.19827362292310118887E-06
    0.19861018831906404661E-06
    0.17665995807886371874E-06
    0.30006232528501252288E-06
    0.27650269553023129903E-06
    0.29787652665397890742E-06
    0.36153471393717464905E-06
    0.18559981245885595934E-06
    0.32291806993827006120E-06
    0.13049320609629055530E-06
    0.47072493278404600857E-06
    0.18987462384837732765E-05
    0.60523297972734849595E-06
    0.24626301429784198360E-05
    0.40524376198869372333E-05
    0.89003847529773151985E-06
    0.14376765586587429243E-05
    0.74746039166009376821E-06
    0.91613154640349302004E-06
    0.25773789773571873977E-05
    0.28252208033419423738E-05
    0.13911227978374655754E-04
    0.13118202480246372797E-05
    0.11707564971846260059E-05
    0.62657299689173378142E-06
    0.47945793104439849467E-06
    0.12009671716190582278E-04
    0.34759922228229861048E-06
    0.29678782123174247995E-06
    0.14444415215417798432E-06
    0.10518654570579781804E-06
    0.51146738066280024906E-06
    0.28728455441952680755E-06
    0.10658473654991653325E-06
    0.24719160223713245182E-06
    0.13177736787289544119E-06
    0.64991041882875589047E-07
    0.62869208334243018071E-07
   -0.75001438012714862906E-07
   -0.10146355708091267232E-06
    0.74348136817486362269E-06
   -0.33657524614044309218E-07
    0.16388969143822338549E-06
    0.34340996978423161768E-05
    0.33606812684251149189E-04
    0.94590630049399724525E-04
    0.67908708817019099453E-06
    0.15588832312854899488E-02
    0.25713584079156752383E-03
   -0.43452632390086194706E-07
    0.89476508639938278412E-06
   -0.77680372006355835025E-07
    0.57487651129490269231E+00
   -0.15743990867168640301E-06
    0.25603424345151295363E-08
    0.66881825718621490395E+00
   -0.10489976350088820208E-06
    0.74146140316598430076E+00
   -0.10545941019505679508E-06
   -0.85860327086885990333E-07
    0.52292220705144849144E-05
    0.42520578700283512275E+00
    0.14724178340898318442E-06
    0.92846184406172086481E-07
    0.70213067754256819428E-03
    0.46066118364552777198E+00
   -0.66754883452376504398E-07
    0.24621768069567142451E-01
    0.38141914470646076943E-05
   -0.94363331017134740948E-07
   -0.93518664048695914812E-07
    0.20797746696894350849E+00
   -0.59203636245810657068E-07
   -0.66634295544082638145E-07
   -0.10364555298501383674E-06
   -0.39899714875226413851E-07
   -0.39250603769012677360E-07
   -0.53720970202116677947E-07
   -0.57425618905981316662E-07
   -0.65611644249581220371E-07
   -0.62916713681297515737E-07
   -0.46140037802742054469E-07
   -0.55693668199038259335E-07
   -0.72076726945671577887E-07
   -0.76257623174205549831E-07
   -0.96279161667363388756E-07
   -0.73768463054713842978E-07
    0.67959969690547950005E+00
   -0.10520135351838478595E-06
   -0.88075278615902605842E-07
    0.60361128096891369932E+00
   -0.85257587524686782574E-07
   -0.55589538666020320745E-07
   -0.65207632420992910154E-07
   -0.81364088230856647458E-07
   -0.10086236297633704942E-06
   -0.99080025732097864604E-07
   -0.13317532442048777623E-08
   -0.94347458138680679189E-07
   -0.68496401370968010863E-07
   -0.94912545832225846676E-07
   -0.29410397324664205691E-07
    0.17215747251898141368E+01
    0.49935544478181602563E-07
   -0.38667915679834190801E-08
    0.21900947222648190363E-07
   -0.97507156332526021578E-08
    0.12940622863316540723E-06
   -0.32445170119195004029E-07
    0.10570117884043229065E-05
    0.14910678465485456226E-06
    0.60589384694558651071E-06
    0.19293865366215277642E-05
    0.63709613687778973904E-05
    0.46202472114499295920E-06
    0.27566002285927972596E-05
    0.37053971379720607449E-06
    0.90599473906909486002E-08
    0.22484936334682830475E-06
   -0.14702911649576414206E-07
    0.31897097479365483963E-07
    0.11203592642765955766E-06
   -0.59824353803123545329E-08
    0.78531931742614357718E-07
   -0.31804083963385199337E-07
    0.67530528606156905427E-06
   -0.41194157661769899608E-07
    0.63242843996895262759E-07
    0.26862042363808329145E-06
    0.76656739108700031582E-06
   -0.70475003194476592570E-07
    0.31279319075048062921E-06
    0.23278648565491821499E-06
    0.79125246054404232489E-07
   -0.52962341973037781123E-07
    0.15245362410068235265E-05
   -0.56895644865404603251E-07
    0.67562560049157000820E-06
    0.16552502972062343851E-06
   -0.83657775549528253111E-07
   -0.80191365159666220524E-07
   -0.81975678657927086824E-07
   -0.75974979743968711534E-07
   -0.85588127172740255646E-07
   -0.67052855664293782993E-07
   -0.90770538937874588122E-07
   -0.98570628627714693449E-07
   -0.71361272173402765400E-07
   -0.93126822594949563142E-07
   -0.74310186691481654328E-07
   -0.76893189691687365872E-07
   -0.51663871558313012804E-07
   -0.94269541910605535058E-07
   -0.96473717958464644513E-07
   -0.59660560776194482755E-07
   -0.39676924457112785566E-08
   -0.22897911827207508214E-07
   -0.48430114977678489304E-07
   -0.31140797017694636257E-07
   -0.47971834618122889871E-07
    0.11335559774551299786E-05
   -0.44392686156419673542E-07
   -0.37295530275262699974E-07
   -0.35604701353245052823E-07
   -0.48232291457816280212E-07
   -0.34003188881050641272E-07
   -0.41500314941716058822E-07
   -0.36802140471977980623E-07
   -0.40137948229868650034E-07
   -0.53509472245773324190E-07
    0.10653670633879500402E-05
   -0.15370935788881241870E-07
    0.10227133534736156106E+00
    0.50710639556204532894E-07
    0.31763195578843924844E-06
    0.95274048942380582847E-08
    0.67019409221788179727E-07
    0.12187946060983132639E-06
   -0.22988641944360470288E-07
    0.22567225417621509882E-06
    0.48105522699998638613E-06
    0.27691757799593537639E-06
    0.40886056333332181186E-06
    0.88965098678750437723E-07
    0.14494604279676294459E-06
    0.17460359174581036300E-05
    0.87948515985045883616E-06
    0.57519534541058213892E-06
    0.22868773871344043806E-06
   -0.21503107938640276914E-07
   -0.12085826750824067129E-07
   -0.29783611925111066871E-07
   -0.24767994780433345852E-07
   -0.15169320369837330061E-07
   -0.24371038759423137575E-07
   -0.52999748436305616167E-07
   -0.36603949416716190408E-07
   -0.10244331917120303250E-07
   -0.45647711454886421597E-07
   -0.50437210435999526763E-07
   -0.72769330311842613204E-08
   -0.53967916074794964969E-07
   -0.27942605494555843749E-07
    0.35329564054748779588E-08
    0.15339015845895398740E-05
    0.86039817584727689173E-06
    0.84404477104062248418E-07
    0.58108002041770096947E-08
    0.83188324271165978719E-07
    0.11908980797953228368E-04
    0.63242806858851453866E-02
    0.38434888404525406180E-04
    0.27137624545379482198E-05
    0.22878504401964192103E-03
    0.10063759019539553842E-04
    0.93892332234572200428E-02
    0.16741613094633652853E-04
    0.52409183120537385439E-02
    0.54188094119899110623E-02
    0.15271235785104715914E-03
    0.30468337341344934157E-03
    0.24928551183808767000E-02
    0.77716222588642680231E-04
    0.17939750196912671032E-01
    0.43307636291607561063E-02
    0.36162703303024455390E-02
    0.23412190654806960078E-04
   -0.19985066127223340657E-07
   -0.25173852945755150209E-07
   -0.20531212275609937936E-07
   -0.43754201061461621006E-07
    0.21764072296217822945E-07
    0.52160938620966168102E-08
    0.78807286844152086329E-06
    0.10675565901855896920E-04
    0.18490204593010759489E-05
    0.55217837631182151820E-06
   -0.27631049998993950300E-07
    0.28667047954511747899E-06
   -0.11108326908173180972E-06
    0.85710225910970488243E-07
    0.70020589152994551998E-07
   -0.10408070923409245144E-06
    0.56385832801531420488E-04
   -0.44247448466550084713E-07
    0.66983801015458505068E-01
    0.15225671884910482734E+00
    0.53055496904733330521E-01
    0.73353240698783073181E-01
   -0.15307884925536506655E-07
    0.29234346243923490377E-01
    0.26435130207031615202E+00
    0.39974083325193941751E-01
    0.15465039789565286285E-01
    0.26219309488171426564E-01
    0.17930118209417325592E-01
    0.21639705251097665628E-01
    0.14302156842157335084E-01
    0.92804419295917345289E-01
    0.11152833736039784369E-03
    0.10308462918229456887E-01
    0.13740669773820581742E-04
    0.29998252179702450203E-04
    0.18250051992946175505E-05
    0.15542007675284767832E-05
    0.17539061223052055229E-04
    0.19050564190056757741E-03
    0.39466227600926529883E-03
    0.58521944295661680255E-02
    0.55053626646153016019E-05
    0.56967387746269620400E-04
    0.11850084194463420071E-02
    0.30929750748442926607E-04
    0.68099747748099576723E-04
    0.81364786290326308275E-03
    0.50699021313568796293E-02
    0.77619633607907743308E-06
    0.55257146992797066820E-01
    0.89904862965562663130E-02
    0.10244360430999135866E-04
    0.51167783427766478615E-08
   -0.92821844239326885019E-08
   -0.52809304667974904633E-07
   -0.52049707523164138181E-07
   -0.76589757841035803328E-08
   -0.41547596763596958872E-07
   -0.17171618047965453843E-08
   -0.56926969381562472685E-07
   -0.51677999882122694231E-07
   -0.58570956823526116738E-07
   -0.22800432999419158474E-07
   -0.54955768187984958201E-07
   -0.64141461830508680906E-07
   -0.64149298459675909717E-07
   -0.11637659381564513529E-07
   -0.26836789382165582064E-07
   -0.72310168151169133916E-08
   -0.19094641451461809075E-07
   -0.38559096207965811110E-07
   -0.25462046948771942059E-07
    0.12789547725829507523E-07
   -0.43207002192763938232E-07
    0.12181736693565628901E-05
    0.21839006942123720320E-08
   -0.58807811723859198357E-08
    0.55001405191572466300E-07
    0.58750633951342056945E-07
    0.22135367189665613000E-07
    0.24389584141119633435E-04
    0.45189053590264066307E-09
    0.31281840855504670111E-07
   -0.96997864080293087737E-08
    0.11604173579160906044E-03
   -0.49443450995709225166E-07
    0.57267116716614323972E-06
   -0.12992912339301100006E-06
   -0.19405442878625739615E-06
   -0.45974761199549580028E-07
   -0.14283810806619569726E-06
   -0.19327226157701144885E-06
   -0.11218165816888313147E-06
   -0.16907276641731361774E-06
   -0.16715140546662155588E-06
   -0.15766607108981857624E-06
   -0.19812382303163689331E-06
   -0.11453837727161677875E-06
   -0.10187299609950122546E-06
   -0.18426780055157341116E-06
   -0.17479694903733808623E-06
   -0.80312201762249501358E-07
   -0.85559173045719368561E-07
   -0.14157665999388631993E-07
   -0.40133382411793711794E-07
    0.85152017770796140095E+00
   -0.17353906343400293336E-07
   -0.30937245253100376114E-07
   -0.12042134421584895325E-07
   -0.70715327732062442184E-07
   -0.10946310116103696555E-06
    0.58712402286502845083E-08
   -0.60571951837860390036E-07
    0.52839250977379709069E-05
   -0.33327527887002331480E-07
    0.44058959591985646931E+00
   -0.61216178648863376321E-07
   -0.76442415060974395087E-07
    0.48715175443693302675E-06
    0.51255623964988528130E+00
   -0.10601669711685587298E-06
   -0.17867524042955004871E-06
    0.62769236660030557487E-06
    0.33300819669304815046E-07
    0.19619349601633456309E-05
   -0.62709474909721766138E-08
    0.14169046139120055029E-06
    0.12064233568270057995E+00
    0.36677673851140809816E-07
    0.62705150054919982922E-02
    0.29576950449367198563E-06
    0.14400997174176734250E-01
    0.98946237439672696939E-02
    0.51470031091171092666E-02
    0.20753784751574865658E-01
    0.12165079412705101514E-01
    0.17440819934592732832E-01
    0.33793457112715773183E-01
    0.22600446009219770510E-01
    0.14372026890410577460E+00
    0.20471784128767916283E-01
    0.10728799047664053928E-01
    0.76260489018382402251E-02
    0.80171132474683893957E-04
    0.26980756576071730085E-01
    0.26395252210183617336E+00
    0.19341995557471020062E+00
    0.35239797196081135144E+00
    0.35154858675572758786E+00
    0.30796635338730926623E+00
    0.55573597408097211159E-01
    0.51601078822101020815E+00
    0.45449692453493568955E-01
    0.38408060517121472843E+00
    0.30426492063746962691E+00
    0.31413863995721968969E+00
    0.42568635721809289230E+00
    0.49620571227088910993E+00
    0.10183572685649859568E+00
    0.13914712123380462705E+00
    0.50961598395440999010E+00
    0.54152090903492156038E-01
    0.41971724554494310722E+00
    0.13477182983448118825E+00
    0.73561848286042938461E-01
    0.23087766911588866736E+00
    0.12064665761252403586E+00
    0.56079611172682640452E-01
    0.30790851962564841360E-01
    0.99272413492338215657E-01
    0.33179360999001261678E-01
    0.21905187412689208770E+00
    0.13027296490884734959E+00
    0.14587991677969613935E+00
    0.23065823535302837355E+00
    0.65179699278946248708E-01
    0.99322369785102546103E-01
    0.11105309932633408940E-04
    0.21169011621191766159E+00
    0.76066578541281226755E+00
    0.59547159907717583938E+00
    0.12983135638376319676E+01
    0.12475590070906663609E+01
    0.15054140655733967424E+01
    0.46446639785329379979E+00
    0.10736735873294078747E+01
    0.51053109489835912793E+00
    0.18571692554217307247E+01
    0.14087785010949183118E+01
    0.31035606448273633795E+01
    0.26003518313307876220E+01
    0.67468290648272588594E+00
    0.50387092630242258373E+00
    0.32531734976878018406E+00
    0.14479099218361273227E+01
    0.22508262960281886222E+01
    0.28172003452321325856E+00
    0.67902212376137605749E-05
    0.30240268425676521957E+01
    0.78124574594535456384E+00