# vtk DataFile Version 3.0
LAPLACIEN  2D
ASCII
DATASET UNSTRUCTURED_GRID
 POINTS        1083  float
  0.25752000000000003       0.83521000000000001        0.0000000000000000     
  0.26692436000000003       0.82361669999999998        0.0000000000000000     
  0.12755760999999999       0.37286407999999999        0.0000000000000000     
  0.16947000000000001       0.36312000000000000        0.0000000000000000     
  0.20556749999999999       0.30943999999999999        0.0000000000000000     
  0.19808000000000001       0.30240000000000000        0.0000000000000000     
  0.17829000000000000       0.29613000000000000        0.0000000000000000     
  0.16072427000000000       0.27611573000000000        0.0000000000000000     
  0.20518000000000000       0.25756000000000001        0.0000000000000000     
  0.14513182999999999       0.15495659000000001        0.0000000000000000     
  0.18475000000000000       0.25733000000000000        0.0000000000000000     
  0.15320000000000000       0.28981000000000001        0.0000000000000000     
   8.4010000000000001E-002  0.28726000000000002        0.0000000000000000     
  0.12066000000000000       0.31644000000000000        0.0000000000000000     
  0.15419146000000000       0.34997146000000001        0.0000000000000000     
   9.1609999999999997E-002  0.41126000000000001        0.0000000000000000     
   8.2839999999999997E-002  0.24906000000000000        0.0000000000000000     
  0.10719500000000000       0.24906000000000000        0.0000000000000000     
  0.10394500000000000       0.24026000000000000        0.0000000000000000     
  0.10306999999999999       0.16439999999999999        0.0000000000000000     
  0.20605000000000001        7.9089999999999994E-002   0.0000000000000000     
  0.42243181000000002       0.83768843000000004        0.0000000000000000     
  0.40538000000000002       0.78705000000000003        0.0000000000000000     
  0.42062500000000003       0.70743999999999996        0.0000000000000000     
  0.39167000000000002       0.62682000000000004        0.0000000000000000     
  0.38775999999999999       0.57162500000000005        0.0000000000000000     
  0.39058282000000000       0.54871530000000002        0.0000000000000000     
  0.39464117999999998       0.46212064000000003        0.0000000000000000     
  0.39241130000000002       0.45290363000000000        0.0000000000000000     
  0.38384000000000001       0.55516500000000002        0.0000000000000000     
  0.38069999999999998       0.59557000000000004        0.0000000000000000     
  0.36735092000000003       0.72975095999999995        0.0000000000000000     
  0.37138180999999998       0.84873708999999997        0.0000000000000000     
  0.31856716000000002       0.83411802999999995        0.0000000000000000     
  0.65566999999999998       0.71865999999999997        0.0000000000000000     
  0.62348499999999996       0.71865999999999997        0.0000000000000000     
  0.63253999999999999       0.72650000000000003        0.0000000000000000     
  0.63397590999999998       0.79238797000000005        0.0000000000000000     
  0.61133999999999999       0.77437999999999996        0.0000000000000000     
  0.58667000000000002       0.75475999999999999        0.0000000000000000     
  0.51746738999999997       0.83310978000000002        0.0000000000000000     
  0.51022000000000001       0.76192000000000004        0.0000000000000000     
  0.49914890000000001       0.74624727000000002        0.0000000000000000     
  0.50311967000000002       0.80879526000000002        0.0000000000000000     
  0.50158999999999998       0.83067000000000002        0.0000000000000000     
  0.46398766000000002       0.86013877000000005        0.0000000000000000     
  0.41615999999999997       0.37445000000000001        0.0000000000000000     
  0.43026551000000002       0.31678289999999998        0.0000000000000000     
  0.39694000000000002       0.24930500000000000        0.0000000000000000     
  0.41994211999999997       0.11642168999999999        0.0000000000000000     
  0.43478000000000000       0.10487000000000000        0.0000000000000000     
  0.57060999999999995       0.13406000000000001        0.0000000000000000     
  0.69662999999999997       0.19536999999999999        0.0000000000000000     
  0.71886000000000005       0.24690999999999999        0.0000000000000000     
  0.74097999999999997       0.33731000000000000        0.0000000000000000     
  0.72538453999999997       0.37890159000000001        0.0000000000000000     
  0.73320112000000004       0.40760169000000002        0.0000000000000000     
  0.70620000000000005       0.41999999999999998        0.0000000000000000     
  0.74504999999999999       0.48705999999999999        0.0000000000000000     
  0.68996999999999997       0.48530000000000001        0.0000000000000000     
  0.66213999999999995       0.47589999999999999        0.0000000000000000     
  0.63373000000000002       0.47414000000000001        0.0000000000000000     
  0.68861000000000006       0.55347000000000002        0.0000000000000000     
  0.62687669000000001       0.62714972999999996        0.0000000000000000     
  0.51632500000000003       0.26038000000000000        0.0000000000000000     
  0.66345008000000005       0.20335998999999999        0.0000000000000000     
  0.68430000000000002       0.34078999999999998        0.0000000000000000     
  0.59737622999999995       0.42491739000000001        0.0000000000000000     
  0.55410000000000004       0.41776999999999997        0.0000000000000000     
  0.52314000000000005       0.40723999999999999        0.0000000000000000     
  0.46111999999999997       0.32850000000000001        0.0000000000000000     
  0.67330999999999996       0.19785000000000000        0.0000000000000000     
  0.69296999999999997       0.22594000000000000        0.0000000000000000     
  0.40191943000000002       0.86367486999999998        0.0000000000000000     
  0.12271248000000000       0.14762657000000001        0.0000000000000000     
  0.14852475000000001       0.12337326999999999        0.0000000000000000     
  0.74936000000000003       0.44945000000000002        0.0000000000000000     
  0.61883999999999995       0.82247000000000003        0.0000000000000000     
  0.26941311000000001       0.82690965999999999        0.0000000000000000     
  0.14224880000000001       0.37582204000000002        0.0000000000000000     
  0.16781681000000001       0.35746910999999998        0.0000000000000000     
  0.38384000000000001       0.56583499999999998        0.0000000000000000     
  0.17475499999999999       0.26156499999999999        0.0000000000000000     
  0.16588214000000001       0.27095785999999999        0.0000000000000000     
  0.19754658000000000       0.25190794000000000        0.0000000000000000     
  0.18240999999999999       0.26306000000000002        0.0000000000000000     
  0.38775999999999999       0.58301250000000004        0.0000000000000000     
   9.2598787000000002E-002  0.28369930999999998        0.0000000000000000     
  0.12988000000000000       0.31154999999999999        0.0000000000000000     
  0.15971573000000000       0.35549573000000001        0.0000000000000000     
  0.43006250000000001       0.70743999999999996        0.0000000000000000     
  0.40538000000000002       0.77361250000000004        0.0000000000000000     
  0.42100500000000002       0.81830000000000003        0.0000000000000000     
  0.41854986000000000       0.69665306000000005        0.0000000000000000     
  0.38971499999999998       0.61060999999999999        0.0000000000000000     
  0.38773564999999999       0.45901181000000002        0.0000000000000000     
  0.39590059000000000       0.45441031999999998        0.0000000000000000     
  0.38384000000000001       0.54735250000000002        0.0000000000000000     
  0.36502704000000002       0.72473217000000001        0.0000000000000000     
  0.32337357999999999       0.82795901000000005        0.0000000000000000     
  0.70706773000000001       0.36044921000000002        0.0000000000000000     
  0.74097999999999997       0.35293500000000000        0.0000000000000000     
  0.74097999999999997       0.31773499999999999        0.0000000000000000     
  0.71235000000000004       0.23181499999999999        0.0000000000000000     
  0.58099500000000004       0.12427000000000001        0.0000000000000000     
  0.50926802999999998       0.81618526000000002        0.0000000000000000     
  0.39694000000000002       0.25951249999999998        0.0000000000000000     
  0.43692275000000003       0.32087145000000000        0.0000000000000000     
  0.41615999999999997       0.32374500000000000        0.0000000000000000     
  0.43379000000000001       0.30536999999999997        0.0000000000000000     
  0.56120943999999995       0.14292195999999999        0.0000000000000000     
  0.56101000000000001       0.12778999999999999        0.0000000000000000     
  0.72713519000000004       0.36131693999999998        0.0000000000000000     
  0.74289499999999997       0.49852000000000002        0.0000000000000000     
  0.70664000000000005       0.43221999999999999        0.0000000000000000     
  0.53013999999999994       0.41189999999999999        0.0000000000000000     
  0.54561999999999999       0.41584500000000002        0.0000000000000000     
  0.71071649000000003       0.55600200000000000        0.0000000000000000     
  0.67979000000000001       0.56306999999999996        0.0000000000000000     
  0.62555094000000000       0.62995129000000005        0.0000000000000000     
  0.66964504000000002       0.20812000000000000        0.0000000000000000     
  0.58421811000000001       0.42326870000000000        0.0000000000000000     
  0.59798264000000001       0.43157266000000000        0.0000000000000000     
  0.54939000000000004       0.42473000000000000        0.0000000000000000     
  0.52732000000000001       0.40139999999999998        0.0000000000000000     
[...]
 CELL_DATA        1963
 SCALARS VEGF float
 LOOKUP_TABLE default
    0.13932807775963182945E-06
    0.13976343557265538634E-06
    0.12525227099337045100E-06
    0.12927180375614760358E-06
    0.13767476771389461006E-06
    0.39560322407766213890E-06
    0.15010286738790643903E-06
    0.17066175949880859283E-06
    0.14803953125338240219E-06
    0.19790593068453521808E-06
    0.16796521099433454733E-06
    0.17622962979126645659E-06
    0.14426243443167656270E-02
    0.14304868013678052465E-06
    0.11053479873905412543E-06
    0.11483379160273051745E-06
    0.96685368246588000044E-07
    0.11178699144836820935E-06
    0.11665398135255229561E-06
    0.99118705343489374129E-07
    0.13051049236543990445E-06
    0.14340031543977424348E-06
    0.17695008230788396864E-06
    0.19402772851584114720E-06
    0.12048644736766636820E-06
    0.16077039670393849348E-06
    0.16901885783585250643E-06
    0.14212310653421906967E-06
    0.13335409301735193056E-06
    0.18081577428703791616E-06
    0.17800606797588404003E-06
    0.62576911726303389646E-02
    0.17880307454701265327E-06
    0.19118222445087144521E-06
    0.18389962684927320931E-06
    0.18231568501739707569E-06
    0.19436857281020146076E-06
    0.18891763031548692963E-06
    0.16857183498708578428E-06
    0.16296890986033030156E-06
    0.15500068529889208753E-06
    0.17502372842822781523E-06
    0.18108803042846273871E-06
    0.18070491979879248842E-06
    0.19901610358179232542E-06
    0.17479566276212331110E-06
    0.11721414671560030743E-06
    0.19258186417151666091E-06
    0.28083072753859420857E-06
    0.21006429072186256149E-06
    0.25389310018850578074E-06
    0.30338425310234426790E-06
    0.24388390665446648363E-06
    0.16713324620152251610E-06
    0.44527390851519095986E-06
    0.26953321486598665041E-06
    0.41656536474143270958E-06
    0.39980596915209124435E-06
    0.38138004030729776032E-06
    0.35962898185900920665E-06
    0.23754507703225529452E-06
    0.33129589432365313218E-06
    0.21060715268714647541E-06
    0.24396748844216991276E-06
    0.15705924931285646999E-06
    0.17379435368945865141E-06
    0.22174791476094688499E-06
    0.35209574403814480814E-06
    0.67908634237823808264E-07
    0.64305410381735604811E-07
    0.55262669915546398631E-07
    0.56854510066386674962E-07
    0.60726589895929263936E-07
    0.90168823504049602779E-01
    0.11556191492023410876E-06
    0.82544902026902657285E-07
    0.87867203351247010897E-07
    0.10206170785267795884E-06
    0.11069498718731890644E-06
    0.65470467275127845318E-07
    0.12335672259695158632E-06
    0.75580120307574621360E-07
    0.11128465058365901858E-06
    0.76504633122252094512E-07
    0.55156578653972750980E-07
    0.56368274596244669918E-07
    0.55734621378130804616E-07
    0.56180081694841773210E-07
    0.55847808184403152156E-07
    0.54982966839906699410E-07
    0.77573959285625995407E-07
    0.84921097857711681240E-07
    0.58404795648426276726E-07
    0.57024307435666966248E-07
    0.76206942167195545709E-07
    0.55459826871197618438E-07
    0.94148805899643724236E-07
    0.60120732135483654539E-07
    0.58085691913765993542E-07
    0.68033235588954981660E-07
    0.14635178094930675780E-06
    0.12167857834897338379E-06
    0.19926264736361072250E-06
    0.16471040203586890680E-06
    0.17607543139902032890E-06
    0.16415817747514745969E-06
    0.21722730174653661426E-06
    0.16089641778482350332E-06
    0.30712724666070638521E-06
    0.28090942684460019032E-06
    0.31521216609560915871E-06
    0.28222902714723790837E-06
    0.32024442503497756245E-06
    0.21315893502983203611E-06
    0.31259211337272987081E-06
    0.24965233749820960838E-06
    0.20239829348062056396E-06
    0.29287817476413182731E-06
    0.15649268576528743134E-06
    0.15451806833722458465E-06
    0.83605227850075267360E-07
    0.78829246351053350588E-07
    0.12691503769511128550E-06
    0.11037388223348443504E-06
    0.23932779770152037858E-06
    0.25860677746775437657E-06
    0.11589170361715036037E-06
    0.12990594659660470636E-06
    0.13440338309054168325E-06
    0.65799703691050971279E-07
    0.26803945364111525177E-06
    0.18532315781996758269E-06
    0.27954032857784974030E-06
    0.80792287330169070627E-07
    0.29993149655432804666E-06
    0.12022215763048499378E-06
    0.28547015366647876932E-06
    0.68249010532325321263E-07
    0.39814794257974905460E-06
    0.28076965607868407254E-02
    0.67733524013405881305E-07
    0.30626291724007905892E-07
    0.93301111633407507494E-07
    0.58801855331953075101E-07
    0.53517614884524821726E-07
    0.30831783016541511924E-06
    0.25277373227191450160E-07
    0.56571328549671394372E-06
    0.31411529037771213182E-07
    0.23431399688738382505E-07
    0.22401467330880993139E-07
    0.37025892079170206314E-07
    0.23765516363941616083E-07
    0.34502407609362815408E-07
    0.85019458908939515569E-04
    0.28999368983821471162E-07
    0.92930633858257886381E-07
    0.81106342120317623789E-07
    0.12557451487344822070E-06
    0.13797664244641753501E-06
    0.82425887888916595760E-07
    0.12453575223643172219E-06
    0.53152532205623543720E-07
    0.31767383733570828098E-07
    0.55330513695435637008E-07
    0.64130701974979399106E-07
    0.33561442815177778994E-07
    0.38985361278062209681E-07
    0.28456463006387540497E-07
    0.48723309594807276124E-07
    0.66752644454894803789E-07
    0.10666798173437520604E-06
    0.21207163891084336548E-07
    0.14552581272691590172E-06
    0.21721932850089841897E-07
    0.53233419914509011451E-06
    0.21615665188299731023E-07
    0.20713041717099510689E-07
    0.23891606478682084982E-07
    0.21450230713433726738E-07
    0.42727905515368931610E-01
    0.45151386219176642411E+00
    0.28344494490515837634E-07
    0.28141066267745494866E-07
    0.11929199755507822675E-02
    0.22795529280301003027E-07
    0.11660196229677460920E-02
    0.25774993576042909354E-07
    0.33699566454998990984E-02
    0.29610004054916424648E-07
    0.22249424406383388392E-07
    0.21719574093723416540E-07
    0.23445748594017644098E-07
    0.23197646050476311279E-07
    0.24252561738306105277E-07
    0.22316211483119906262E-07
    0.84818041924398066720E-07
    0.26405634182276663623E-07
    0.18670127348052005362E-06
    0.32601561697385332325E-07
    0.25761656623169846420E-01
    0.19428143576404001135E-07
    0.30559605083922418596E-02
    0.15915775467374396493E-07
    0.24457113428431862846E-02
    0.22684869396349435932E-07
    0.19388850637107577640E-01
    0.20089815348481713064E-07
    0.20192900264516671651E-03
    0.12895120286114450882E-06
    0.43027264810690421146E-06
    0.20923350806394155903E-06
    0.46167143125566480537E-06
    0.42190035935836224069E-06
    0.21405900826978833216E-06
    0.34480868911492927919E-06
    0.33138447245951115482E-06
    0.29469907918122545795E-06
    0.54791434034500965620E-06
    0.37848726756805992833E-06
    0.32719175098046811433E-06
    0.41889295241539652680E-06
    0.27782156321849938907E-06
    0.39035819442329976172E-06
    0.18050974485060040272E-06
    0.35788178015348043520E-06
    0.25110117542697463704E-06
    0.30829769500605647513E-06
    0.15770548632509885298E-06
    0.16522809175497522427E-06
    0.29223235642335446551E-06
    0.27824074736967275167E-06
    0.31088755401493755280E-06
    0.30602111299067442936E-06
    0.20328108659198862682E-06
    0.20351667221870346680E-06
    0.25501329570340505774E-06
    0.27105348433828253330E-06
    0.28339332319894700474E-06
    0.33634507367057590566E-06
    0.35741733363162875687E-06
    0.19941949408622026372E-06
    0.41831989302754507337E-06
    0.39441766484302135015E-06
    0.15914712675721664013E-06
    0.13043448960537774510E-06
    0.32806435265867568809E-06
    0.27576663653422009326E-06
    0.11985415206161045472E-06
    0.24436285579146872999E-06
    0.84712686379454161929E-07
    0.66648810745508864392E-07
    0.22088113649104378122E-07
    0.55757686923431568222E-07
    0.53903634933493200005E-07
    0.15303153625737032684E-06
    0.57904908738342015451E-07
    0.14021238164288238068E-06
    0.40083116299099919637E-07
    0.54019708720416506392E-06
    0.21313801147936610915E-05
    0.27452441892521248482E-06
    0.95600544427774177166E-04
    0.83050534930016212961E-05
    0.23620514014186896082E-07
    0.31199522569145727205E-06
    0.44412712797829355472E-07
    0.12412153138535414465E+00
    0.13690990759452587759E-07
    0.12619574508129401557E-06
    0.20314231104127589145E+00
   -0.22299544486529602505E-06
    0.21804062104701041336E+00
    0.53074658899619883296E-07
    0.41118456171754172137E-07
    0.19353992113842498553E-06
    0.73221625766571513116E-01
    0.19072379442757127485E-06
    0.11539096986026551843E-06
    0.31572863596526188094E-04
    0.13373596250298364074E+00
    0.13993253642191171419E-06
    0.34956071611758300285E-02
    0.10678953544970252303E-06
    0.53294433939328962294E-07
    0.53629644077089894728E-07
    0.51052438280160573891E-01
    0.48767070194520227956E-07
    0.50396141586028630503E-07
    0.54906785487486424301E-07
    0.49879830969556374953E-07
    0.55639619105094529236E-07
    0.41211834072867960177E-07
    0.48867816638847295716E-07
    0.39649176225118331714E-07
    0.43590567697670413763E-07
    0.42281520770951826105E-07
    0.50841926591281211291E-07
    0.53881621051348626810E-07
    0.40754319847964962709E-07
    0.45080961670320191692E-07
    0.41141375980168422588E-07
    0.17357424501127755034E+00
    0.49555764300690636078E-07
    0.41745608985346071761E-07
    0.81216157372170527662E-01
    0.41965032240456972875E-07
    0.39519409062967879440E-07
    0.44904003465330791656E-07
    0.52094080336527184714E-07
    0.53433633652245378876E-07
    0.48983377247664790976E-07
    0.43678061784621123170E-07
    0.43077115886640402552E-07
    0.39711175775587309883E-07
    0.55274811909469518885E-07
    0.47229924006857786190E-07
    0.53218270993958061155E+00
    0.41771795011754947146E-07
    0.48439177138970248539E-07
    0.38314351869700863367E-07
    0.38835932953762813614E-07
    0.44878790699696324304E-07
    0.41864808730148154079E-07
    0.47702187471852689319E-07
    0.56517820430307440289E-07
    0.39724284451050004278E-07
    0.51814737750729738115E-07
    0.81421356524634002242E-07
    0.28355918805247057948E-07
    0.67290965754875467055E-07
    0.39075407405388292559E-07
    0.54367592051487046425E-07
    0.32841934994740686069E-07
    0.33454472085945145516E-07
    0.31607586918606557561E-07
    0.39232390539308394224E-07
    0.33025844656718551194E-07
    0.31669772517178238754E-07
    0.35428316668285330884E-07
    0.29455163842476644927E-07
    0.47158269867560096763E-07
    0.38822082438406374635E-07
    0.34853478520321693337E-07
    0.26804464420031692743E-07
    0.52189939587482818500E-07
    0.33285304683908272665E-07
    0.29823724505827999708E-07
    0.33746284962718001744E-07
    0.37877703042310061408E-07
    0.25921934596568253732E-07
    0.39007417029007758717E-07
    0.66489183508735951658E-07
    0.36242955020899999876E-07
    0.50140213305354619179E-07
    0.58100613103020545315E-07
    0.48140792861061229609E-07
    0.43643840413090284397E-07
    0.54313164465813497982E-07
    0.43788419501653435909E-07
    0.49283195648417920117E-07
    0.54501732518629248601E-07
    0.45947821876027534954E-07
    0.49658054918766232991E-07
    0.47007043095172975123E-07
    0.44055539441055213456E-07
    0.44346553099547123385E-07
    0.52373498237965927669E-07
    0.50685618363527091000E-07
    0.44362935953785952922E-07
    0.38607326031796168515E-07
    0.39470022121300427680E-07
    0.26004113900410229335E-07
    0.31757806725727284233E-07
    0.28087006393966525452E-07
    0.31310946482608194841E-06
    0.32103578562445717774E-07
    0.38690751470043611795E-07
    0.23085822345484657123E-07
    0.25595026006986907018E-07
    0.25349956727816201118E-07
    0.28733358727827573545E-07
    0.28299652313126944685E-07
    0.33560268268071121419E-07
    0.41499437980030682663E-07
    0.31510872943803076943E-06
    0.35565461088619120644E-07
    0.81292120999819725974E-02
    0.32127621422884014490E-07
    0.30856368652383829682E-07
    0.24530214170961666515E-07
    0.22167220013076104100E-07
    0.26914045125715074712E-07
    0.27988331429059280396E-07
    0.24921106357514874919E-07
    0.24012524507203056004E-07
    0.17821437565005669332E-07
    0.18385791829491873845E-07
    0.19671252184095923014E-07
    0.19871194432709459872E-07
    0.26972419206773070204E-07
    0.25173972748806952154E-07
    0.25995543805861203436E-07
    0.17605853277072704268E-07
    0.22876854535454544525E-07
    0.24133800057765653848E-07
    0.27899725275421755948E-07
    0.25152894451298803175E-07
    0.22074188030451135587E-07
    0.24604422675451976592E-07
    0.24933140991663939415E-07
    0.23976697512994525759E-07
    0.39519548902377154271E-07
    0.32027864263070589793E-07
    0.28621345152673089075E-07
    0.55426882202874005403E-07
    0.23424157918937672345E-07
    0.32714865888586575864E-07
    0.19179497653094512316E-07
    0.26126097875831122128E-06
    0.15102709339343292016E-07
    0.34613930695738376271E-07
    0.40768986145526290304E-07
    0.16924405182028576735E-06
    0.14228767658823359679E-06
    0.31760894769637318521E-03
    0.65169401542739804214E-06
    0.82120218353876541673E-07
    0.60336339677727983456E-05
    0.98268661138527797383E-07
    0.88793986690193925544E-03
    0.22606824910420669130E-06
    0.41443684895514003395E-03
    0.43076170769790195344E-03
    0.27546871586104205068E-05
    0.80352846440890694871E-05
    0.15606194349728730558E-03
    0.17141171677469853259E-06
    0.21275729224399970996E-02
    0.30204452555664167363E-03
    0.26877116950396170774E-03
   -0.22471037557090972454E-06
    0.14050848989265147196E-07
    0.17575787421792979576E-07
    0.53188315532310911395E-07
    0.36922675572991171582E-07
    0.63202226676109874347E-08
    0.70341919595149534987E-07
   -0.13095010909523763138E-07
   -0.21177879472527789083E-06
   -0.63725613223625901017E-06
   -0.56891893066086667074E-06
   -0.30085731526233273095E-06
   -0.18360928004093367762E-07
    0.51445072848022988028E-07
    0.22117800382969783859E-08
    0.15548558977409334350E-07
    0.64342310791921086946E-07
   -0.10878798937467825548E-06
    0.23628721605240480301E-07
    0.13315879432627736670E-01
    0.35358665785992414443E-01
    0.93698198506680600156E-02
    0.14124763602177530311E-01
    0.24603807055604319403E-07
    0.41679455593000873034E-02
    0.68200671180707189700E-01
    0.62686063225660853052E-02
    0.18502091814222426918E-02
    0.36303649744799529678E-02
    0.22357484619795623196E-02
    0.28149355985207353235E-02
    0.16545886400355380458E-02
    0.18984748160653517474E-01
    0.25715953284221502805E-05
    0.10026408565470634835E-02
   -0.28895672132110245025E-05
   -0.10535699438979600442E-05
   -0.91961834785274471321E-06
   -0.58753757057557488057E-06
   -0.95736850684430828981E-06
    0.37547819646294634691E-05
    0.11605092815230683441E-04
    0.50287692290797625285E-03
   -0.78398858653517746574E-06
   -0.36107567984411788040E-06
    0.53215463653059953838E-04
   -0.65253051483306954849E-06
    0.18960644628949975499E-06
    0.32087845749350083272E-04
    0.40973033720089705595E-03
   -0.52343109604032795450E-06
    0.97585787016666869498E-02
    0.99474374030560997265E-03
    0.16447249638208930112E-06
   -0.28149582932079063053E-06
    0.96223684870922234791E-07
    0.12438349943981155422E-06
    0.12930367752999489160E-06
    0.10442905323544067777E-06
    0.10707928376772139746E-06
    0.80406390730427239245E-07
    0.14591352019073924461E-06
    0.17673089794475783137E-06
    0.14433752645896004413E-06
    0.14104078034185939541E-06
    0.13593559739252025683E-06
    0.13058693026402550414E-06
    0.13919909381155239919E-06
    0.66107006166012005206E-07
    0.93660878454271513555E-07
    0.14522234373446669081E-06
    0.13338001427322603316E-06
    0.12564016908305254300E-06
    0.13106578652706623333E-06
    0.12315455837506277912E-06
    0.14333529083403329356E-06
    0.27567773466399503331E-06
    0.11036059139866066570E-06
    0.14311655846450602093E-06
    0.90134303412168500871E-07
    0.10058179183303190607E-06
    0.85604385418390068513E-07
    0.25983080710964844855E-06
    0.77766818346366342781E-07
    0.11031620218247105176E-06
    0.12075154225148045683E-06
    0.15539313807709386525E-05
    0.96987440414463784019E-07
    0.27371630744129520808E-06
    0.59021269265017742153E-07
   -0.25885802131418446279E-07
    0.85190728501000497574E-07
    0.68285328511729228683E-07
    0.83372699523940076011E-08
    0.13778502635116122619E-06
   -0.12800881343484977604E-06
   -0.17229834898659363314E-06
    0.81857038985694667908E-08
   -0.79919149794967632268E-07
    0.35337814756494490983E-07
    0.45718493811972798870E-07
   -0.39281294618818468883E-07
    0.36213756902634208263E-08
   -0.25226690631800197127E-06
    0.47158913141712947514E-07
    0.62375212601070966586E-07
    0.56083875843463726765E-07
    0.22592196676052159199E+00
    0.41326045838504834309E-07
    0.52954290553348808989E-07
    0.67600453367449998301E-07
    0.41108850989970775736E-07
    0.39464641922453023319E-07
    0.40825632641696179294E-07
    0.41978569935714907752E-07
    0.13143775923387174058E-06
    0.43005142095249820292E-07
    0.90824323604327239501E-01
    0.51813841396711496178E-07
    0.45161680614555564815E-07
    0.38055371431246751844E-06
    0.10122930430200582919E+00
    0.89453735053306714636E-07
   -0.51583993263648270872E-07
    0.31585026278123400858E-06
    0.15851106505357931387E-06
    0.28485999911231418066E-07
    0.34537378310355553480E-07
    0.23950609189828941225E-06
    0.10309144226824140320E-01
    0.14820873249452481506E-06
    0.95064028753128807761E-04
    0.11206864397642867601E-06
    0.44009593044918931485E-03
    0.21982890766307657242E-03
    0.63177341188986915993E-04
    0.73055711583472934638E-03
    0.33892795171474346090E-03
    0.53037038548849676101E-03
    0.18244717268174361329E-02
    0.94039052039344268007E-03
    0.17801795920349521019E-01
    0.80740660853726754775E-03
    0.22210642551929047554E-03
    0.13970289917033631749E-03
    0.10919799270116661994E-05
    0.12641334473161311511E-02
    0.36246902984902060196E-01
    0.22836928581760274765E-01
    0.55277040809805381982E-01
    0.58004415613754176095E-01
    0.47922595297833631145E-01
    0.41652943903589352212E-02
    0.12885789169142866650E+00
    0.29390170189155274960E-02
    0.77420494962329930444E-01
    0.51686704780735802378E-01
    0.57254142266446400589E-01
    0.81407469868386858614E-01
    0.11936754089637170717E+00
    0.88478994902672341433E-02
    0.17250586333676831002E-01
    0.12354637949161131893E+00
    0.36513926956201611315E-02
    0.72905080096643357090E-01
    0.14813086141200604642E-01
    0.59530228233126139190E-02
    0.33866639419632860175E-01
    0.13281623445897514438E-01
    0.37076241323781302349E-02
    0.12862692661393352201E-02
    0.77982449497323068702E-02
    0.12293275582077876126E-02
    0.32106231827562052572E-01
    0.13826048129002540057E-01
    0.13957669341776161864E-01
    0.33588675861460290384E-01
    0.37669341091118402169E-02
    0.87439513356833385715E-02
   -0.14966713466067582145E-06
    0.29619964795093135790E-01
    0.22645814517110618436E+00
    0.16022256975079021690E+00
    0.52965887646164999669E+00
    0.49627780914113400756E+00
    0.65591742650652240521E+00
    0.10290318060668139644E+00
    0.39261646991063242629E+00
    0.11410239247182242528E+00
    0.88801022902297122030E+00
    0.59026330302833251995E+00
    0.31762134131654393698E+01
    0.15487041166844395246E+01
    0.17327353195823311238E+00
    0.11558318023985393597E+00
    0.60039865114610235786E-01
    0.62316883988956073281E+00
    0.11607761894285855142E+01
    0.46671163217688903246E-01
   -0.29365248970656583570E-06
    0.23681102918114809164E+01
    0.24415227966567418227E+00