# vtk DataFile Version 3.0
LAPLACIEN  2D
ASCII
DATASET UNSTRUCTURED_GRID
 POINTS        1083  float
  0.25752000000000003       0.83521000000000001        0.0000000000000000     
  0.26692436000000003       0.82361669999999998        0.0000000000000000     
  0.12755760999999999       0.37286407999999999        0.0000000000000000     
  0.16947000000000001       0.36312000000000000        0.0000000000000000     
  0.20556749999999999       0.30943999999999999        0.0000000000000000     
  0.19808000000000001       0.30240000000000000        0.0000000000000000     
  0.17829000000000000       0.29613000000000000        0.0000000000000000     
  0.16072427000000000       0.27611573000000000        0.0000000000000000     
  0.20518000000000000       0.25756000000000001        0.0000000000000000     
  0.14513182999999999       0.15495659000000001        0.0000000000000000     
  0.18475000000000000       0.25733000000000000        0.0000000000000000     
  0.15320000000000000       0.28981000000000001        0.0000000000000000     
   8.4010000000000001E-002  0.28726000000000002        0.0000000000000000     
  0.12066000000000000       0.31644000000000000        0.0000000000000000     
  0.15419146000000000       0.34997146000000001        0.0000000000000000     
   9.1609999999999997E-002  0.41126000000000001        0.0000000000000000     
   8.2839999999999997E-002  0.24906000000000000        0.0000000000000000     
  0.10719500000000000       0.24906000000000000        0.0000000000000000     
  0.10394500000000000       0.24026000000000000        0.0000000000000000     
  0.10306999999999999       0.16439999999999999        0.0000000000000000     
  0.20605000000000001        7.9089999999999994E-002   0.0000000000000000     
  0.42243181000000002       0.83768843000000004        0.0000000000000000     
  0.40538000000000002       0.78705000000000003        0.0000000000000000     
  0.42062500000000003       0.70743999999999996        0.0000000000000000     
  0.39167000000000002       0.62682000000000004        0.0000000000000000     
  0.38775999999999999       0.57162500000000005        0.0000000000000000     
  0.39058282000000000       0.54871530000000002        0.0000000000000000     
  0.39464117999999998       0.46212064000000003        0.0000000000000000     
  0.39241130000000002       0.45290363000000000        0.0000000000000000     
  0.38384000000000001       0.55516500000000002        0.0000000000000000     
  0.38069999999999998       0.59557000000000004        0.0000000000000000     
  0.36735092000000003       0.72975095999999995        0.0000000000000000     
  0.37138180999999998       0.84873708999999997        0.0000000000000000     
  0.31856716000000002       0.83411802999999995        0.0000000000000000     
  0.65566999999999998       0.71865999999999997        0.0000000000000000     
  0.62348499999999996       0.71865999999999997        0.0000000000000000     
  0.63253999999999999       0.72650000000000003        0.0000000000000000     
  0.63397590999999998       0.79238797000000005        0.0000000000000000     
  0.61133999999999999       0.77437999999999996        0.0000000000000000     
  0.58667000000000002       0.75475999999999999        0.0000000000000000     
  0.51746738999999997       0.83310978000000002        0.0000000000000000     
  0.51022000000000001       0.76192000000000004        0.0000000000000000     
  0.49914890000000001       0.74624727000000002        0.0000000000000000     
  0.50311967000000002       0.80879526000000002        0.0000000000000000     
  0.50158999999999998       0.83067000000000002        0.0000000000000000     
  0.46398766000000002       0.86013877000000005        0.0000000000000000     
  0.41615999999999997       0.37445000000000001        0.0000000000000000     
  0.43026551000000002       0.31678289999999998        0.0000000000000000     
  0.39694000000000002       0.24930500000000000        0.0000000000000000     
  0.41994211999999997       0.11642168999999999        0.0000000000000000     
  0.43478000000000000       0.10487000000000000        0.0000000000000000     
  0.57060999999999995       0.13406000000000001        0.0000000000000000     
  0.69662999999999997       0.19536999999999999        0.0000000000000000     
  0.71886000000000005       0.24690999999999999        0.0000000000000000     
  0.74097999999999997       0.33731000000000000        0.0000000000000000     
  0.72538453999999997       0.37890159000000001        0.0000000000000000     
  0.73320112000000004       0.40760169000000002        0.0000000000000000     
  0.70620000000000005       0.41999999999999998        0.0000000000000000     
  0.74504999999999999       0.48705999999999999        0.0000000000000000     
  0.68996999999999997       0.48530000000000001        0.0000000000000000     
  0.66213999999999995       0.47589999999999999        0.0000000000000000     
  0.63373000000000002       0.47414000000000001        0.0000000000000000     
  0.68861000000000006       0.55347000000000002        0.0000000000000000     
  0.62687669000000001       0.62714972999999996        0.0000000000000000     
  0.51632500000000003       0.26038000000000000        0.0000000000000000     
  0.66345008000000005       0.20335998999999999        0.0000000000000000     
  0.68430000000000002       0.34078999999999998        0.0000000000000000     
  0.59737622999999995       0.42491739000000001        0.0000000000000000     
  0.55410000000000004       0.41776999999999997        0.0000000000000000     
  0.52314000000000005       0.40723999999999999        0.0000000000000000     
  0.46111999999999997       0.32850000000000001        0.0000000000000000     
  0.67330999999999996       0.19785000000000000        0.0000000000000000     
  0.69296999999999997       0.22594000000000000        0.0000000000000000     
  0.40191943000000002       0.86367486999999998        0.0000000000000000     
  0.12271248000000000       0.14762657000000001        0.0000000000000000     
  0.14852475000000001       0.12337326999999999        0.0000000000000000     
  0.74936000000000003       0.44945000000000002        0.0000000000000000     
  0.61883999999999995       0.82247000000000003        0.0000000000000000     
  0.26941311000000001       0.82690965999999999        0.0000000000000000     
  0.14224880000000001       0.37582204000000002        0.0000000000000000     
  0.16781681000000001       0.35746910999999998        0.0000000000000000     
  0.38384000000000001       0.56583499999999998        0.0000000000000000     
  0.17475499999999999       0.26156499999999999        0.0000000000000000     
  0.16588214000000001       0.27095785999999999        0.0000000000000000     
  0.19754658000000000       0.25190794000000000        0.0000000000000000     
  0.18240999999999999       0.26306000000000002        0.0000000000000000     
  0.38775999999999999       0.58301250000000004        0.0000000000000000     
   9.2598787000000002E-002  0.28369930999999998        0.0000000000000000     
  0.12988000000000000       0.31154999999999999        0.0000000000000000     
  0.15971573000000000       0.35549573000000001        0.0000000000000000     
  0.43006250000000001       0.70743999999999996        0.0000000000000000     
  0.40538000000000002       0.77361250000000004        0.0000000000000000     
  0.42100500000000002       0.81830000000000003        0.0000000000000000     
  0.41854986000000000       0.69665306000000005        0.0000000000000000     
  0.38971499999999998       0.61060999999999999        0.0000000000000000     
  0.38773564999999999       0.45901181000000002        0.0000000000000000     
  0.39590059000000000       0.45441031999999998        0.0000000000000000     
  0.38384000000000001       0.54735250000000002        0.0000000000000000     
  0.36502704000000002       0.72473217000000001        0.0000000000000000     
  0.32337357999999999       0.82795901000000005        0.0000000000000000     
  0.70706773000000001       0.36044921000000002        0.0000000000000000     
  0.74097999999999997       0.35293500000000000        0.0000000000000000     
  0.74097999999999997       0.31773499999999999        0.0000000000000000     
  0.71235000000000004       0.23181499999999999        0.0000000000000000     
  0.58099500000000004       0.12427000000000001        0.0000000000000000     
  0.50926802999999998       0.81618526000000002        0.0000000000000000     
  0.39694000000000002       0.25951249999999998        0.0000000000000000     
  0.43692275000000003       0.32087145000000000        0.0000000000000000     
  0.41615999999999997       0.32374500000000000        0.0000000000000000     
  0.43379000000000001       0.30536999999999997        0.0000000000000000     
  0.56120943999999995       0.14292195999999999        0.0000000000000000     
  0.56101000000000001       0.12778999999999999        0.0000000000000000     
  0.72713519000000004       0.36131693999999998        0.0000000000000000     
  0.74289499999999997       0.49852000000000002        0.0000000000000000     
  0.70664000000000005       0.43221999999999999        0.0000000000000000     
  0.53013999999999994       0.41189999999999999        0.0000000000000000     
  0.54561999999999999       0.41584500000000002        0.0000000000000000     
  0.71071649000000003       0.55600200000000000        0.0000000000000000     
  0.67979000000000001       0.56306999999999996        0.0000000000000000     
  0.62555094000000000       0.62995129000000005        0.0000000000000000     
  0.66964504000000002       0.20812000000000000        0.0000000000000000     
  0.58421811000000001       0.42326870000000000        0.0000000000000000     
  0.59798264000000001       0.43157266000000000        0.0000000000000000     
  0.54939000000000004       0.42473000000000000        0.0000000000000000     
  0.52732000000000001       0.40139999999999998        0.0000000000000000     
[...]
 CELL_DATA        1963
 SCALARS VEGF float
 LOOKUP_TABLE default
   -0.67903721387814409615E-07
   -0.74567674096108068985E-07
   -0.57806993995332399290E-07
   -0.65956084238989709572E-07
   -0.74008293328407657865E-07
    0.11552651535390565202E-05
   -0.68958967034145686488E-07
   -0.24291031746601880793E-07
   -0.49347033440626697015E-07
    0.32900156875659253111E-08
   -0.29692804784779556355E-07
   -0.97140184497705535869E-07
    0.32904915370950520159E-01
   -0.61900492211300471496E-07
   -0.38516156077131742338E-07
   -0.42505014766456099531E-07
   -0.21693572431443621505E-07
   -0.25689470927724578347E-07
   -0.39706114670438907641E-07
   -0.25095820579873283779E-07
   -0.50104992857948378048E-07
   -0.48495684224944413755E-07
    0.31112190888448075895E-07
    0.26243546954878327728E-07
   -0.17920984988921550849E-07
    0.16442533463181033052E-08
   -0.31304133792713663668E-07
   -0.28137630974346163001E-07
   -0.63287310805597500760E-07
    0.85893992006965984553E-07
   -0.97753895514863622807E-07
    0.81996663700246191775E-01
   -0.56469081523964579192E-07
   -0.12473000042402411688E-06
   -0.60059154477948560920E-08
   -0.10178660381400955397E-06
   -0.15160859266351631771E-06
   -0.15872391798818839626E-06
   -0.13060806605713303584E-06
   -0.15196995984718627388E-06
   -0.70210536843772456219E-07
    0.13943884046239394658E-07
   -0.29680443271870301288E-08
   -0.13208725071682830368E-06
    0.74922894854490941242E-07
   -0.12114077221135174643E-06
   -0.12380582951371656757E-06
    0.24751993270300505348E-07
    0.14062488352634484672E-06
    0.46774832956308753484E-07
    0.17235377645242532836E-06
    0.25562840150957257581E-06
    0.96125962660700235158E-07
   -0.39571729947074097754E-07
    0.51459466730067387231E-06
    0.16783671387450869809E-06
    0.64193326022392607536E-06
    0.37195935741831060945E-06
    0.14861487738456826172E-05
    0.55875772909020067352E-06
    0.11861204363608745253E-06
    0.22899032557273533189E-06
    0.66638652735416954368E-07
    0.27110964128391730951E-06
   -0.12106581549381573241E-06
   -0.53505700714386012570E-07
    0.69170897138256780550E-05
    0.73803293617675587879E-06
   -0.31758392585855921218E-07
   -0.46812643430081077293E-07
   -0.11275648527608007230E-06
   -0.94357453318185668049E-07
   -0.60697649181104103772E-07
    0.48498867352274366294E+00
    0.72274896107648765713E-07
   -0.11674792710274002173E-07
    0.41108581833861640996E-07
    0.76544528751563132481E-07
    0.46655576892671954820E-06
   -0.32401067079117051169E-07
    0.42560908149859875686E-06
   -0.16746186169941463890E-07
    0.19363653187056948630E-07
    0.34883667007050443793E-07
   -0.10803215939201310005E-06
   -0.95113027954451221895E-07
   -0.14620600348040123771E-06
   -0.13456490264240286603E-06
   -0.85713426092208924574E-07
   -0.12007030860766235758E-06
    0.24625953470559669586E-06
    0.21100717572601806904E-06
    0.12441320203675517688E-06
   -0.44447991138871753957E-08
    0.43067611789253427227E-06
   -0.62106512833965907112E-07
    0.95322009927405962455E-06
   -0.62268709186802515186E-08
   -0.68976135129038079541E-07
    0.41568458958630662165E-06
    0.15184703065600779998E-06
    0.20466043767407752262E-08
    0.29289922861517005358E-06
    0.70301502222993437208E-07
    0.10527528321375921409E-05
    0.63377245855756940273E-06
    0.71628395458445882372E-06
    0.25142821322975943225E-06
    0.25292597077550046445E-05
    0.67492455647658840254E-06
    0.65016737839760490052E-05
    0.29299938910891115453E-05
    0.38133135896862970510E-05
    0.18849586135877945535E-05
    0.82096216529196358597E-05
    0.20386709990863050352E-05
    0.18652472484776262877E-06
    0.45386921997526349655E-05
    0.18992061199861494544E-05
    0.13341354205880725453E-05
    0.29565863450280127658E-05
    0.18688850603764574687E-05
    0.20013784701204883727E-05
    0.11760066202486182798E-05
    0.13855995700534181383E-04
    0.42949649393392819481E-05
    0.76778630054888110198E-05
    0.30359988866615426946E-05
    0.19692871606608272649E-04
    0.40037003808895645822E-05
    0.12396493875272334367E-04
    0.30371806028366746369E-05
    0.57605435719326289370E-05
    0.12114265437472115076E-04
    0.13993157916265692569E-04
    0.87608827148650267079E-06
    0.10440026362761434457E-05
    0.13154195394996928774E-05
    0.64640665887240103086E-06
    0.50804381260373961127E-01
   -0.10277016919643139140E-06
   -0.45677166043811461629E-07
   -0.11191889904508706290E-06
   -0.10632826449880620388E-06
   -0.51912429032078788440E-07
    0.15600722044961805390E-05
   -0.11084173178696526612E-07
    0.16934867940678072336E-05
   -0.38370440467932419799E-07
    0.40029580794328003175E-08
   -0.80278465390725990500E-08
   -0.52542565387061485531E-07
    0.47893842624135513673E-07
   -0.55212705444073785986E-07
    0.58829219563289823075E-02
   -0.25632716025171722223E-07
   -0.61836565056021458876E-07
   -0.75914376973473355136E-07
   -0.99905473210295098720E-08
   -0.11960430731335355764E-06
    0.11846998833969809428E-07
   -0.92961685904895360427E-07
    0.86483520465864353577E-08
   -0.45309120311459087777E-08
    0.19028062413590232787E-06
    0.23114955364301645427E-07
    0.71497308506678393870E-07
    0.18440819296874395942E-06
    0.36828567075133797116E-07
   -0.17533556750211536747E-07
   -0.73943711869159235319E-07
    0.42476072993393397210E-07
    0.27809604159482819307E-07
   -0.27491017792509396660E-07
    0.12640457870200899243E-07
    0.10027059588512530363E-05
   -0.11023000935311558626E-08
    0.25173880896199317884E-07
    0.84407269862990137185E-08
    0.19734274516009746286E-07
    0.60784234281417703905E+00
    0.22068278711171247508E+01
   -0.13970398976975867869E-07
   -0.11446256651046856930E-07
    0.10251609091386031103E+00
   -0.65974835092238038764E-08
    0.97817773720383735525E-01
   -0.60330713118523497749E-08
    0.93788038747626117919E-01
   -0.12952854734814190931E-07
    0.58932564685865714316E-07
    0.17229377871315488629E-07
    0.13306072240220070443E-06
    0.56467352345537063784E-07
    0.20427585227137303079E-08
    0.14387523636981947377E-06
   -0.10071739651616151785E-06
   -0.40161856996065753626E-08
   -0.11982826599007157425E-06
    0.36507581197095713197E-07
    0.47616918462672358503E+00
    0.22066925170215242127E-05
    0.15938550452127497881E+00
    0.51684761598510094881E-07
    0.14431706094835416998E+00
    0.47905616370936701904E-06
    0.34147026173444805508E+00
    0.24935094544270550829E-07
    0.10545291345193103308E-01
   -0.70077627931761703386E-07
    0.12039581585221717551E-05
    0.12249982928738796257E-06
    0.17029816572812546387E-05
    0.10538164325007236030E-05
    0.20047782368559288474E-06
    0.34362045316824891177E-06
    0.81604115949772208117E-06
    0.42510278175348466115E-06
    0.10565174442736368849E-05
    0.21253574050793449421E-05
    0.26298451269388845735E-05
    0.30056797022559044652E-05
    0.86654436500839047767E-06
    0.26582759250421659809E-05
    0.23680347838695481903E-06
    0.45075902923770319266E-05
    0.20053383411340808999E-04
    0.65076097760481377874E-05
    0.25249194670041715476E-04
    0.38093221159782120558E-04
    0.97851015197269090938E-05
    0.15665395738770448010E-04
    0.80639230066350754591E-05
    0.97141077423738204265E-05
    0.25933251446851384798E-04
    0.28106901991050729978E-04
    0.10722721722657613166E-03
    0.14086970913717778071E-04
    0.12425701865683784058E-04
    0.66688337999462720659E-05
    0.49256151991445568450E-05
    0.94774884432016228124E-04
    0.28117178601128473410E-05
    0.24860434887234408799E-05
    0.59366835877272096759E-06
    0.17218015668934226013E-06
    0.50426083734775025374E-05
    0.26449525203953680993E-05
    0.30986287882808466887E-06
    0.20822736319529477599E-05
    0.78387701165786207371E-06
    0.25604474882253958656E-06
    0.59628671715747242813E-06
   -0.12385756040261693002E-06
   -0.13817990676758370560E-06
    0.77426460439435019958E-05
   -0.82980226528786011354E-07
    0.90580673798280084561E-06
    0.32311006779283104272E-04
    0.22022150899059957769E-03
    0.52305008969848318032E-03
    0.69509555026986469316E-05
    0.53323396691851735960E-02
    0.11936872956161538682E-02
   -0.92874100961980337996E-09
    0.95390902262353080630E-05
   -0.56753617306657187899E-07
    0.10023356791950155387E+01
    0.39545925903608628445E-06
   -0.62259676979061990007E-07
    0.99903403763791809311E+00
    0.52738721963458341958E-05
    0.11373755359720210123E+01
   -0.10389245745418833231E-07
    0.10578831480362422500E-08
    0.47113108271448231681E-04
    0.80825821048619439502E+00
    0.51912335171131226106E-06
    0.11702112594177480292E-06
    0.27742070566697755313E-02
    0.71164256278712201276E+00
   -0.14019431265807110479E-06
    0.56830409514617319378E-01
    0.36131613925788451521E-04
   -0.12655803474352883479E-06
   -0.12333852426716161368E-06
    0.35440496407104260523E+00
   -0.68621042333307606679E-07
   -0.79710268282092686111E-07
   -0.15038477683110958914E-06
    0.11712089727955197850E-06
    0.49219123958845447126E-07
    0.82151504987928031247E-07
   -0.33289611113190720758E-07
    0.11585565969569731184E-06
   -0.12571720256355878155E-07
    0.10639408297863649530E-06
   -0.17110276746197686034E-07
   -0.85980992565391320755E-07
    0.87000853533148568807E-08
    0.92847873885753984298E-08
   -0.14653846501161359032E-07
    0.11107256808530381331E+01
    0.11378147821246440262E-08
    0.29695782157723794896E-07
    0.11844707477793754435E+01
    0.17247352314811589015E-06
    0.44482234003743568012E-06
    0.29954065812815677196E-06
    0.14596131773941791853E-06
    0.75334266556727449560E-08
    0.32633841746932497915E-07
    0.12264106996384508484E-05
    0.36097567241099644376E-07
    0.17127846828280493561E-06
    0.10678455975358339515E-08
    0.28836548531795341840E-06
    0.21740274589316461729E+01
    0.14813249898788727284E-05
    0.71387762750758788697E-06
    0.11251391224283247290E-05
    0.68699548826551135973E-06
    0.25282919901488664200E-05
    0.27051497688969625274E-06
    0.13285806043774444688E-04
    0.26983255403933231010E-05
    0.85300488569238247950E-05
    0.21878850686397537882E-04
    0.58565531679822746482E-04
    0.68704721881606838717E-05
    0.28938740636488360268E-04
    0.57383783726829024012E-05
    0.92216779975247528591E-06
    0.39992505936655830395E-05
    0.98942224153252718333E-06
    0.16051140975987628161E-05
    0.20983724774140814805E-05
    0.11412454455711669945E-05
    0.21731150969558048073E-05
    0.67097184224273554567E-06
    0.99049944622504376343E-05
    0.75383393498317893290E-06
    0.23063429257135782613E-05
    0.48552923990580928835E-05
    0.11098150752183530833E-04
    0.31021783508361900247E-06
    0.46239380117919823995E-05
    0.39393024199084751392E-05
    0.21099063221338280000E-05
    0.48693197183145557090E-06
    0.19051532656092699629E-04
    0.18230383639673684187E-06
    0.87658654308460185882E-05
    0.36293040673818955605E-05
   -0.25042935882513672236E-07
   -0.32709557075003372006E-07
   -0.52544960482896122432E-07
   -0.16737787170592020986E-07
   -0.98694764074012545851E-09
   -0.60714297739023305025E-07
    0.34325775689241742646E-06
    0.11686989894798119657E-06
    0.36009014664813139072E-06
    0.21339127024217914208E-06
    0.56219803472292732785E-06
    0.40781366284884897885E-07
    0.81195413359127672082E-06
    0.10470946245333570918E-06
    0.18112412195249084212E-06
    0.18738392962698936450E-06
   -0.31444967691516236414E-07
   -0.21870957494260573357E-07
   -0.10968925958367498553E-07
   -0.26618972207621039385E-07
    0.18450679016341324731E-07
    0.12501977443059834752E-04
    0.15909952658419673414E-06
    0.39200301349123700975E-06
    0.28468583048907379069E-07
    0.48770616006083467173E-07
    0.14375361001038882545E-06
   -0.30663316673490477400E-07
    0.34720030464133091966E-06
    0.49269069601144948673E-07
   -0.41393632975938519124E-07
    0.11869743038956236345E-04
    0.69044338699746179783E-06
    0.26380219756000600206E+00
    0.18031030275702564760E-05
    0.57284962371553501691E-05
    0.11845913956970112093E-05
    0.21555595409560659258E-05
    0.29061478263800078472E-05
    0.63241267520275279303E-06
    0.43225782233635399874E-05
    0.75012447834496675511E-05
    0.50209626513842471962E-05
    0.65450371618716143002E-05
    0.19275196823007583201E-05
    0.32321574393509359473E-05
    0.21101985353361855290E-04
    0.12097140054138489469E-04
    0.89365617842569927459E-05
    0.40582041102277750368E-05
    0.14386262633107155163E-06
    0.26092440219634273029E-06
    0.38613978877283369552E-07
    0.27884768405488975505E-07
    0.37367764431236227065E-06
    0.98031324574575280769E-08
    0.25907410982901118905E-06
    0.22028138428019590719E-06
   -0.81623945540348345986E-08
    0.82260502172822598504E-07
    0.37221732713362137848E-06
   -0.12316663168786319867E-08
    0.36612415567899207582E-06
    0.12523882158933406521E-07
    0.81048869191815032629E-06
    0.15978410379213513123E-04
    0.11553157161247209651E-04
    0.26021900462396827340E-05
    0.15713304249139599108E-05
    0.42389883963714051345E-06
    0.98805549100724186264E-04
    0.22762057110963161005E-01
    0.25257493940347177080E-03
    0.27971021239372196454E-04
    0.11680820823856358313E-02
    0.88601824729662818914E-04
    0.26092554168242593909E-01
    0.12841922050614129180E-03
    0.16018094663923339999E-01
    0.16497874236048454266E-01
    0.87648584395673726725E-03
    0.15355915586512452684E-02
    0.85532409968360704339E-02
    0.49647115079622236231E-03
    0.44293216307330178505E-01
    0.13765239586379315190E-01
    0.11209837274936429799E-01
    0.18711611330127531929E-03
    0.11838303990940715303E-05
    0.86150573737556772260E-06
    0.54767983460816888654E-07
    0.14689383467686204130E-06
    0.19772278101799612296E-05
   -0.23258989672871548104E-07
    0.11486264747446972253E-04
    0.97874352602889409911E-04
    0.28485675616438200982E-04
    0.16048137691779032466E-04
    0.70760883915514733231E-05
    0.58644767453247110921E-05
    0.12275352498763548621E-05
    0.28430381950334991899E-05
    0.17919329232232402394E-05
    0.10098043479010537925E-05
    0.38706090281863815127E-03
    0.64917327456508860782E-06
    0.12871129448429052822E+00
    0.26788014288123401796E+00
    0.10790421065948477275E+00
    0.14247090867749370724E+00
    0.11815832604714439437E-06
    0.66257448915066824435E-01
    0.43833066946781662487E+00
    0.86369193614229136657E-01
    0.38734978915685183698E-01
    0.60543361098683856625E-01
    0.43876363439958154800E-01
    0.51533939416854898652E-01
    0.36407878381707330095E-01
    0.17508191052895200057E+00
    0.61016088371408443939E-03
    0.28223100610914274994E-01
    0.13113578489121327291E-03
    0.22890530585010045910E-03
    0.31140938128709735367E-04
    0.26078533906488447715E-04
    0.15190998966566120155E-03
    0.10323452377631336680E-02
    0.18971277274907310390E-02
    0.17320440952976499244E-01
    0.61996227315323838868E-04
    0.38553084237947767227E-03
    0.47039763327898888659E-02
    0.23497283459179943736E-03
    0.44010221073757772002E-03
    0.34341239992896409154E-02
    0.15427155148690498837E-01
    0.18005726266268971527E-04
    0.11277214819203917884E+00
    0.23111561358416059936E-01
    0.83493920717153107956E-04
    0.72226561643110805979E-05
   -0.38716237041206095028E-07
   -0.16109194800047895159E-07
   -0.54214396511779522359E-07
   -0.52422715324179173432E-07
    0.24055735719857457199E-07
   -0.20184079997708246124E-07
    0.70247685230757811453E-07
    0.56828911484965528588E-06
    0.17900701118127002336E-06
   -0.45032677693504311264E-07
   -0.39441424850922951125E-07
   -0.84469420802770521029E-08
    0.20042314766817354751E-06
    0.79282174225416329442E-07
    0.14861489945359211407E-06
    0.40613876037394124750E-07
   -0.68526035446614501818E-07
   -0.65867893894518263023E-07
   -0.73987057298740706301E-07
   -0.51399411660865737561E-07
   -0.25633386938349669361E-07
    0.12758483175312704621E-04
   -0.21941591894924065214E-07
   -0.29830986207659808088E-07
   -0.25690015699584868286E-07
   -0.26590178396066311987E-07
   -0.35347510327675611418E-07
    0.22680305696985792537E-03
   -0.35887159529151292579E-07
   -0.38770840874605211877E-07
    0.12142934894306839142E-07
    0.80977079966168389637E-03
    0.11390865505598793515E-06
    0.69474194066359964405E-05
    0.19045237747402309753E-05
    0.20937358499565275034E-05
    0.74654051492185501866E-07
    0.77432386281493738140E-06
    0.11934432693245906731E-05
    0.42298312881434368027E-06
    0.31502519472138504121E-05
    0.40748149904402833780E-05
    0.51491734259500872376E-06
    0.19382491340514145462E-05
   -0.19868133259378312320E-07
    0.25506762161191800821E-06
    0.13340299189674837409E-05
    0.10006965034848458158E-05
    0.59326233609694196727E-05
    0.11238140447391486981E-06
   -0.66289981536495015793E-07
   -0.52381161210930347509E-07
    0.12766169363581252316E+01
   -0.80330530085439706032E-07
   -0.73517527135978846168E-07
   -0.55837420971740225552E-07
   -0.95339163629420296583E-07
    0.10290879860743195033E-07
   -0.66738843686195987832E-07
   -0.91730326777803640371E-07
    0.66037749054667432228E-04
   -0.86284867644259468835E-07
    0.77772879270346040315E+00
   -0.95156163525281434778E-08
   -0.40650600587439036993E-07
    0.47788684283508922179E-05
    0.92710572255407119879E+00
    0.45058921451202201427E-06
    0.25432439542197504670E-05
    0.72129787434233791344E-05
   -0.65848932879753381071E-07
    0.23047089388136203747E-04
    0.14670368904567532863E-05
    0.10412292559835122007E-05
    0.30179161439072837991E+00
    0.15246833400599273139E-07
    0.32790993494946581166E-01
    0.42394031659410425503E-05
    0.57189974679870352048E-01
    0.44556870459884614921E-01
    0.28893657887500055759E-01
    0.76792195388981202009E-01
    0.50475463322458058446E-01
    0.67697960218568470347E-01
    0.10450845998110179502E+00
    0.78398206716375790082E-01
    0.31405795542602349402E+00
    0.73357070851283553981E-01
    0.48226992346241823184E-01
    0.37163793776460243845E-01
    0.50184920884226299435E-03
    0.90130719585876956090E-01
    0.55130118516785553417E+00
    0.42956281260401807387E+00
    0.69564825421516540693E+00
    0.68742987926050758141E+00
    0.61714113762133060437E+00
    0.15505701830019763543E+00
    0.85172759200805492341E+00
    0.13237989275375622311E+00
    0.70621835231344298744E+00
    0.59040419640058128259E+00
    0.58971325746576086502E+00
    0.79258593669052790354E+00
    0.82676088886063836547E+00
    0.25782312054255884792E+00
    0.30941009460395696440E+00
    0.87568316722037697897E+00
    0.15023031627561364565E+00
    0.79822162640841931580E+00
    0.30441616969927415282E+00
    0.18937761583140261257E+00
    0.45988195212709398474E+00
    0.27486418347547592056E+00
    0.15792639414409020970E+00
    0.10451996089915181753E+00
    0.26161874780707589094E+00
    0.11583741820389295563E+00
    0.44977373692838962249E+00
    0.30467093915682624816E+00
    0.35591793694170914542E+00
    0.47931513937910485978E+00
    0.19261040686519423359E+00
    0.24538547303338373307E+00
    0.10228177894223863765E-03
    0.43108812423969528060E+00
    0.11854643346811768456E+01
    0.95623196315755487618E+00
    0.17527016843623450804E+01
    0.17388082347953108808E+01
    0.20783182293098954041E+01
    0.79367578489301315869E+00
    0.15808108235112112716E+01
    0.88116305118060067603E+00
    0.25673198283352740567E+01
    0.19994146645614208069E+01
    0.30529410267673582347E+01
    0.30021750011472949637E+01
    0.10996627811920292039E+01
    0.85665763951208118154E+00
    0.60362944772251025949E+00
    0.19339295364371857922E+01
    0.28346369249601979234E+01
    0.53583420499606937426E+00
    0.70064458006837315902E-04
    0.31385339725054337556E+01
    0.12319617029267708741E+01