# vtk DataFile Version 3.0
LAPLACIEN  2D
ASCII
DATASET UNSTRUCTURED_GRID
 POINTS        1616  float
  0.45880792999999997       0.87913892999999999        0.0000000000000000     
  0.40372658000000000       0.18243693000000000        0.0000000000000000     
  0.52563972999999997       0.19039755999999999        0.0000000000000000     
  0.45642953000000003       0.24226190000000000        0.0000000000000000     
  0.51984098000000001       0.24548566999999999        0.0000000000000000     
  0.21212766999999999       0.18957676000000001        0.0000000000000000     
  0.28573643999999998       0.48586826999999999        0.0000000000000000     
  0.49667887999999999       0.82979849000000006        0.0000000000000000     
  0.22848407000000001       0.23366793000000000        0.0000000000000000     
  0.27860389000000002       0.86069733000000004        0.0000000000000000     
  0.36563702999999997       0.80971340999999997        0.0000000000000000     
  0.28045499000000002       0.80393031999999998        0.0000000000000000     
  0.40374228000000001       0.78127665000000002        0.0000000000000000     
  0.56160891999999996       0.55341227999999998        0.0000000000000000     
  0.37210935000000001       0.26787699999999998        0.0000000000000000     
  0.49899838000000002       0.57286409999999999        0.0000000000000000     
  0.41023869000000002       0.33464665999999998        0.0000000000000000     
  0.33484156999999998       0.29151022999999998        0.0000000000000000     
  0.46758665999999999       0.58262307999999996        0.0000000000000000     
  0.43303693999999998       0.36569945999999998        0.0000000000000000     
  0.25741280000000000       0.61805882999999995        0.0000000000000000     
  0.28853707000000001       0.59423020000000004        0.0000000000000000     
  0.67837254000000002       0.45038665999999999        0.0000000000000000     
  0.42159046000000000       0.50697913999999999        0.0000000000000000     
  0.60276470999999998       0.73940291000000002        0.0000000000000000     
  0.30758273000000003       0.77844542000000005        0.0000000000000000     
  0.45367541000000000       0.31842187000000000        0.0000000000000000     
  0.36974101999999998       0.35807864000000000        0.0000000000000000     
  0.26919625000000003       0.65312176000000000        0.0000000000000000     
  0.61908110999999999       0.42741791000000001        0.0000000000000000     
  0.54442267000000000       0.74200747000000000        0.0000000000000000     
  0.58930464999999999       0.41588288000000001        0.0000000000000000     
  0.51511633000000001       0.74331579000000003        0.0000000000000000     
  0.12878382999999999       0.33122940000000001        0.0000000000000000     
  0.15534365000000000       0.71749246000000000        0.0000000000000000     
  0.64877724999999997       0.30161799000000000        0.0000000000000000     
  0.58853643000000000       0.28101930000000003        0.0000000000000000     
  0.56390348000000001       0.30132482999999999        0.0000000000000000     
  0.29605991999999998       0.44474459999999999        0.0000000000000000     
  0.29900669000000002       0.52983276000000001        0.0000000000000000     
  0.55954318999999997       0.48654808999999999        0.0000000000000000     
  0.42341458999999998       0.38785072999999998        0.0000000000000000     
  0.45806291999999998       0.35892998999999998        0.0000000000000000     
  0.47820750000000001       0.31147424000000001        0.0000000000000000     
  0.36344222999999998       0.38139388000000002        0.0000000000000000     
  0.17186508000000000       0.28159534000000003        0.0000000000000000     
  0.18029876000000000       0.33292397000000001        0.0000000000000000     
  0.20696366999999999       0.71822465999999996        0.0000000000000000     
  0.61326404999999995       0.34468346000000000        0.0000000000000000     
  0.29887186999999998       0.42337377999999998        0.0000000000000000     
  0.33271837999999998       0.44383096000000000        0.0000000000000000     
  0.31835012000000001       0.54267131999999996        0.0000000000000000     
  0.54882964999999995       0.45462609999999998        0.0000000000000000     
  0.20448143999999999       0.28717446000000002        0.0000000000000000     
  0.20634120000000000       0.33378063000000002        0.0000000000000000     
  0.23301781999999999       0.71859421999999995        0.0000000000000000     
  0.58606499999999995       0.35199907000000002        0.0000000000000000     
  0.20841100000000001       0.45369578999999999        0.0000000000000000     
  0.24778198000000001       0.77708496000000005        0.0000000000000000     
  0.30748062999999998       0.61002621000000001        0.0000000000000000     
  0.23337332000000000       0.41981835000000001        0.0000000000000000     
  0.25985113999999998       0.75924943000000000        0.0000000000000000     
  0.24610213000000000       0.40254353999999998        0.0000000000000000     
  0.37350351999999998       0.50127178999999999        0.0000000000000000     
  0.43235204999999999       0.78236391000000005        0.0000000000000000     
  0.30749858000000002       0.28582627999999999        0.0000000000000000     
  0.30336816000000000       0.64635111000000001        0.0000000000000000     
  0.31418906000000002       0.43625961000000002        0.0000000000000000     
  0.27223414000000001       0.78063022000000004        0.0000000000000000     
  0.22829299000000000       0.75089561000000005        0.0000000000000000     
  0.26580239000000000       0.42989294000000000        0.0000000000000000     
  0.37369119000000001       0.51975733999999996        0.0000000000000000     
  0.39681665999999999       0.51027884000000001        0.0000000000000000     
  0.32086795000000001       0.65137668999999998        0.0000000000000000     
  0.31757218999999998       0.62987181000000003        0.0000000000000000     
  0.32959777000000001       0.42500900000000003        0.0000000000000000     
  0.24663835000000001       0.74537787000000000        0.0000000000000000     
  0.26354222999999999       0.41075105000000001        0.0000000000000000     
  0.28343712999999998       0.43221330000000002        0.0000000000000000     
  0.34682245000000000       0.43182289000000001        0.0000000000000000     
  0.35306810000000000       0.45344571000000000        0.0000000000000000     
  0.57327218000000002       0.15829040000000000        0.0000000000000000     
  0.51473097999999995       0.12621746000000000        0.0000000000000000     
  0.72829681999999996       0.40151571000000003        0.0000000000000000     
  0.42703184999999999       0.53501600999999999        0.0000000000000000     
  0.32612607999999998       0.75472421999999995        0.0000000000000000     
   9.9814849999999997E-002  0.28081352999999998        0.0000000000000000     
  0.13945825000000001       0.78732252999999996        0.0000000000000000     
  0.44199519999999998       0.38275643999999998        0.0000000000000000     
  0.40132215999999998       0.36508836000000000        0.0000000000000000     
  0.43963142999999999       0.34043466999999999        0.0000000000000000     
  0.47160058999999999       0.33493045999999999        0.0000000000000000     
  0.45615203999999998       0.28038164999999998        0.0000000000000000     
  0.34321279999999998       0.35314412000000001        0.0000000000000000     
  0.29178279000000001       0.56170810000000004        0.0000000000000000     
  0.49833080000000002       0.48416767999999999        0.0000000000000000     
  0.46386271000000001       0.46452802999999998        0.0000000000000000     
  0.44722043000000000       0.45300645000000000        0.0000000000000000     
  0.46562803000000003       0.44419790999999997        0.0000000000000000     
  0.43925322000000000       0.48229485999999999        0.0000000000000000     
  0.49117628000000002       0.45665803999999999        0.0000000000000000     
  0.43435156000000003       0.46523363000000001        0.0000000000000000     
  0.19405754000000000       0.31093060000000000        0.0000000000000000     
  0.22069087000000001       0.66905079000000001        0.0000000000000000     
  0.30776597999999999       0.59042684000000001        0.0000000000000000     
  0.29541507000000000       0.57849362000000004        0.0000000000000000     
  0.28335474999999999       0.61970232999999997        0.0000000000000000     
  0.29935165000000002       0.62852803999999995        0.0000000000000000     
  0.28459435999999999       0.64121777000000002        0.0000000000000000     
  0.26698675999999999       0.63435282999999998        0.0000000000000000     
  0.24031983000000001       0.64700659000000005        0.0000000000000000     
  0.33118850000000000       0.50233682999999996        0.0000000000000000     
  0.35257061000000001       0.51072803000000000        0.0000000000000000     
  0.29038973000000001       0.78732479000000000        0.0000000000000000     
  0.28737915000000003       0.76752330999999996        0.0000000000000000     
  0.21978159000000000       0.73315437000000006        0.0000000000000000     
  0.18119734000000001       0.76257752999999995        0.0000000000000000     
  0.20353571000000001       0.75186065999999996        0.0000000000000000     
  0.39122694000000002       0.49007234000000000        0.0000000000000000     
  0.59140473999999998       0.13507609000000001        0.0000000000000000     
  0.53156702000000000        9.7663528999999999E-002   0.0000000000000000     
  0.76346223999999996       0.39657278000000001        0.0000000000000000     
  0.41119013999999998       0.52354409999999996        0.0000000000000000     
   7.2558165999999993E-002  0.26885883999999999        0.0000000000000000     
  0.10497347000000000       0.79895936000000001        0.0000000000000000     
[...]
 CELL_DATA        2963
 SCALARS Cells_density float
 LOOKUP_TABLE default
    0.11467661838122413798E+01
    0.11452389094808879122E+01
    0.11464563784376426980E+01
    0.11464207660411727119E+01
    0.11461263695998933354E+01
    0.11467336350331622796E+01
    0.11467370800662288755E+01
    0.11448948418393125603E+01
    0.11467706434356315093E+01
    0.13399116116277972905E-02
    0.11464277107454734494E+01
    0.11462463672642351220E+01
    0.11465314795217689259E+01
    0.11460350862956909523E+01
    0.11467698500604992518E+01
    0.11459766349071358604E+01
    0.39391475327928761633E-03
    0.11466318542100859545E+01
    0.11467282680094641467E+01
    0.11234295463040515628E+01
    0.11461180471635981082E+01
    0.11228829979630082850E-01
    0.22107864192226496514E-01
    0.11433184782279262048E+01
    0.26762688944542550873E+00
    0.11296715013023068686E+01
    0.11203564954968572298E+01
    0.11467419696202534318E+01
    0.11464359112209974167E+01
    0.64939728061183940241E-02
    0.11247252506467293465E+01
    0.11467689880973177541E+01
    0.11457162274359011800E+01
    0.47059170919614187745E-01
    0.11450471455615813809E+01
    0.46517748017768972835E+00
    0.11459842959700643483E+01
    0.30808983594713310571E-02
    0.31730837480879964252E+00
    0.10164663372300961619E+01
    0.45641878733360001508E-01
    0.11462617822667429124E+01
    0.11268867124917871791E+01
    0.44857808554260490685E-01
    0.11467697835272092632E+01
    0.22545799019427250330E-05
    0.44205857586794927716E+00
    0.11467626206748817719E+01
    0.17281591050216610177E-02
    0.11467690031904322900E+01
    0.23519394710652332417E-04
   -0.16643774987072858865E-07
    0.10472140711082221330E-09
   -0.12600218503723732697E-07
    0.11464171253378478976E+01
    0.11107525750511682006E+01
    0.90170464196684240593E-02
    0.66507615510370933659E-06
    0.59563295253389424123E-04
    0.11466943585646702797E+01
    0.31092943714930135386E-04
    0.11458967440188074782E+01
    0.11467654414315449074E+01
    0.11467682039921300863E+01
    0.11462394747027511155E+01
    0.10327337824978609547E-04
    0.11385728109504571481E+01
    0.29600284709739892245E-04
    0.81715626843398392332E+00
    0.11466755007607560835E+01
    0.11460201038840452104E+00
    0.21724110170182097182E-04
    0.38822138120085886159E+00
    0.11037694494462966244E+01
    0.10364712799100770681E-02
    0.10103995291066555570E-02
    0.96247026959061041801E-02
    0.30355999075869672136E-03
    0.37325730438163049197E-06
    0.33385630167737724198E-05
    0.11467651666332892013E+01
    0.81340940615170070216E-05
    0.47428150279874719836E-04
    0.40805370784468180181E-02
    0.10359322971061127577E-02
    0.11462299048725714812E+01
    0.11466540179179482983E+01
    0.11428022276898763820E+01
    0.83039170191555211620E+00
    0.11467620549412311792E+01
    0.11354864857946533885E+01
    0.74189200112831877671E-05
    0.18263341543340957940E-01
    0.14942688059632050567E-05
    0.16274618054308556681E+00
    0.96168771037261332264E-04
    0.96163773837085932822E-02
    0.11399857218748101761E+01
    0.26838581644760179951E-03
    0.11465452327961129786E+01
    0.51548345666320916081E+00
    0.11010733496541698084E+01
    0.12262094303938888659E-04
    0.11454049141725972660E+01
    0.10728399955903027418E+01
    0.11467244423433791134E+01
    0.11460199827766022196E+01
    0.11467624576353840915E+01
    0.18722738563366368146E-05
    0.11465714068043990626E+01
    0.11466134816055477685E+01
    0.11455473398391931017E+01
    0.10343090038811388887E+01
    0.11466402760925422655E+01
    0.11467555545925001148E+01
    0.11458601781544304199E+01
    0.11467685799674331992E+01
    0.11467671688085625537E+01
    0.29807924256455603680E-02
    0.18374971185353269551E-03
    0.11423936261966491923E+01
    0.11467406927543979389E+01
   -0.14319925836111786940E-07
    0.32073150137825572059E-01
   -0.16821043114452057337E-07
    0.38137626323210532808E+00
    0.11467301685852793192E+01
    0.53245387213509822607E-05
    0.11118771237693587661E+01
    0.96304198150146293330E-04
    0.49295037522213922185E-06
    0.17924747968886739765E-05
    0.99902187372888973105E+00
    0.15135504639965553151E-06
    0.11067630411051267991E+01
    0.10181835577733939927E-03
    0.96097637593775463659E-04
    0.11289402953795957263E+01
    0.11467207775961134608E+01
    0.11139853374954438170E+01
    0.83058994951910590531E-04
    0.33324090712034677535E-02
    0.55377423980107065571E+00
    0.59262473295100671466E-04
    0.16242927584858635664E-04
    0.43900234402809211551E-03
    0.11464453370750242733E+01
    0.46710143287917006577E-05
    0.11466763993716577730E+01
    0.88481939427378408780E+00
    0.11459001462023579165E+01
    0.60296985758771681763E+00
    0.23456089765242165676E-04
    0.23195027946348303546E-02
    0.69106480261189623827E-03
    0.31022228018806274825E-06
   -0.14770091986407843071E-07
    0.45419897920868134225E-02
    0.80762026826343348996E-03
    0.18295755816623919770E-03
    0.33001581919327241388E-02
    0.44676733878913665876E+00
    0.44250536775008689205E-01
    0.11256830491853964116E+01
    0.11464840778828189194E+01
    0.55612783099699861320E-05
   -0.14807691018283935824E-07
    0.26279440522942552160E-06
    0.20288185466079918830E-02
    0.23145337287490779651E-06
    0.64537296463739067184E-02
    0.38188395865262295820E-02
    0.68954652128996966063E-04
    0.19914437934930931937E-03
    0.17134499040026469148E-07
   -0.10446591838777677623E-07
    0.11451269734139701839E+01
    0.11462049885576643948E+01
    0.11465033110490807644E+01
   -0.17693642377742817641E-07
    0.14491508855425001834E-02
    0.11709721176906583151E+00
    0.67466774863718925737E+00
    0.11465666366637101703E+01
    0.16489833902072320120E-06
    0.13427542897153353882E-05
    0.11186424264900334258E+01
    0.11322629538383932601E+01
    0.45259838455066425341E-04
    0.30357845848117293031E-01
    0.11458336061896439162E+01
    0.95272234031898983542E+00
    0.11467009939259726892E+01
   -0.19440654852418840061E-07
    0.10661496837798607462E+01
   -0.15968976912892992733E-07
    0.97617143875539380549E+00
    0.13251970895877972001E-04
    0.10980182972407477315E+01
   -0.14252378854801647798E-07
    0.35585884009092988434E+00
    0.41245043668768924250E-01
    0.11463578089435835228E+01
    0.49587589316474097042E-04
    0.31434035945253353816E-01
    0.24836681184808393624E-01
    0.59363266333863973830E-03
    0.22455223247913509016E-01
    0.76035495936741481771E+00
   -0.15227680410902041754E-07
   -0.10109449076847187145E-07
    0.15561509436780564253E-01
    0.32579318458281381066E-01
    0.11466764299541445382E+01
    0.11456228628702445071E+01
    0.11464042895060586602E+01
    0.10097427784023189912E+00
    0.11292759146611426324E+01
    0.10781696647983869397E+01
    0.11856185995420741807E-04
    0.11452772572707237142E+01
    0.11459208929928903498E+01
    0.11380997954007592288E+01
    0.47582268594260181745E-04
    0.16182715232121906110E-04
    0.11460168260916061556E+01
    0.11305810916847827130E+01
    0.11409480430277070553E-04
    0.28450432748924304544E-05
    0.11232611944095516332E+01
    0.38220209081324097054E-06
    0.86383943513628658195E+00
    0.11465769697092209611E+01
    0.10930639753212181287E+01
    0.75181727510244489299E+00
    0.11139452088122916429E+01
    0.11467627270367886094E+01
    0.10479108434441248843E+01
    0.60575232765165777649E-01
    0.64137558357079260674E+00
    0.77891610116845720504E-05
    0.92106262485695117315E-02
    0.10268170829447336168E+01
    0.99441524120227042793E+00
    0.11724178869664246896E-01
    0.11292510847571195498E+01
    0.10998561369877239979E+01
    0.14138803153560604471E-04
    0.11237041865467864987E+01
    0.88885283548795246400E+00
    0.35175374800970439851E-02
    0.11446077166837449468E+01
    0.11340652470000489593E+01
    0.50757870121531767360E+00
    0.20407677515169617648E-04
    0.86961036222789755978E+00
    0.94376488032167987698E-04
    0.11245347122860960276E+01
    0.83915493969516675998E-02
    0.11231830159383093815E+01
    0.62410317048150788788E-02
    0.43424323685770866224E-02
    0.32529292441607288514E-02
    0.19371773562873761173E-02
    0.13733700907229390298E-01
   -0.12254291332257599035E-07
    0.10629411125987997533E+00
    0.58487726875292500237E-02
    0.13224955031634486741E-01
    0.19037095625443489072E-01
    0.11452538221872230473E+01
    0.10884726085816269769E+01
    0.84630141727332474505E-02
    0.32263787882947156513E-03
    0.20256786810854336515E-02
    0.11465790004059317475E+01
    0.19590378390070297548E-01
    0.11447513462986442789E+01
   -0.18506752433897125681E-07
    0.21992586526438099768E-03
    0.11467249235565319943E+01
    0.25223922948698270076E-05
    0.11376314766688262470E+01
    0.97887660413535637627E+00
    0.49229752353202962424E-03
   -0.15833474404822846036E-07
    0.10233483070988194097E+01
    0.19653457437192708079E-03
    0.11202883462604860121E+01
    0.11055647838690734197E+01
    0.11362675068390084565E+01
    0.11345760493382623935E+01
    0.74096645561821083970E+00
    0.11467248662540741044E+01
    0.12013854381184695119E+00
    0.10316511759129580739E+01
    0.86971333412432557785E-03
    0.12099142989777444956E+00
    0.72682228381686281304E-01
    0.37353649619484219357E+00
    0.21063525021735283321E-01
    0.78177531606781577866E-01
    0.10730432844364639067E+01
    0.11368492631549025340E+01
    0.11257566738481932234E+01
   -0.12992369229910331515E-07
    0.39418294735503430284E-02
    0.27288581223797386127E-01
    0.15318135524313013229E-01
    0.10823643386568175817E+01
    0.29970815496971163483E-03
    0.10337263852501540461E-02
    0.10891064574256772435E+01
    0.14937824558461541488E-02
    0.11464237806545842790E+01
    0.11467644897630340228E+01
    0.59645876076656819146E-04
    0.11185175694581845907E+01
    0.10729351985239918843E+01
    0.11465600203006711677E+01
    0.11238190280972342183E+01
    0.11356095764105866852E+01
    0.11368092848978252896E+01
    0.11424360671322415506E+01
    0.11465450952256934780E+01
    0.11316630302216807991E+01
    0.11437344484998055449E+01
    0.10394339497610023404E+01
    0.11306344203350697786E+01
    0.11459928623723734109E+01
    0.90983554795420846172E-04
    0.68197698053421131813E-05
    0.11463826294564911645E+01
    0.11462966259882809705E+01
    0.19310495339496141273E-02
    0.27129029042900151131E-01
    0.44279391632142400347E-07
    0.11086154038039381931E+01
    0.11364425655582273134E+01
    0.11424113246526124144E+01
    0.11464891384731212831E+01
    0.11361648510384716459E+01
    0.11224791886837581778E+01
    0.11451470129009997390E+01
    0.27598336394273580152E-02
    0.19206433347724646138E-02
    0.57117175658215888880E-05
    0.11349555748773254571E+01
    0.10981415930277040882E+01
    0.11467171952236150378E+01
    0.11467074069950902171E+01
    0.11466077095985418577E+01
    0.11466270737263366541E+01
    0.13293631804080314754E-07
   -0.11448817976706150947E-07
   -0.16952796668722738706E-07
    0.10341991493275620068E-05
    0.46339354484991983446E-07
    0.49994834892395551931E-05
    0.29843618680843993305E-03
    0.40716114717187395478E-05
    0.50022634663276051769E-04
    0.30580957393753360751E+00
    0.10044639732314643125E-02
   -0.18602225122449857881E-07
    0.22496141527239505380E-04
    0.11461278211841470346E-03
    0.32282686351624557446E-05
    0.57449125748149265647E+00
    0.15272240626736764343E-01
    0.24427843354274798165E-01
    0.20522044801347921750E-01
    0.20478779154319146777E-01
    0.22938369844720862822E-01
    0.33886054812726815189E-01
    0.56309363731361375405E-01
    0.34941114691030221440E-01
    0.13571863247380218723E-01
    0.29942749119449173917E-01
    0.66818726341180648132E-01
    0.22056452087797707301E-01
    0.14112739388374800215E-01
    0.11455296318587968596E+01
    0.11460710130304987420E+01
    0.11444887555809117874E+01
    0.11514818682405181249E+00
    0.12558258081457971641E-05
    0.25566941991328082459E-05
    0.72191954115896275887E-04
    0.32611236673974947570E-05
    0.39690534737470550350E-05
    0.30859009978080462937E-03
    0.10703177168448162724E-03
    0.29661616310304365180E-04
    0.59491869153161208283E-03
    0.10004094591664158473E-01
    0.86178948004813604733E+00
    0.41298278067746626782E-02
    0.11467294734057862371E+01
    0.36933663002611208381E-01
    0.76649307062332853687E-04
    0.13603145525852475251E-03
    0.11985544008488303695E-02
    0.56067562761910431923E-03
    0.11466594657273021518E+01
    0.11466761942329122270E+01
    0.11466210327887604858E+01
    0.11295085156843231999E+01
    0.11462032107324684471E+01
    0.11464940464233261963E+01
    0.11465657963589730439E+01
    0.11467259056720562338E+01
    0.11466238520312788118E+01
    0.11466823150869673853E+01
    0.25443990345407532100E-02
    0.50009823946604919573E-02
    0.11418941189589220109E+01
    0.12823675410431899821E-03
    0.11463648204296597033E+01
    0.11460752259934445796E+01
    0.11463818811935071462E+01
    0.11200387792187000979E+01
    0.11293578274383668791E+01
    0.88574239249308035077E-02
    0.69276248607999272797E-02
    0.11467566603613519316E+01
    0.10322889032675777177E+01
    0.11467177403418882253E+01
    0.11467514354929011500E+01
    0.11467593033151484150E+01
   -0.95704217381807705320E-08
   -0.90685577334836256355E-08
   -0.14760165826719537917E-07
   -0.85428476729589779612E-08
    0.50913664677727393543E-06
   -0.10045925655245904716E-07
   -0.15435093438756725948E-07
   -0.19745877101151050736E-07
   -0.16314754045599424976E-07
   -0.19593125159907749189E-07
   -0.17043698484746546443E-07
   -0.17894309668982727894E-07
    0.27634718098609069298E-04
    0.37422149736172235189E-02
    0.90408748921130324130E-05
    0.59650318292132386476E-05
    0.41063893039184827494E-04
    0.36644367400538232365E-04
    0.57631454016131538742E-03
    0.99493852293331186409E-01
    0.29778123376389664103E-03
    0.86054993587601269489E+00
    0.37902628545039845909E+00
    0.88026630030292862816E+00
   -0.16604565660323194331E-07
   -0.11372686304381581913E-07
    0.26183508204421687536E-04
    0.26282292416538155963E-05
    0.42092354455574129118E-05
    0.71939595027199838471E-05
    0.21789223764646983850E+00
    0.53560011052062546366E-01
    0.58192868268847175450E+00
    0.11216922251397451471E+00
    0.11460647812733362194E+01
    0.11465075330562695122E+01
    0.11461490861327545687E+01
    0.11460814084692898529E+01
    0.11447307383891625054E+01
    0.11360189512230929321E+01
    0.11464153902161933196E+01
    0.86238951297246690952E+00
    0.20715538120700152484E-02
    0.64821668332805274047E-03
    0.72911652353075406818E+00
    0.11300638563387421787E+01
    0.97012342368638662671E-01
    0.38361739297754610632E-02
    0.58049318871039541634E-01
    0.13897382681547151399E-05
    0.57110472989890291931E-02
    0.60163792508180003512E-03
    0.39601223153073109972E-04
    0.38711205600931817162E-03
    0.10234971183690499161E-04
    0.30436299169564394283E-04
    0.20946079312896050150E-03
    0.44039003573495696204E-03
    0.15137945045410990054E-03
    0.41730220016032989008E-04
    0.44383307958980119804E-04
    0.98035638217371277804E-04
    0.10947435149718560687E+01
    0.11211878807089465937E+01
    0.11467309611827045668E+01
    0.11466347847004898508E+01
    0.11462803314770402263E+01
    0.11464811695370857869E+01
    0.92837705407073853325E-02
    0.12388488895627455463E-01
    0.11463575665437097939E+01
    0.11458087022359639828E+01
    0.11465103531646041457E+01
    0.11268024758433135002E+01
    0.11281831515071736316E+01
    0.11467597742491195678E+01
    0.11467350416327495299E+01
    0.11467615572879163999E+01
    0.55592892373310546725E-06
    0.14182245819444283530E+00
    0.13749536970263864181E-02
    0.36530058854079211494E+00
    0.57911460845309170598E+00
    0.62678612407251577121E+00
    0.52770317713602488130E+00
    0.15510101540830512068E+00
    0.11458505537961736209E+01
    0.11461991688426296232E+01
    0.11433125565764961085E+01
    0.11455650341379082224E+01
    0.11074163911728862608E+01
    0.10332507472810090743E+01
    0.11355004682132914251E+01
    0.44472671351782216975E+00
    0.10532700223172218861E-02
    0.24442461376641512943E-04
    0.22134514334669525698E-01
    0.21442229777033904058E-03
    0.37134131769682568241E-03
    0.14860905334853109099E-04
    0.16272278365559019950E-04
    0.23913458790155730870E-05
    0.67035450591648346966E-03
    0.18351611797066551312E-03
    0.28572795408388741234E-03
    0.13121419964046420218E-03
    0.29695354966299120341E-03
    0.47987618666276023833E-03
    0.23287399400986329585E-04
    0.17536650861041597812E-03
    0.10347162132019375953E-04
    0.19776767990403844387E-04
    0.49443003568308904619E-05
    0.99094863166744612953E-02
    0.44894558304759419188E-05
    0.69497551659845223092E-05
    0.48616762493554778113E-05
    0.83045349684799869611E-05
    0.11467170698897000136E+01
    0.11467318642827473152E+01
    0.11466876729439527960E+01
    0.11467692207461599452E+01
    0.11467527366287708634E+01
    0.11467155576107870285E+01
    0.11466960743053991045E+01
    0.11467344016336333823E+01
    0.11467026831942257470E+01
    0.11466946480295558963E+01
    0.11466163049958748577E+01
    0.11466584476011814075E+01
    0.11466332302820119171E+01
    0.11464714783505556284E+01
    0.71348237363801376263E-07
    0.94009302038617660602E-03
    0.73147538683874463797E-02
    0.37441581697966026809E-01
    0.10821473663037097304E-01
    0.10324474463271744451E+01
    0.34609030609372282150E+00
    0.11549138328089099750E-01
    0.66834826645838241177E+00
    0.34580012550943572958E+00
    0.11680649671704226508E-01
    0.75149848603562496852E+00
    0.87639708161305146517E-01
    0.22571913274331240756E-01
    0.63310436767503908140E+00
    0.11367375852271845993E+01
    0.10518430078265303962E+01
    0.11846451465030330419E+00
    0.16879315337299667080E-04
    0.85318373984814861039E-02
    0.84206509638895836109E-04
    0.51716848107461903250E-01
    0.20061275732175254394E-01
    0.68637307219688279986E-03
    0.93175473300609323868E-01
    0.35436794977907820625E+00
    0.15479441237833375342E-04
    0.35240713710857009677E-05
    0.11281683249575829545E-03
    0.26550762493373574744E-05
    0.74231390257697331750E-02
    0.33847262481861959435E-05
    0.45717008183074670283E-05
    0.77883647686422499592E-05
    0.21383444347102790141E-05
    0.38382279974408956499E-05
    0.21202242116120773962E-03
    0.37394912308266883361E-03
    0.95633461328462510565E-03
    0.43451142817522563641E-03
    0.21274143882524707526E-02
    0.13697609567046109633E-02
    0.14677555826902758079E-03
    0.65353757272782020773E-04
    0.11467342113923761904E+01
    0.11467347636553502088E+01
    0.10867988616047600034E-04
    0.36507119659195382651E-05
    0.11923827701785899569E+00
    0.51635652367759072093E-02
    0.11376274331250748606E+01
    0.12835987711790054072E-01
    0.11134355234338696311E-01
    0.11508736132510232972E-04
    0.35341994708748747378E+00
    0.35547752060515899752E-01
    0.11466712824444975638E+01
    0.11466091498133446080E+01
    0.21945428978077290497E-02
    0.36658669622842789126E-01
    0.11467429545646861122E+01
    0.11466966948446322139E+01
    0.11467584970693884827E+01
    0.11467372204410528624E+01
    0.11467096525376192506E+01
    0.11465714329177423281E+01
    0.30719523072354367604E-01
    0.10959761636803164730E+01
    0.30606683471341917298E-03
    0.24454843976007171330E-01
    0.52730364001337654001E-01
    0.25541401506589154341E-01
    0.79358705104451587875E+00
    0.33936150724958785707E+00
    0.58192974581749452173E-02
    0.95294858050715680609E+00
    0.51063039521349017080E-03
    0.55992905203971619910E-01
    0.32608692135064071271E+00
    0.10605175871736436388E+01