# vtk DataFile Version 3.0
LAPLACIEN  2D
ASCII
DATASET UNSTRUCTURED_GRID
 POINTS        1616  float
  0.45880792999999997       0.87913892999999999        0.0000000000000000     
  0.40372658000000000       0.18243693000000000        0.0000000000000000     
  0.52563972999999997       0.19039755999999999        0.0000000000000000     
  0.45642953000000003       0.24226190000000000        0.0000000000000000     
  0.51984098000000001       0.24548566999999999        0.0000000000000000     
  0.21212766999999999       0.18957676000000001        0.0000000000000000     
  0.28573643999999998       0.48586826999999999        0.0000000000000000     
  0.49667887999999999       0.82979849000000006        0.0000000000000000     
  0.22848407000000001       0.23366793000000000        0.0000000000000000     
  0.27860389000000002       0.86069733000000004        0.0000000000000000     
  0.36563702999999997       0.80971340999999997        0.0000000000000000     
  0.28045499000000002       0.80393031999999998        0.0000000000000000     
  0.40374228000000001       0.78127665000000002        0.0000000000000000     
  0.56160891999999996       0.55341227999999998        0.0000000000000000     
  0.37210935000000001       0.26787699999999998        0.0000000000000000     
  0.49899838000000002       0.57286409999999999        0.0000000000000000     
  0.41023869000000002       0.33464665999999998        0.0000000000000000     
  0.33484156999999998       0.29151022999999998        0.0000000000000000     
  0.46758665999999999       0.58262307999999996        0.0000000000000000     
  0.43303693999999998       0.36569945999999998        0.0000000000000000     
  0.25741280000000000       0.61805882999999995        0.0000000000000000     
  0.28853707000000001       0.59423020000000004        0.0000000000000000     
  0.67837254000000002       0.45038665999999999        0.0000000000000000     
  0.42159046000000000       0.50697913999999999        0.0000000000000000     
  0.60276470999999998       0.73940291000000002        0.0000000000000000     
  0.30758273000000003       0.77844542000000005        0.0000000000000000     
  0.45367541000000000       0.31842187000000000        0.0000000000000000     
  0.36974101999999998       0.35807864000000000        0.0000000000000000     
  0.26919625000000003       0.65312176000000000        0.0000000000000000     
  0.61908110999999999       0.42741791000000001        0.0000000000000000     
  0.54442267000000000       0.74200747000000000        0.0000000000000000     
  0.58930464999999999       0.41588288000000001        0.0000000000000000     
  0.51511633000000001       0.74331579000000003        0.0000000000000000     
  0.12878382999999999       0.33122940000000001        0.0000000000000000     
  0.15534365000000000       0.71749246000000000        0.0000000000000000     
  0.64877724999999997       0.30161799000000000        0.0000000000000000     
  0.58853643000000000       0.28101930000000003        0.0000000000000000     
  0.56390348000000001       0.30132482999999999        0.0000000000000000     
  0.29605991999999998       0.44474459999999999        0.0000000000000000     
  0.29900669000000002       0.52983276000000001        0.0000000000000000     
  0.55954318999999997       0.48654808999999999        0.0000000000000000     
  0.42341458999999998       0.38785072999999998        0.0000000000000000     
  0.45806291999999998       0.35892998999999998        0.0000000000000000     
  0.47820750000000001       0.31147424000000001        0.0000000000000000     
  0.36344222999999998       0.38139388000000002        0.0000000000000000     
  0.17186508000000000       0.28159534000000003        0.0000000000000000     
  0.18029876000000000       0.33292397000000001        0.0000000000000000     
  0.20696366999999999       0.71822465999999996        0.0000000000000000     
  0.61326404999999995       0.34468346000000000        0.0000000000000000     
  0.29887186999999998       0.42337377999999998        0.0000000000000000     
  0.33271837999999998       0.44383096000000000        0.0000000000000000     
  0.31835012000000001       0.54267131999999996        0.0000000000000000     
  0.54882964999999995       0.45462609999999998        0.0000000000000000     
  0.20448143999999999       0.28717446000000002        0.0000000000000000     
  0.20634120000000000       0.33378063000000002        0.0000000000000000     
  0.23301781999999999       0.71859421999999995        0.0000000000000000     
  0.58606499999999995       0.35199907000000002        0.0000000000000000     
  0.20841100000000001       0.45369578999999999        0.0000000000000000     
  0.24778198000000001       0.77708496000000005        0.0000000000000000     
  0.30748062999999998       0.61002621000000001        0.0000000000000000     
  0.23337332000000000       0.41981835000000001        0.0000000000000000     
  0.25985113999999998       0.75924943000000000        0.0000000000000000     
  0.24610213000000000       0.40254353999999998        0.0000000000000000     
  0.37350351999999998       0.50127178999999999        0.0000000000000000     
  0.43235204999999999       0.78236391000000005        0.0000000000000000     
  0.30749858000000002       0.28582627999999999        0.0000000000000000     
  0.30336816000000000       0.64635111000000001        0.0000000000000000     
  0.31418906000000002       0.43625961000000002        0.0000000000000000     
  0.27223414000000001       0.78063022000000004        0.0000000000000000     
  0.22829299000000000       0.75089561000000005        0.0000000000000000     
  0.26580239000000000       0.42989294000000000        0.0000000000000000     
  0.37369119000000001       0.51975733999999996        0.0000000000000000     
  0.39681665999999999       0.51027884000000001        0.0000000000000000     
  0.32086795000000001       0.65137668999999998        0.0000000000000000     
  0.31757218999999998       0.62987181000000003        0.0000000000000000     
  0.32959777000000001       0.42500900000000003        0.0000000000000000     
  0.24663835000000001       0.74537787000000000        0.0000000000000000     
  0.26354222999999999       0.41075105000000001        0.0000000000000000     
  0.28343712999999998       0.43221330000000002        0.0000000000000000     
  0.34682245000000000       0.43182289000000001        0.0000000000000000     
  0.35306810000000000       0.45344571000000000        0.0000000000000000     
  0.57327218000000002       0.15829040000000000        0.0000000000000000     
  0.51473097999999995       0.12621746000000000        0.0000000000000000     
  0.72829681999999996       0.40151571000000003        0.0000000000000000     
  0.42703184999999999       0.53501600999999999        0.0000000000000000     
  0.32612607999999998       0.75472421999999995        0.0000000000000000     
   9.9814849999999997E-002  0.28081352999999998        0.0000000000000000     
  0.13945825000000001       0.78732252999999996        0.0000000000000000     
  0.44199519999999998       0.38275643999999998        0.0000000000000000     
  0.40132215999999998       0.36508836000000000        0.0000000000000000     
  0.43963142999999999       0.34043466999999999        0.0000000000000000     
  0.47160058999999999       0.33493045999999999        0.0000000000000000     
  0.45615203999999998       0.28038164999999998        0.0000000000000000     
  0.34321279999999998       0.35314412000000001        0.0000000000000000     
  0.29178279000000001       0.56170810000000004        0.0000000000000000     
  0.49833080000000002       0.48416767999999999        0.0000000000000000     
  0.46386271000000001       0.46452802999999998        0.0000000000000000     
  0.44722043000000000       0.45300645000000000        0.0000000000000000     
  0.46562803000000003       0.44419790999999997        0.0000000000000000     
  0.43925322000000000       0.48229485999999999        0.0000000000000000     
  0.49117628000000002       0.45665803999999999        0.0000000000000000     
  0.43435156000000003       0.46523363000000001        0.0000000000000000     
  0.19405754000000000       0.31093060000000000        0.0000000000000000     
  0.22069087000000001       0.66905079000000001        0.0000000000000000     
  0.30776597999999999       0.59042684000000001        0.0000000000000000     
  0.29541507000000000       0.57849362000000004        0.0000000000000000     
  0.28335474999999999       0.61970232999999997        0.0000000000000000     
  0.29935165000000002       0.62852803999999995        0.0000000000000000     
  0.28459435999999999       0.64121777000000002        0.0000000000000000     
  0.26698675999999999       0.63435282999999998        0.0000000000000000     
  0.24031983000000001       0.64700659000000005        0.0000000000000000     
  0.33118850000000000       0.50233682999999996        0.0000000000000000     
  0.35257061000000001       0.51072803000000000        0.0000000000000000     
  0.29038973000000001       0.78732479000000000        0.0000000000000000     
  0.28737915000000003       0.76752330999999996        0.0000000000000000     
  0.21978159000000000       0.73315437000000006        0.0000000000000000     
  0.18119734000000001       0.76257752999999995        0.0000000000000000     
  0.20353571000000001       0.75186065999999996        0.0000000000000000     
  0.39122694000000002       0.49007234000000000        0.0000000000000000     
  0.59140473999999998       0.13507609000000001        0.0000000000000000     
  0.53156702000000000        9.7663528999999999E-002   0.0000000000000000     
  0.76346223999999996       0.39657278000000001        0.0000000000000000     
  0.41119013999999998       0.52354409999999996        0.0000000000000000     
   7.2558165999999993E-002  0.26885883999999999        0.0000000000000000     
  0.10497347000000000       0.79895936000000001        0.0000000000000000     
[...]
 CELL_DATA        2963
 SCALARS Cells_density float
 LOOKUP_TABLE default
    0.87366342368288463227E+00
    0.87366343985479000267E+00
    0.87366346861884836006E+00
    0.87366340649415819009E+00
    0.87366342408887376347E+00
    0.87366346857006405013E+00
    0.87366343071942609289E+00
    0.87366336560699731084E+00
    0.87366346969244046416E+00
    0.16484203417819142355E-04
    0.87366344732409895180E+00
    0.87366343392511958132E+00
    0.87366314594374805402E+00
    0.87366347046745629346E+00
    0.87366347865507254511E+00
    0.87366270048134131443E+00
    0.33474007158729170798E-06
    0.87366344933403261575E+00
    0.87366342809981811790E+00
    0.87284970512445902990E+00
    0.87366347200317895361E+00
    0.41274087889554044242E-02
    0.45791296156098011683E-01
    0.87365931399011831360E+00
    0.35173367613804303045E-01
    0.87366003298793615262E+00
    0.87308281147220401230E+00
    0.87366345490820251918E+00
    0.87366346223888902145E+00
    0.47559896770645917737E-04
    0.87355981487573719502E+00
    0.87366344080885027790E+00
    0.87366347363970464635E+00
    0.19658179742422449490E-02
    0.87366326510061298460E+00
    0.32137439923430599631E+00
    0.87366336666302291114E+00
    0.75621305990134082354E-05
    0.10546876761778356535E+00
    0.85372693930926524253E+00
    0.15552193782573829270E-02
    0.87366345155055635807E+00
    0.87323606696409350469E+00
    0.14838684539124590012E-02
    0.87366347866385718479E+00
   -0.87623058492591770739E-09
    0.16899988850028763165E+00
    0.87366345183113525152E+00
    0.33060581534678147308E-05
    0.87366344195582879006E+00
    0.44075747412493710454E-08
   -0.15011167184044909709E-08
   -0.23515041346591253953E-08
   -0.27410060723138817336E-09
    0.87366343080190744796E+00
    0.87354685135521392692E+00
    0.73480520384858354402E-04
   -0.12311296031273504285E-08
    0.90431137481503986807E-08
    0.87366344567985243508E+00
   -0.10573763121432479472E-09
    0.87366343964228865282E+00
    0.87366344124606098998E+00
    0.87366344889012970132E+00
    0.87366346570995390142E+00
   -0.10820924968555389764E-08
    0.87366011112052388565E+00
   -0.30976237306619555975E-09
    0.54300277373867646136E-01
    0.87366346877585376873E+00
    0.11465629670406363855E-01
   -0.10174517151271917636E-08
    0.17441234450836695657E+00
    0.87225775524537663141E+00
    0.67140687664081896287E-05
    0.50717283276914355616E-05
    0.33979807570568049298E-02
    0.40593293437782882488E-06
   -0.13035362020986736986E-09
   -0.16091001057092268372E-08
    0.87366346293871621764E+00
   -0.84944967338418507901E-10
    0.19720228499060112499E-08
    0.31592314234390892142E-03
    0.23975854657697452451E-05
    0.87366338780533403519E+00
    0.87366338573304136439E+00
    0.87365275976001310898E+00
    0.73495452089688051434E+00
    0.87366344340701806992E+00
    0.87356090577280520737E+00
    0.49975550377409938265E-10
    0.16592305384160354470E-01
    0.82695692457205858380E-09
    0.22172646547418524421E-01
    0.38098895119643402649E-07
    0.27437955402828950735E-02
    0.87360611844898938827E+00
    0.14970387060177895792E-06
    0.87366342155646403711E+00
    0.23868683819497424348E+00
    0.87198159487655380051E+00
    0.66399530231805034791E-10
    0.87366145741103662381E+00
    0.86961290162367799184E+00
    0.87366344552738817164E+00
    0.87366334417794366818E+00
    0.87366342624658255289E+00
   -0.12459420293459020572E-08
    0.87366340629480088165E+00
    0.87366342924171880302E+00
    0.87366227269944840561E+00
    0.86068851035878524147E+00
    0.87366344501999249061E+00
    0.87366342202877544931E+00
    0.87366148205924698544E+00
    0.87366348657730341642E+00
    0.87366343057326045773E+00
    0.12240268604729007433E-03
    0.45228179986438748614E-07
    0.87362584620540650882E+00
    0.87366346741383016372E+00
   -0.12985198676252339644E-08
    0.10591101210415568117E-02
   -0.22380451884282910934E-08
    0.14578840624231712009E+00
    0.87366343769681154008E+00
   -0.96743350833378730345E-09
    0.87338332204981683482E+00
    0.16302390459253784211E-07
   -0.12784878115724231559E-08
   -0.31632678244473479209E-09
    0.84330466240132806455E+00
    0.20181221794242837909E-08
    0.87350160743624183368E+00
    0.94943296669964081497E-08
    0.64223401101992457309E-08
    0.87363805445764330937E+00
    0.87366346046173581907E+00
    0.87339840130522661266E+00
    0.13820596175686288638E-07
    0.10034596053836841029E-04
    0.11069385652042405821E+00
    0.21100794767122477948E-08
   -0.32552109796251298047E-09
    0.36089316410512704617E-06
    0.87366349915561503092E+00
    0.36205035488489165039E-09
    0.87366343466011719965E+00
    0.76270450538402145835E+00
    0.87366340222912497460E+00
    0.70776925384193417612E-01
   -0.16560898487582213372E-11
    0.69159205078054665966E-05
    0.14256705088491849637E-05
   -0.17034722496938253058E-08
   -0.19310362375172936819E-08
    0.28065563268050677570E-04
    0.61579502518019572538E-06
    0.36802700031399808207E-07
    0.23541685870558187136E-04
    0.20138847974800364038E+00
    0.16015318857293288617E-02
    0.87353608134825311282E+00
    0.87366346982491716044E+00
    0.12788096736888835242E-09
   -0.61463748232142965878E-09
   -0.16191894891168619343E-08
    0.34397210727410641978E-04
   -0.13892559748185986478E-09
    0.11368074500671910762E-02
    0.10860258867937093717E-04
    0.93346062057450960037E-08
    0.11761966600369155136E-06
    0.66581932493282453240E-09
   -0.40204426094429940180E-09
    0.87366343938918067380E+00
    0.87366330592509811037E+00
    0.87366341390134405476E+00
   -0.16757692212341389299E-08
    0.15244016325810634145E-04
    0.14350707851768621653E-01
    0.65089354935863152907E+00
    0.87366343066459140054E+00
    0.29268047699089718918E-09
    0.52953536730269850761E-09
    0.87359541328752743361E+00
    0.87366001717737806764E+00
    0.38018801627822240541E-09
    0.76989679169642570491E-03
    0.87366345207664830586E+00
    0.72688534919315539451E+00
    0.87366348592520592931E+00
   -0.27092443324502170235E-08
    0.86781040327695968539E+00
   -0.13848228094164609777E-08
    0.74847294427141408679E+00
    0.58820123778861332157E-09
    0.87283345487260521889E+00
   -0.96042385669168029208E-09
    0.15819266136348486551E+00
    0.13324266034793899940E-02
    0.87366343336536589348E+00
    0.80488817403073467311E-08
    0.49111207491620428867E-01
    0.34051319818334563339E-01
    0.39904388677680694749E-06
    0.19557048193131428004E-01
    0.26499536598412656851E-01
   -0.12447960332615501790E-08
    0.55528598115167191717E-09
    0.14881182203514376969E-01
    0.67608600873661606201E-01
    0.87366341693082372188E+00
    0.87366347576212610715E+00
    0.87366346428729657614E+00
    0.13525879377395747666E-01
    0.87358673981695023070E+00
    0.87046940798455785249E+00
   -0.47060745404427368666E-09
    0.87366342259186036134E+00
    0.87366348224926293486E+00
    0.87366026301428056922E+00
    0.33937131290540395021E-08
   -0.25626117619045458137E-08
    0.87366343608288354883E+00
    0.87363037125307330122E+00
    0.62609916885794560449E-09
   -0.14043994162165339161E-09
    0.87346932384151643181E+00
   -0.14319776696468081609E-08
    0.80307025751608795971E+00
    0.87366346316076026746E+00
    0.87197657893604774149E+00
    0.69329962165044567435E+00
    0.87318561404558203698E+00
    0.87366345443343818022E+00
    0.86366327743298731967E+00
    0.75040746703691194042E-01
    0.32308233280389724029E-01
   -0.14718612722364194713E-08
    0.90076982526857477234E-04
    0.86110152044789622927E+00
    0.83321437896365890818E+00
    0.83086573454872868910E-02
    0.87366024988168744514E+00
    0.87237865564694105913E+00
   -0.16977981657740934678E-09
    0.87365374711149390574E+00
    0.84417172786334454537E-01
    0.23474149666981842621E-03
    0.87366094364679947049E+00
    0.87366127455544384528E+00
    0.70006371847511808526E-01
    0.77731996271118039777E-09
    0.79126551016399337968E+00
    0.15265980109583252473E-07
    0.87364590560150356957E+00
    0.28455807440506916163E-02
    0.87289543526025836773E+00
    0.11147610017327460284E-02
    0.36702929276090368038E-03
    0.13905077789912821521E-03
    0.42285181668637045470E-05
    0.81284610577968940265E-02
   -0.65875911195534854458E-09
    0.60025528544335703118E-01
    0.81925589715562752765E-03
    0.90236904306079300194E-04
    0.14388481386531561806E-01
    0.87366200586556608254E+00
    0.87124780298175985571E+00
    0.30219015325343751184E-02
    0.98452620539077310492E-07
    0.28764454516845033334E-05
    0.87366345046946081165E+00
    0.35329483220322010920E-03
    0.87366037278809449695E+00
   -0.23395249124197567774E-08
    0.11775872943212348525E-07
    0.87366340762189109714E+00
    0.11190884986163535313E-08
    0.87365177519340864176E+00
    0.84649528426445141971E+00
    0.14027643177623013154E-06
   -0.66072164893259401734E-09
    0.84585734174032478627E+00
    0.10386922349748035689E-07
    0.87365004510892629863E+00
    0.87204095623003219373E+00
    0.87358611875125113944E+00
    0.87357217115699825616E+00
    0.62470721513882587761E+00
    0.87366347269144750687E+00
    0.15640116776998395226E-01
    0.86196459307443651365E+00
    0.79404737896086068685E-06
    0.13065214815723150826E-01
    0.12488810800001963475E+00
    0.23611083167926323612E-01
    0.68066657513696725811E-03
    0.14242292038548823568E-02
    0.87209397229099061555E+00
    0.87366120799699109600E+00
    0.87363174615401706369E+00
   -0.11790334647101882143E-08
    0.47876197963583107947E-04
    0.67530293318814255728E-03
    0.20633147879829632880E-02
    0.87239274653833898121E+00
    0.12937735298965724241E-06
    0.25088465396898337580E-05
    0.87273200839373588078E+00
    0.23844049199854937633E-05
    0.87366344744130408628E+00
    0.87366345665411326848E+00
    0.10272801135091195133E-07
    0.87360762689632753819E+00
    0.87156350189956643959E+00
    0.87366339996356756625E+00
    0.87362218059069385312E+00
    0.87359303374496488637E+00
    0.87365798865974897414E+00
    0.87364738219839210842E+00
    0.87366347307520819676E+00
    0.87364556259310444108E+00
    0.87366332389268719361E+00
    0.86741971374378079584E+00
    0.87365004845622651342E+00
    0.87366340778013629187E+00
    0.10872070163608220934E-07
   -0.10554515117799537280E-08
    0.87366346037523301415E+00
    0.87366347298631519269E+00
    0.50419532891482159758E-05
    0.71142847498374781490E-03
   -0.24170200288313521199E-08
    0.87352253616234909472E+00
    0.87366030432523433813E+00
    0.87362292996138724011E+00
    0.87366338172194035749E+00
    0.87366043092113365720E+00
    0.87365378858957498664E+00
    0.87366341027199712066E+00
    0.86465190847702651602E-04
    0.35693578715588293918E-05
   -0.12944271410862040780E-08
    0.87365376785229509338E+00
    0.87147966586608560657E+00
    0.87366345324714844711E+00
    0.87366343062068652081E+00
    0.87366348399214688314E+00
    0.87366345626056396423E+00
   -0.13247257988343961620E-08
   -0.66587226772572757637E-09
   -0.17885487245365199480E-08
   -0.15365432955087345292E-08
   -0.13696796677281554247E-08
   -0.17161295654425064451E-08
    0.13567388366007406188E-06
   -0.25651851289216426118E-09
    0.11170255161095184856E-07
    0.87118017208695899822E-01
    0.19666210295117522043E-05
   -0.26927958918399132837E-08
    0.30633229056852117496E-08
    0.67321871758637588930E-07
   -0.62448876001350086876E-10
    0.20053290792748174054E+00
    0.10072512139306141754E-01
    0.19925714691834697789E-01
    0.35463006645517727855E-01
    0.15740340843140375460E-01
    0.43078180291668412283E-01
    0.27607657921643886934E-01
    0.12273887663297426698E+00
    0.10347610500737142170E+00
    0.10907078421864368697E-01
    0.28077285056672063313E-01
    0.41544062180845019172E-01
    0.33884626166971659744E-01
    0.12141404271005113921E-01
    0.87366328288505978872E+00
    0.87366345251044630338E+00
    0.87365988229306834612E+00
    0.14290550819369059535E-01
   -0.83820599984041960319E-09
   -0.39680615800381119876E-09
    0.15118008684148742462E-07
   -0.56657722598436588373E-09
   -0.48969862680620434094E-09
    0.21420057775428908734E-06
    0.21374396795765110661E-07
    0.45565132968853773755E-08
    0.46462963463662921663E-06
    0.92114836203812647166E-04
    0.77086494699676988418E+00
    0.39701293732973855189E-04
    0.87366347359947704732E+00
    0.13382664465542339766E-02
    0.32688421325873558482E-08
    0.50999175298307009667E-07
    0.79848268238038086199E-05
    0.10813718849715836425E-05
    0.87366347938411248464E+00
    0.87366345661033584236E+00
    0.87366343239025168188E+00
    0.87341524289676386594E+00
    0.87366338086964756560E+00
    0.87366340836020195404E+00
    0.87366347044699832480E+00
    0.87366346619466284107E+00
    0.87366345250522481347E+00
    0.87366339133290060737E+00
    0.80701819987442853553E-04
    0.55851170196854951072E-03
    0.87366324974984166385E+00
    0.52899333055649521686E-07
    0.87366348648463665327E+00
    0.87366339367132661575E+00
    0.87366343236705745756E+00
    0.87364732559202662454E+00
    0.87365701288668062841E+00
    0.27725416598993152077E-02
    0.12069206657227969821E-02
    0.87366344663083617128E+00
    0.85801857052865404540E+00
    0.87366345270526268862E+00
    0.87366347271231303839E+00
    0.87366343670260582233E+00
   -0.14315065341499332891E-08
   -0.74351123010220266150E-09
   -0.10433636001911921624E-08
   -0.15288933865562714230E-08
   -0.15315639273861464508E-08
   -0.10823303618091542993E-08
   -0.12020065401234018663E-08
   -0.28918649822225828503E-08
   -0.16473037901250978502E-08
   -0.22402823965025054027E-08
   -0.15660479017710633167E-08
   -0.19253526448858398423E-08
    0.25037864461134858954E-08
    0.16714436102375301131E-04
    0.46873072167846919264E-10
    0.71746856530151325011E-09
    0.47967365061864046432E-08
    0.51014079150797100011E-08
    0.61175866623952556335E-06
    0.77667048271758505271E-02
    0.17164998612485067844E-06
    0.76508736243466257676E+00
    0.12218546039097499811E+00
    0.77371206528558433835E+00
   -0.14449856421292340414E-08
   -0.42080470632721191856E-09
    0.71644773613805605985E-10
    0.71103240934241204841E-10
   -0.84587507262902663030E-10
   -0.27014729656280265949E-09
    0.72378884492581063714E-01
    0.64542448809034272394E-01
    0.17699532921058364066E+00
    0.82223258652480091246E-01
    0.87366346584279708232E+00
    0.87366344371387993917E+00
    0.87366342602125945938E+00
    0.87366348090339840393E+00
    0.87366077532885000334E+00
    0.87355667476873999355E+00
    0.87366347680974854040E+00
    0.74545380629259283545E+00
    0.54566908892900334806E-05
    0.52059431410411184738E-06
    0.66540706781779113133E+00
    0.87328845103074015377E+00
    0.13328122779074748697E-01
    0.23767789665746622051E-04
    0.25999528922780053806E-02
   -0.81553290763013862146E-09
    0.54126049503821916232E-04
    0.96020683918954698318E-06
   -0.66749360761864864665E-09
    0.32595294829819321478E-06
   -0.53421467111283200874E-10
   -0.16459218561716917537E-08
    0.58122213247884437845E-07
    0.39347312638378903963E-06
    0.19544196279484978698E-07
   -0.23912115199522069575E-09
    0.10285586397506502854E-08
    0.89969626914024376926E-08
    0.87115318431374511032E+00
    0.87279877177811238109E+00
    0.87366347888469220173E+00
    0.87366342513369676936E+00
    0.87366345585716320699E+00
    0.87366344856137967412E+00
    0.33146130534794935110E-02
    0.69596730246076947760E-02
    0.87366339538082815608E+00
    0.87366339983729823793E+00
    0.87366347405359723322E+00
    0.87365813616152787624E+00
    0.87365551652825812479E+00
    0.87366345636360032145E+00
    0.87366344891852010246E+00
    0.87366340662502905978E+00
   -0.16695035176395092616E-08
    0.15920903013148374888E-01
    0.31380993816972959983E-05
    0.12105368702201697861E+00
    0.39885770744828033529E-01
    0.90568419581307971211E-01
    0.20437056856358720713E+00
    0.14628143008450281148E+00
    0.87366344990352651223E+00
    0.87366343917883881875E+00
    0.87364093059759828641E+00
    0.87366327099991569760E+00
    0.87210029657300069950E+00
    0.85994462309973074277E+00
    0.87356146414527258148E+00
    0.18691809098267417322E+00
    0.28299320981295074963E-05
    0.36535319295556720882E-08
    0.57020997408729109501E-03
    0.15990622494871318563E-06
    0.26655110662628864684E-06
   -0.15745687000943584276E-08
    0.17402885283600270250E-08
   -0.10339758606029476074E-09
    0.17950008431640549892E-05
    0.31180979125818885777E-07
    0.31065639165307679013E-06
    0.30053055839282588018E-07
    0.25463263930656397624E-06
    0.14880903111931159906E-05
   -0.18787770984568473200E-08
    0.49020314375680875943E-07
   -0.16205390969199350786E-08
   -0.14864313679845865423E-08
   -0.13849110431457112163E-08
    0.85586178942776398675E-04
   -0.71140029260934837001E-09
   -0.13229322280239508281E-08
   -0.16144048528558894792E-08
   -0.11916335507144772993E-08
    0.87366346188760801716E+00
    0.87366347166444680017E+00
    0.87366348490023215678E+00
    0.87366339677884796711E+00
    0.87366346424135932214E+00
    0.87366346604558098310E+00
    0.87366341422860727128E+00
    0.87366343352403486033E+00
    0.87366345251469779143E+00
    0.87366345368956743744E+00
    0.87366342374285765882E+00
    0.87366344216137092893E+00
    0.87366346938247385623E+00
    0.87366342235135496797E+00
   -0.99595922440167431304E-09
    0.18289685037488575616E-05
    0.54231101304959297379E-04
    0.12055024414716962282E-02
    0.10305133499217078929E-03
    0.85937996518753712039E+00
    0.13469277403363003054E+00
    0.10509775905417024025E-03
    0.11381065735628949354E+00
    0.13439343392211222650E+00
    0.11830967190512792567E-03
    0.73587194004405998005E+00
    0.41527300296123250550E-02
    0.28543414321765262680E-03
    0.59539770362982125107E+00
    0.87358418320502806420E+00
    0.86541947892000081755E+00
    0.11419259853301983940E-01
   -0.13365154708305839808E-08
    0.76082044662237240996E-04
    0.14752443688896138722E-07
    0.16945109021766389338E-02
    0.46979939420403201257E-03
    0.11776273637465193663E-05
    0.82995718850199812905E-02
    0.11947228949334910697E+00
    0.24467875138077045319E-08
    0.42800054708110537672E-09
    0.45851850246665997564E-07
   -0.51427162061116312237E-09
    0.72658815040503032536E-04
    0.38768395663035725907E-09
   -0.83007732299022704554E-09
   -0.72141546426303929288E-09
   -0.14673590561790858024E-09
   -0.52278084102451545303E-09
    0.58085625044145515281E-07
    0.40403051190858079598E-06
    0.71665373213602237150E-05
    0.84830292767684086302E-06
    0.57488604690887764540E-04
    0.15720399190788391270E-04
    0.18526081395092743802E-07
    0.22252094804610193651E-08
    0.87366343855003059105E+00
    0.87366347414152722983E+00
   -0.11176088458138205645E-08
   -0.13196054756430311425E-08
    0.13209872778334574850E-01
    0.34244301888144581907E-04
    0.87362076528367837991E+00
    0.32694812958732093677E-03
    0.10149230677293578614E-03
    0.13233509528752395650E-08
    0.10422140965055420869E+00
    0.10858900322477922726E-02
    0.87366342600522028938E+00
    0.87366345029437020298E+00
    0.61653730370009120456E-05
    0.13450042445319705317E-02
    0.87366345653015975437E+00
    0.87366345890160634902E+00
    0.87366344235637083404E+00
    0.87366342303449617823E+00
    0.87366348137451388389E+00
    0.87366344890640945664E+00
    0.80897763288610312002E-03
    0.87168234246402964693E+00
    0.22700275241057043354E-06
    0.33103188265535551200E-03
    0.16031445539514488710E-02
    0.77220271650219995518E-03
    0.73449848977962661767E+00
    0.12989894477970184705E+00
    0.17847132775362008086E-04
    0.85320903634015909933E+00
    0.16774597080811090561E-06
    0.10686513590202051643E-02
    0.14792712182184451081E-01
    0.87200462001901390963E+00