# vtk DataFile Version 3.0
LAPLACIEN  2D
ASCII
DATASET UNSTRUCTURED_GRID
 POINTS        1616  float
  0.45880792999999997       0.87913892999999999        0.0000000000000000     
  0.40372658000000000       0.18243693000000000        0.0000000000000000     
  0.52563972999999997       0.19039755999999999        0.0000000000000000     
  0.45642953000000003       0.24226190000000000        0.0000000000000000     
  0.51984098000000001       0.24548566999999999        0.0000000000000000     
  0.21212766999999999       0.18957676000000001        0.0000000000000000     
  0.28573643999999998       0.48586826999999999        0.0000000000000000     
  0.49667887999999999       0.82979849000000006        0.0000000000000000     
  0.22848407000000001       0.23366793000000000        0.0000000000000000     
  0.27860389000000002       0.86069733000000004        0.0000000000000000     
  0.36563702999999997       0.80971340999999997        0.0000000000000000     
  0.28045499000000002       0.80393031999999998        0.0000000000000000     
  0.40374228000000001       0.78127665000000002        0.0000000000000000     
  0.56160891999999996       0.55341227999999998        0.0000000000000000     
  0.37210935000000001       0.26787699999999998        0.0000000000000000     
  0.49899838000000002       0.57286409999999999        0.0000000000000000     
  0.41023869000000002       0.33464665999999998        0.0000000000000000     
  0.33484156999999998       0.29151022999999998        0.0000000000000000     
  0.46758665999999999       0.58262307999999996        0.0000000000000000     
  0.43303693999999998       0.36569945999999998        0.0000000000000000     
  0.25741280000000000       0.61805882999999995        0.0000000000000000     
  0.28853707000000001       0.59423020000000004        0.0000000000000000     
  0.67837254000000002       0.45038665999999999        0.0000000000000000     
  0.42159046000000000       0.50697913999999999        0.0000000000000000     
  0.60276470999999998       0.73940291000000002        0.0000000000000000     
  0.30758273000000003       0.77844542000000005        0.0000000000000000     
  0.45367541000000000       0.31842187000000000        0.0000000000000000     
  0.36974101999999998       0.35807864000000000        0.0000000000000000     
  0.26919625000000003       0.65312176000000000        0.0000000000000000     
  0.61908110999999999       0.42741791000000001        0.0000000000000000     
  0.54442267000000000       0.74200747000000000        0.0000000000000000     
  0.58930464999999999       0.41588288000000001        0.0000000000000000     
  0.51511633000000001       0.74331579000000003        0.0000000000000000     
  0.12878382999999999       0.33122940000000001        0.0000000000000000     
  0.15534365000000000       0.71749246000000000        0.0000000000000000     
  0.64877724999999997       0.30161799000000000        0.0000000000000000     
  0.58853643000000000       0.28101930000000003        0.0000000000000000     
  0.56390348000000001       0.30132482999999999        0.0000000000000000     
  0.29605991999999998       0.44474459999999999        0.0000000000000000     
  0.29900669000000002       0.52983276000000001        0.0000000000000000     
  0.55954318999999997       0.48654808999999999        0.0000000000000000     
  0.42341458999999998       0.38785072999999998        0.0000000000000000     
  0.45806291999999998       0.35892998999999998        0.0000000000000000     
  0.47820750000000001       0.31147424000000001        0.0000000000000000     
  0.36344222999999998       0.38139388000000002        0.0000000000000000     
  0.17186508000000000       0.28159534000000003        0.0000000000000000     
  0.18029876000000000       0.33292397000000001        0.0000000000000000     
  0.20696366999999999       0.71822465999999996        0.0000000000000000     
  0.61326404999999995       0.34468346000000000        0.0000000000000000     
  0.29887186999999998       0.42337377999999998        0.0000000000000000     
  0.33271837999999998       0.44383096000000000        0.0000000000000000     
  0.31835012000000001       0.54267131999999996        0.0000000000000000     
  0.54882964999999995       0.45462609999999998        0.0000000000000000     
  0.20448143999999999       0.28717446000000002        0.0000000000000000     
  0.20634120000000000       0.33378063000000002        0.0000000000000000     
  0.23301781999999999       0.71859421999999995        0.0000000000000000     
  0.58606499999999995       0.35199907000000002        0.0000000000000000     
  0.20841100000000001       0.45369578999999999        0.0000000000000000     
  0.24778198000000001       0.77708496000000005        0.0000000000000000     
  0.30748062999999998       0.61002621000000001        0.0000000000000000     
  0.23337332000000000       0.41981835000000001        0.0000000000000000     
  0.25985113999999998       0.75924943000000000        0.0000000000000000     
  0.24610213000000000       0.40254353999999998        0.0000000000000000     
  0.37350351999999998       0.50127178999999999        0.0000000000000000     
  0.43235204999999999       0.78236391000000005        0.0000000000000000     
  0.30749858000000002       0.28582627999999999        0.0000000000000000     
  0.30336816000000000       0.64635111000000001        0.0000000000000000     
  0.31418906000000002       0.43625961000000002        0.0000000000000000     
  0.27223414000000001       0.78063022000000004        0.0000000000000000     
  0.22829299000000000       0.75089561000000005        0.0000000000000000     
  0.26580239000000000       0.42989294000000000        0.0000000000000000     
  0.37369119000000001       0.51975733999999996        0.0000000000000000     
  0.39681665999999999       0.51027884000000001        0.0000000000000000     
  0.32086795000000001       0.65137668999999998        0.0000000000000000     
  0.31757218999999998       0.62987181000000003        0.0000000000000000     
  0.32959777000000001       0.42500900000000003        0.0000000000000000     
  0.24663835000000001       0.74537787000000000        0.0000000000000000     
  0.26354222999999999       0.41075105000000001        0.0000000000000000     
  0.28343712999999998       0.43221330000000002        0.0000000000000000     
  0.34682245000000000       0.43182289000000001        0.0000000000000000     
  0.35306810000000000       0.45344571000000000        0.0000000000000000     
  0.57327218000000002       0.15829040000000000        0.0000000000000000     
  0.51473097999999995       0.12621746000000000        0.0000000000000000     
  0.72829681999999996       0.40151571000000003        0.0000000000000000     
  0.42703184999999999       0.53501600999999999        0.0000000000000000     
  0.32612607999999998       0.75472421999999995        0.0000000000000000     
   9.9814849999999997E-002  0.28081352999999998        0.0000000000000000     
  0.13945825000000001       0.78732252999999996        0.0000000000000000     
  0.44199519999999998       0.38275643999999998        0.0000000000000000     
  0.40132215999999998       0.36508836000000000        0.0000000000000000     
  0.43963142999999999       0.34043466999999999        0.0000000000000000     
  0.47160058999999999       0.33493045999999999        0.0000000000000000     
  0.45615203999999998       0.28038164999999998        0.0000000000000000     
  0.34321279999999998       0.35314412000000001        0.0000000000000000     
  0.29178279000000001       0.56170810000000004        0.0000000000000000     
  0.49833080000000002       0.48416767999999999        0.0000000000000000     
  0.46386271000000001       0.46452802999999998        0.0000000000000000     
  0.44722043000000000       0.45300645000000000        0.0000000000000000     
  0.46562803000000003       0.44419790999999997        0.0000000000000000     
  0.43925322000000000       0.48229485999999999        0.0000000000000000     
  0.49117628000000002       0.45665803999999999        0.0000000000000000     
  0.43435156000000003       0.46523363000000001        0.0000000000000000     
  0.19405754000000000       0.31093060000000000        0.0000000000000000     
  0.22069087000000001       0.66905079000000001        0.0000000000000000     
  0.30776597999999999       0.59042684000000001        0.0000000000000000     
  0.29541507000000000       0.57849362000000004        0.0000000000000000     
  0.28335474999999999       0.61970232999999997        0.0000000000000000     
  0.29935165000000002       0.62852803999999995        0.0000000000000000     
  0.28459435999999999       0.64121777000000002        0.0000000000000000     
  0.26698675999999999       0.63435282999999998        0.0000000000000000     
  0.24031983000000001       0.64700659000000005        0.0000000000000000     
  0.33118850000000000       0.50233682999999996        0.0000000000000000     
  0.35257061000000001       0.51072803000000000        0.0000000000000000     
  0.29038973000000001       0.78732479000000000        0.0000000000000000     
  0.28737915000000003       0.76752330999999996        0.0000000000000000     
  0.21978159000000000       0.73315437000000006        0.0000000000000000     
  0.18119734000000001       0.76257752999999995        0.0000000000000000     
  0.20353571000000001       0.75186065999999996        0.0000000000000000     
  0.39122694000000002       0.49007234000000000        0.0000000000000000     
  0.59140473999999998       0.13507609000000001        0.0000000000000000     
  0.53156702000000000        9.7663528999999999E-002   0.0000000000000000     
  0.76346223999999996       0.39657278000000001        0.0000000000000000     
  0.41119013999999998       0.52354409999999996        0.0000000000000000     
   7.2558165999999993E-002  0.26885883999999999        0.0000000000000000     
  0.10497347000000000       0.79895936000000001        0.0000000000000000     
[...]
 CELL_DATA        2963
 SCALARS Nutrients float
 LOOKUP_TABLE default
    0.37811440502671132435E+02
    0.37702120962244592306E+02
    0.35290420767587711737E+02
    0.37552044734377453494E+02
    0.37097401989706256131E+02
    0.37363941191913909279E+02
    0.37025757036784710863E+02
    0.36507737278213369336E+02
    0.38037052055165851527E+02
    0.91165488095344286990E+01
    0.38588805316616657137E+02
    0.34608307271672309469E+02
    0.34220881909299968981E+02
    0.38281071663899815860E+02
    0.38217825279612654299E+02
    0.33618224506846978272E+02
    0.97740646835491791222E+01
    0.36499652903998885733E+02
    0.37206752799543167498E+02
    0.32255046528075340007E+02
    0.34839151029650516023E+02
    0.10368658582125549472E+02
    0.99896186568593030586E+01
    0.32237034784418789002E+02
    0.25659878235352117315E+02
    0.37637952103290459149E+02
    0.30851547766905479619E+02
    0.37431294516446982357E+02
    0.35557055681855629814E+02
    0.18857066048393956947E+02
    0.36747115216472039378E+02
    0.37558369189242647224E+02
    0.33960698913122271847E+02
    0.21560431830716982660E+02
    0.33458252852835009605E+02
    0.25014393326451283883E+02
    0.34397077858820480856E+02
    0.19331719770602553865E+02
    0.25234194478972842290E+02
    0.31729060987576033881E+02
    0.22529309951190437999E+02
    0.37097333345033334240E+02
    0.29635176185620128564E+02
    0.20563860731035436658E+02
    0.38062279940321438687E+02
    0.13009513641287560048E+02
    0.26365188852467330349E+02
    0.38128925555708093498E+02
    0.18020725269709263472E+02
    0.38168671199278605854E+02
    0.15164282454451086579E+02
    0.12891208686657188665E+02
    0.14550421721252101648E+02
    0.13387894764173690731E+02
    0.34849579419372069822E+02
    0.32943748541886989756E+02
    0.20681172279891445243E+02
    0.14204530837588812631E+02
    0.97335097270263926106E+01
    0.36348927596209307467E+02
    0.10555844560549962452E+02
    0.38398886254169646293E+02
    0.38446045899626575704E+02
    0.37409181554427895833E+02
    0.37621285833048922598E+02
    0.11652623184681567992E+02
    0.35251227622327405697E+02
    0.10048989145892820218E+02
    0.22598788208089089835E+02
    0.36492947241402745817E+02
    0.23792659031554482141E+02
    0.11264189309332303779E+02
    0.30373468426698689626E+02
    0.29719184108707661807E+02
    0.91993420495949269622E+01
    0.92356764473560364337E+01
    0.97690224669981642336E+01
    0.94171428397046366143E+01
    0.15411950481487993514E+02
    0.12081716142614494558E+02
    0.37781315740441058892E+02
    0.14518512825153157664E+02
    0.10123231688668106187E+02
    0.89334039145681423122E+01
    0.17601333940230308173E+02
    0.34204591117161513125E+02
    0.36019904996614940274E+02
    0.30582774520699921084E+02
    0.29356541960295892579E+02
    0.37803831667733668098E+02
    0.30607012254508106253E+02
    0.14750923763919699283E+02
    0.98964394220284912507E+01
    0.13723719991795981343E+02
    0.21388086560595628072E+02
    0.16138089294199723156E+02
    0.99043546043532089129E+01
    0.31698593586146532886E+02
    0.17270422456774920050E+02
    0.34950341796412850215E+02
    0.31559495953686731440E+02
    0.28979518277319037622E+02
    0.14459053242097127168E+02
    0.33104212089308873601E+02
    0.34534973286688895655E+02
    0.37004360268405619649E+02
    0.33260048991129863794E+02
    0.37764951035118173195E+02
    0.13867093226880971457E+02
    0.35341997553619918904E+02
    0.35783720207809764702E+02
    0.34978550624145405834E+02
    0.29193403353700727365E+02
    0.35702815284114691963E+02
    0.38232392188899254393E+02
    0.35417107664797633504E+02
    0.38342677921880287784E+02
    0.38591223968142202239E+02
    0.89485323031869512533E+01
    0.10634302933667218127E+02
    0.34918156481657256052E+02
    0.37445330761819199950E+02
    0.12795993824631851865E+02
    0.20817582167561418771E+02
    0.14001223910241407111E+02
    0.24006773380716154520E+02
    0.37263946559040661555E+02
    0.12447263176698099230E+02
    0.36736919181469595230E+02
    0.98007589916484505466E+01
    0.15613988279591179520E+02
    0.14663776920111363467E+02
    0.30535082377124485475E+02
    0.15454053709206050371E+02
    0.32591798250936300008E+02
    0.11011029805426712613E+02
    0.10981140943070011318E+02
    0.37549409138184692836E+02
    0.37004573882973218701E+02
    0.36668142586564862029E+02
    0.96326270769314614739E+01
    0.18207080386024969698E+02
    0.17347355127573742095E+02
    0.11421488168719518441E+02
    0.12239114123421801494E+02
    0.16956984664377930727E+02
    0.34704248792959305092E+02
    0.15938036725138799099E+02
    0.36243862740168829362E+02
    0.26517152288930564197E+02
    0.37817956858975094292E+02
    0.19591699381131707725E+02
    0.11980893664582456637E+02
    0.17679537268247653259E+02
    0.27570327632603987666E+02
    0.14730490777528229884E+02
    0.13897402888248150177E+02
    0.28062500013715148128E+02
    0.27723093755462969057E+02
    0.27515452342977184230E+02
    0.27848861543650997419E+02
    0.31149564345087938477E+02
    0.20632414844941489918E+02
    0.33450182008723167826E+02
    0.34712523560488207863E+02
    0.13046626477487359708E+02
    0.13579098368432717336E+02
    0.14466374905050622957E+02
    0.91049776443421439609E+01
    0.15361241875672027035E+02
    0.89805706688477897615E+01
    0.28109731783947026429E+02
    0.16600665683681391727E+02
    0.16492604843551621485E+02
    0.14343364541236377718E+02
    0.13543319738245866546E+02
    0.32582526724188120681E+02
    0.33909298865898797715E+02
    0.37820356349101352578E+02
    0.12800831227934757806E+02
    0.91593448426747006152E+01
    0.23296081348849156711E+02
    0.26740501615501433008E+02
    0.36025762058332468030E+02
    0.14738986640897403291E+02
    0.15248491790025306969E+02
    0.34292815601411057003E+02
    0.37780789905044926513E+02
    0.11466398040373181999E+02
    0.22267004096315009321E+02
    0.37437748300478340013E+02
    0.27615948805880979222E+02
    0.36896565692824864868E+02
    0.12648560407668727024E+02
    0.33978354264557083297E+02
    0.13438118482812051013E+02
    0.30779087196184178765E+02
    0.15527580428302089288E+02
    0.31619293903230108356E+02
    0.13769845487110519144E+02
    0.24008971003827511481E+02
    0.22360850364786987399E+02
    0.35423623440876028212E+02
    0.15649806390201987938E+02
    0.11135220665469088175E+02
    0.10549291612317633238E+02
    0.17856301211746810509E+02
    0.10423709810200881165E+02
    0.23401353303556817309E+02
    0.12698726336890892696E+02
    0.13316684091568340875E+02
    0.10524066327812532151E+02
    0.11336569521165030139E+02
    0.37892914176883060406E+02
    0.37778929432956680046E+02
    0.34403270390624669517E+02
    0.21708713744025139647E+02
    0.35073434912250398554E+02
    0.34835166450572032204E+02
    0.11109040778141563877E+02
    0.37600043500324815682E+02
    0.37775003518846524742E+02
    0.37802126559266035599E+02
    0.98182247444952182036E+01
    0.10225498759474378474E+02
    0.37575576092777424719E+02
    0.37297345542391042272E+02
    0.15853414455131538574E+02
    0.15720204181673508970E+02
    0.33965807975948351327E+02
    0.14888250328484978979E+02
    0.28518372509478627563E+02
    0.35302789849828343449E+02
    0.35089299055589812326E+02
    0.27782510051888770874E+02
    0.34722784547658982035E+02
    0.37777799884540378628E+02
    0.33366030397058594303E+02
    0.12712590770774344406E+02
    0.19997711013924480028E+02
    0.10834261138207967434E+02
    0.19934461292344117567E+02
    0.32789340371566041199E+02
    0.31018262873864223650E+02
    0.94797635969767188868E+01
    0.37608919893034098436E+02
    0.34841446273263464661E+02
    0.12428524208241045201E+02
    0.37281371835337608900E+02
    0.27657669750823206556E+02
    0.89467072617324472361E+01
    0.33434614042167751791E+02
    0.37857500987480371180E+02
    0.16963244178037442111E+02
    0.16171467063127536790E+02
    0.26045316825630795421E+02
    0.16458056629400942938E+02
    0.37404849838288782848E+02
    0.91078144962534697271E+01
    0.30378701605346261516E+02
    0.89906064596653614274E+01
    0.90473035972545439165E+01
    0.90100412431769232313E+01
    0.18623150381235141992E+02
    0.94492576900560276698E+01
    0.13351978354182485020E+02
    0.14768005086819876226E+02
    0.91222609342450162728E+01
    0.18823028856664727471E+02
    0.10027004675515900800E+02
    0.33861267424585868469E+02
    0.34634321516813912467E+02
    0.91918774848723394655E+01
    0.16756987046795849494E+02
    0.17061252937310989353E+02
    0.36224050580922600773E+02
    0.21689908829308709670E+02
    0.32105228735483656521E+02
    0.12615399844574570309E+02
    0.15651940789386564745E+02
    0.36969426296394800602E+02
    0.13392047404434721969E+02
    0.35601079180472289920E+02
    0.33264797398230911085E+02
    0.15701151152879196715E+02
    0.13054114695744445385E+02
    0.32210665651093719930E+02
    0.15856979337947265662E+02
    0.36941187659671278709E+02
    0.34100983531201038090E+02
    0.34448735178659077860E+02
    0.34262026012888071591E+02
    0.24858503295153262513E+02
    0.37733186079380701017E+02
    0.21889576367605503293E+02
    0.32916663141645557289E+02
    0.14878449400856730733E+02
    0.29421373208362030738E+02
    0.13084335471085937641E+02
    0.21871802747003453504E+02
    0.19697385444717237846E+02
    0.20438603207931265615E+02
    0.30176919790192478388E+02
    0.37001033660929593339E+02
    0.35577346069058840783E+02
    0.13010075398487954246E+02
    0.14945489440908124479E+02
    0.21481624214723151312E+02
    0.12540905864504388489E+02
    0.32131799178094624381E+02
    0.10205476566850856912E+02
    0.17693891338019728465E+02
    0.33298594502762817626E+02
    0.17469378094573325910E+02
    0.34534896733933656776E+02
    0.38197752855295533436E+02
    0.15559954999905317052E+02
    0.36125770392206753456E+02
    0.34980824590964772369E+02
    0.35692983984854706137E+02
    0.34269768108228305437E+02
    0.34677551013718797890E+02
    0.35703098852236557548E+02
    0.34718244136510257647E+02
    0.38673611806582471218E+02
    0.34995501315861986313E+02
    0.37450230514552117711E+02
    0.29011725738211591619E+02
    0.36015273869094293957E+02
    0.38449107671017706878E+02
    0.10261124689224365270E+02
    0.11167688822882906763E+02
    0.38573231675574056965E+02
    0.38474430777378366031E+02
    0.17933110508002787498E+02
    0.21777395292573899610E+02
    0.15028917880708226207E+02
    0.32510315029907786766E+02
    0.36780836010061719321E+02
    0.32755349518913867257E+02
    0.35188364940238329837E+02
    0.36868912534056732966E+02
    0.36642433460820114988E+02
    0.36038455291803671798E+02
    0.89841457750415241179E+01
    0.16362340838633144813E+02
    0.13202406164591351967E+02
    0.35329044831404658566E+02
    0.33871109354744355358E+02
    0.37212322850264605734E+02
    0.37158326409226496878E+02
    0.35822872870526445865E+02
    0.35979200580269761645E+02
    0.14138659110747704872E+02
    0.13116054802515710875E+02
    0.13211963513357765976E+02
    0.15736138844890657396E+02
    0.14639862548660408592E+02
    0.16243219228445237690E+02
    0.17183816846018739710E+02
    0.15479686328724437061E+02
    0.17145637218422528747E+02
    0.25461049169653609425E+02
    0.19005788008664826094E+02
    0.13550490412523238604E+02
    0.16781983623163526431E+02
    0.16255221367067555605E+02
    0.14740777084699983490E+02
    0.17461002108787067044E+02
    0.96004817077213324694E+01
    0.10657937772421421485E+02
    0.99239797959827953377E+01
    0.10207663960647566981E+02
    0.10158941640805704054E+02
    0.11517229323506231964E+02
    0.12392166176207277672E+02
    0.10986331522389265913E+02
    0.93804095247078276287E+01
    0.11173288189532852854E+02
    0.13476294563830370166E+02
    0.10175621630859827960E+02
    0.94216550035158235232E+01
    0.33956328708040622644E+02
    0.34384166227733885535E+02
    0.31519033720848078417E+02
    0.21489699781060977557E+02
    0.14254769484434246962E+02
    0.13446403339962349932E+02
    0.16151242827506727906E+02
    0.13368337727115722657E+02
    0.15423457685651122517E+02
    0.16832374599410531602E+02
    0.16600925825286676485E+02
    0.15789039675768380633E+02
    0.17281503485036370904E+02
    0.19162609457180067807E+02
    0.26096425632553060581E+02
    0.18244999859312475365E+02
    0.36836851731780058117E+02
    0.20567370285107621442E+02
    0.11025789515525133311E+02
    0.98322897257637844604E+01
    0.92962763852658927277E+01
    0.95474192243912110456E+01
    0.36626295620870855885E+02
    0.36129186046002345734E+02
    0.35493941213616473362E+02
    0.34326154229199325130E+02
    0.33725409856935023356E+02
    0.34918883088954210336E+02
    0.35447209397523309349E+02
    0.37106739451249701744E+02
    0.35864804403603358196E+02
    0.36544380344537565009E+02
    0.89699520925688247530E+01
    0.89410645826888668353E+01
    0.37973727850215936996E+02
    0.95924705634426370437E+01
    0.37679825111614555055E+02
    0.37776655977802711561E+02
    0.37297906103494838703E+02
    0.36966098008556038224E+02
    0.37641941199501829374E+02
    0.95293472836701607065E+01
    0.92762313231897568500E+01
    0.37682166298442410834E+02
    0.33483797398762369824E+02
    0.37166145644409006366E+02
    0.37416064698097130758E+02
    0.37938172477167803720E+02
    0.13855031351036370069E+02
    0.13739620425390080882E+02
    0.13066218652254612209E+02
    0.14175581347707831625E+02
    0.15329564750666969886E+02
    0.13886722402786269015E+02
    0.13244505633630240027E+02
    0.12649643342190890039E+02
    0.12704720601519174039E+02
    0.12620898453138019946E+02
    0.13029307089002116982E+02
    0.12921061123375446655E+02
    0.16960965592461416662E+02
    0.19990408883552607477E+02
    0.15811681021983261530E+02
    0.15751744808038058210E+02
    0.16766110955267180316E+02
    0.16371084660709279035E+02
    0.18775506955568395995E+02
    0.23686058239516007973E+02
    0.18387551024701831892E+02
    0.28090440829130958633E+02
    0.25857553258715721967E+02
    0.28273298355068515519E+02
    0.13296687549398578554E+02
    0.14157371753227137035E+02
    0.11975693781664602966E+02
    0.13719907352525197552E+02
    0.13148475878884680057E+02
    0.12844737931238588757E+02
    0.15943341532976651465E+02
    0.12589931420741157453E+02
    0.17544067833436933768E+02
    0.14427568529115925244E+02
    0.34713102571782982864E+02
    0.36085992762186123173E+02
    0.34722189949074063975E+02
    0.34697654696640057637E+02
    0.33590263554600035434E+02
    0.32650755063729057781E+02
    0.34370922001481510222E+02
    0.26443361345670897578E+02
    0.18126738002101600244E+02
    0.17431676774473292113E+02
    0.25301711942792735499E+02
    0.29475273502276543525E+02
    0.21302915259120531744E+02
    0.18293594654639832697E+02
    0.21087673029176361439E+02
    0.14265117297863978862E+02
    0.18596608027689118359E+02
    0.17111058927511585637E+02
    0.11508416393664925081E+02
    0.98740905901943847311E+01
    0.12587665650119074456E+02
    0.11742898568665488312E+02
    0.10331629733613532096E+02
    0.98565506574966690323E+01
    0.10404615174372086273E+02
    0.11289162952256063477E+02
    0.10632364688207184500E+02
    0.10562372772110304453E+02
    0.33887600916594522005E+02
    0.34258594669935476418E+02
    0.37208653787044660533E+02
    0.36062000290534754754E+02
    0.33631059538985361712E+02
    0.34822322994805567475E+02
    0.91253738431512587681E+01
    0.93183730002199283149E+01
    0.37785793249174943753E+02
    0.37763927666871694555E+02
    0.37749757810467549746E+02
    0.37466495909291744226E+02
    0.37582975483720403531E+02
    0.37642348927368267653E+02
    0.37327315898015875462E+02
    0.37819453669609181645E+02
    0.15509433969447323776E+02
    0.23508957856724904900E+02
    0.19155864920305436527E+02
    0.25355191320256952991E+02
    0.18950119289165165526E+02
    0.18508584177946460159E+02
    0.17298518862499204118E+02
    0.15338928781359069120E+02
    0.34283989098716212141E+02
    0.34983439650674917232E+02
    0.33443695860550000987E+02
    0.33889621465913542409E+02
    0.29033801878239209771E+02
    0.28176456499495259322E+02
    0.29928557806337188651E+02
    0.23951658414319808799E+02
    0.17389388858379607683E+02
    0.15612411030554268265E+02
    0.19653817159906367351E+02
    0.16515439531035340792E+02
    0.17007062033790607103E+02
    0.12395140534364113449E+02
    0.15307631665726987080E+02
    0.14315765156035332950E+02
    0.96166114565166171957E+01
    0.10487923736860368606E+02
    0.95808846260447531051E+01
    0.10212534148714874860E+02
    0.96299162612319992860E+01
    0.93663055792503993047E+01
    0.11866084114779793524E+02
    0.10287731031774104196E+02
    0.12742807781038756332E+02
    0.11686402062330154550E+02
    0.13616245119009864339E+02
    0.19182335650710705011E+02
    0.13233494302390795383E+02
    0.12784764603853917109E+02
    0.13413824644685670151E+02
    0.14225802871425351270E+02
    0.37025717160926589600E+02
    0.37273411032652489894E+02
    0.36548639832219535606E+02
    0.38382126056854815488E+02
    0.37714210961913181563E+02
    0.37000335246631799180E+02
    0.36720700575750647943E+02
    0.37296039580094024757E+02
    0.36771341147171689556E+02
    0.36707794912053401504E+02
    0.35755057013076665839E+02
    0.36276962810685638772E+02
    0.36023008150623780921E+02
    0.34747150225519888522E+02
    0.14790496520197715213E+02
    0.18799904369416399419E+02
    0.20515094208296346778E+02
    0.21832985801349337862E+02
    0.20733304492847775435E+02
    0.28651546471624801171E+02
    0.25028489123755530699E+02
    0.20865298986572028639E+02
    0.18731704649897178427E+02
    0.15845975033981472890E+02
    0.19403774657628225953E+02
    0.24882652102530503413E+02
    0.21551832401033554021E+02
    0.20141615575860953413E+02
    0.24982397178445218344E+02
    0.29323245319450549573E+02
    0.26904279218211609503E+02
    0.21374827196661858153E+02
    0.12200865680357885878E+02
    0.19239557921123395801E+02
    0.16372145549977489054E+02
    0.20549279366125407620E+02
    0.19698646438347289234E+02
    0.17133714957833579007E+02
    0.21330896012777408544E+02
    0.23144741460889036944E+02
    0.15185147419774168043E+02
    0.14702207998125047084E+02
    0.16254111625262943619E+02
    0.13881349390110377939E+02
    0.18733779970833126072E+02
    0.14640723530943933639E+02
    0.13391065539875175006E+02
    0.12782430295783454355E+02
    0.14019873724933528791E+02
    0.13413258257065704626E+02
    0.10264775746390208511E+02
    0.96887651288979252939E+01
    0.92015385730869727610E+01
    0.95425281288634504762E+01
    0.90259288657748335538E+01
    0.91200388998317958311E+01
    0.10541938804187719114E+02
    0.11179925775693581258E+02
    0.37190315130324485438E+02
    0.36954369479921773234E+02
    0.12554023464070251492E+02
    0.13935070579209291708E+02
    0.21308807288172200600E+02
    0.18554621279377261800E+02
    0.29528998530123789834E+02
    0.19045947327592244847E+02
    0.19486103751671532081E+02
    0.14847108170773466895E+02
    0.23528945304277936401E+02
    0.20677970093092422843E+02
    0.36343141273107448797E+02
    0.35781387829200760109E+02
    0.17978642313314239232E+02
    0.19937863080452014941E+02
    0.37355599823831170170E+02
    0.36657411830544504028E+02
    0.37625353033996098873E+02
    0.37139011282219456689E+02
    0.36740260458803085442E+02
    0.35414817541338607043E+02
    0.28779055103086228939E+02
    0.33375442120686287240E+02
    0.27516893760259442558E+02
    0.28623793434925534740E+02
    0.29308557101057925109E+02
    0.28503787751634952485E+02
    0.32332257599285917138E+02
    0.30322062316159705375E+02
    0.17903092406111134949E+02
    0.26703267268288200853E+02
    0.15242509662469920784E+02
    0.19427003127577066266E+02
    0.21201565153099153349E+02
    0.29094598742944210557E+02