# vtk DataFile Version 3.0
LAPLACIEN  2D
ASCII
DATASET UNSTRUCTURED_GRID
 POINTS        1616  float
  0.45880792999999997       0.87913892999999999        0.0000000000000000     
  0.40372658000000000       0.18243693000000000        0.0000000000000000     
  0.52563972999999997       0.19039755999999999        0.0000000000000000     
  0.45642953000000003       0.24226190000000000        0.0000000000000000     
  0.51984098000000001       0.24548566999999999        0.0000000000000000     
  0.21212766999999999       0.18957676000000001        0.0000000000000000     
  0.28573643999999998       0.48586826999999999        0.0000000000000000     
  0.49667887999999999       0.82979849000000006        0.0000000000000000     
  0.22848407000000001       0.23366793000000000        0.0000000000000000     
  0.27860389000000002       0.86069733000000004        0.0000000000000000     
  0.36563702999999997       0.80971340999999997        0.0000000000000000     
  0.28045499000000002       0.80393031999999998        0.0000000000000000     
  0.40374228000000001       0.78127665000000002        0.0000000000000000     
  0.56160891999999996       0.55341227999999998        0.0000000000000000     
  0.37210935000000001       0.26787699999999998        0.0000000000000000     
  0.49899838000000002       0.57286409999999999        0.0000000000000000     
  0.41023869000000002       0.33464665999999998        0.0000000000000000     
  0.33484156999999998       0.29151022999999998        0.0000000000000000     
  0.46758665999999999       0.58262307999999996        0.0000000000000000     
  0.43303693999999998       0.36569945999999998        0.0000000000000000     
  0.25741280000000000       0.61805882999999995        0.0000000000000000     
  0.28853707000000001       0.59423020000000004        0.0000000000000000     
  0.67837254000000002       0.45038665999999999        0.0000000000000000     
  0.42159046000000000       0.50697913999999999        0.0000000000000000     
  0.60276470999999998       0.73940291000000002        0.0000000000000000     
  0.30758273000000003       0.77844542000000005        0.0000000000000000     
  0.45367541000000000       0.31842187000000000        0.0000000000000000     
  0.36974101999999998       0.35807864000000000        0.0000000000000000     
  0.26919625000000003       0.65312176000000000        0.0000000000000000     
  0.61908110999999999       0.42741791000000001        0.0000000000000000     
  0.54442267000000000       0.74200747000000000        0.0000000000000000     
  0.58930464999999999       0.41588288000000001        0.0000000000000000     
  0.51511633000000001       0.74331579000000003        0.0000000000000000     
  0.12878382999999999       0.33122940000000001        0.0000000000000000     
  0.15534365000000000       0.71749246000000000        0.0000000000000000     
  0.64877724999999997       0.30161799000000000        0.0000000000000000     
  0.58853643000000000       0.28101930000000003        0.0000000000000000     
  0.56390348000000001       0.30132482999999999        0.0000000000000000     
  0.29605991999999998       0.44474459999999999        0.0000000000000000     
  0.29900669000000002       0.52983276000000001        0.0000000000000000     
  0.55954318999999997       0.48654808999999999        0.0000000000000000     
  0.42341458999999998       0.38785072999999998        0.0000000000000000     
  0.45806291999999998       0.35892998999999998        0.0000000000000000     
  0.47820750000000001       0.31147424000000001        0.0000000000000000     
  0.36344222999999998       0.38139388000000002        0.0000000000000000     
  0.17186508000000000       0.28159534000000003        0.0000000000000000     
  0.18029876000000000       0.33292397000000001        0.0000000000000000     
  0.20696366999999999       0.71822465999999996        0.0000000000000000     
  0.61326404999999995       0.34468346000000000        0.0000000000000000     
  0.29887186999999998       0.42337377999999998        0.0000000000000000     
  0.33271837999999998       0.44383096000000000        0.0000000000000000     
  0.31835012000000001       0.54267131999999996        0.0000000000000000     
  0.54882964999999995       0.45462609999999998        0.0000000000000000     
  0.20448143999999999       0.28717446000000002        0.0000000000000000     
  0.20634120000000000       0.33378063000000002        0.0000000000000000     
  0.23301781999999999       0.71859421999999995        0.0000000000000000     
  0.58606499999999995       0.35199907000000002        0.0000000000000000     
  0.20841100000000001       0.45369578999999999        0.0000000000000000     
  0.24778198000000001       0.77708496000000005        0.0000000000000000     
  0.30748062999999998       0.61002621000000001        0.0000000000000000     
  0.23337332000000000       0.41981835000000001        0.0000000000000000     
  0.25985113999999998       0.75924943000000000        0.0000000000000000     
  0.24610213000000000       0.40254353999999998        0.0000000000000000     
  0.37350351999999998       0.50127178999999999        0.0000000000000000     
  0.43235204999999999       0.78236391000000005        0.0000000000000000     
  0.30749858000000002       0.28582627999999999        0.0000000000000000     
  0.30336816000000000       0.64635111000000001        0.0000000000000000     
  0.31418906000000002       0.43625961000000002        0.0000000000000000     
  0.27223414000000001       0.78063022000000004        0.0000000000000000     
  0.22829299000000000       0.75089561000000005        0.0000000000000000     
  0.26580239000000000       0.42989294000000000        0.0000000000000000     
  0.37369119000000001       0.51975733999999996        0.0000000000000000     
  0.39681665999999999       0.51027884000000001        0.0000000000000000     
  0.32086795000000001       0.65137668999999998        0.0000000000000000     
  0.31757218999999998       0.62987181000000003        0.0000000000000000     
  0.32959777000000001       0.42500900000000003        0.0000000000000000     
  0.24663835000000001       0.74537787000000000        0.0000000000000000     
  0.26354222999999999       0.41075105000000001        0.0000000000000000     
  0.28343712999999998       0.43221330000000002        0.0000000000000000     
  0.34682245000000000       0.43182289000000001        0.0000000000000000     
  0.35306810000000000       0.45344571000000000        0.0000000000000000     
  0.57327218000000002       0.15829040000000000        0.0000000000000000     
  0.51473097999999995       0.12621746000000000        0.0000000000000000     
  0.72829681999999996       0.40151571000000003        0.0000000000000000     
  0.42703184999999999       0.53501600999999999        0.0000000000000000     
  0.32612607999999998       0.75472421999999995        0.0000000000000000     
   9.9814849999999997E-002  0.28081352999999998        0.0000000000000000     
  0.13945825000000001       0.78732252999999996        0.0000000000000000     
  0.44199519999999998       0.38275643999999998        0.0000000000000000     
  0.40132215999999998       0.36508836000000000        0.0000000000000000     
  0.43963142999999999       0.34043466999999999        0.0000000000000000     
  0.47160058999999999       0.33493045999999999        0.0000000000000000     
  0.45615203999999998       0.28038164999999998        0.0000000000000000     
  0.34321279999999998       0.35314412000000001        0.0000000000000000     
  0.29178279000000001       0.56170810000000004        0.0000000000000000     
  0.49833080000000002       0.48416767999999999        0.0000000000000000     
  0.46386271000000001       0.46452802999999998        0.0000000000000000     
  0.44722043000000000       0.45300645000000000        0.0000000000000000     
  0.46562803000000003       0.44419790999999997        0.0000000000000000     
  0.43925322000000000       0.48229485999999999        0.0000000000000000     
  0.49117628000000002       0.45665803999999999        0.0000000000000000     
  0.43435156000000003       0.46523363000000001        0.0000000000000000     
  0.19405754000000000       0.31093060000000000        0.0000000000000000     
  0.22069087000000001       0.66905079000000001        0.0000000000000000     
  0.30776597999999999       0.59042684000000001        0.0000000000000000     
  0.29541507000000000       0.57849362000000004        0.0000000000000000     
  0.28335474999999999       0.61970232999999997        0.0000000000000000     
  0.29935165000000002       0.62852803999999995        0.0000000000000000     
  0.28459435999999999       0.64121777000000002        0.0000000000000000     
  0.26698675999999999       0.63435282999999998        0.0000000000000000     
  0.24031983000000001       0.64700659000000005        0.0000000000000000     
  0.33118850000000000       0.50233682999999996        0.0000000000000000     
  0.35257061000000001       0.51072803000000000        0.0000000000000000     
  0.29038973000000001       0.78732479000000000        0.0000000000000000     
  0.28737915000000003       0.76752330999999996        0.0000000000000000     
  0.21978159000000000       0.73315437000000006        0.0000000000000000     
  0.18119734000000001       0.76257752999999995        0.0000000000000000     
  0.20353571000000001       0.75186065999999996        0.0000000000000000     
  0.39122694000000002       0.49007234000000000        0.0000000000000000     
  0.59140473999999998       0.13507609000000001        0.0000000000000000     
  0.53156702000000000        9.7663528999999999E-002   0.0000000000000000     
  0.76346223999999996       0.39657278000000001        0.0000000000000000     
  0.41119013999999998       0.52354409999999996        0.0000000000000000     
   7.2558165999999993E-002  0.26885883999999999        0.0000000000000000     
  0.10497347000000000       0.79895936000000001        0.0000000000000000     
[...]
 CELL_DATA        2963
 SCALARS Nutrients float
 LOOKUP_TABLE default
    0.36669469717352306759E+02
    0.36540355093292191668E+02
    0.33792614642648985068E+02
    0.36362518274976252997E+02
    0.35831071275224054773E+02
    0.36134875241430847836E+02
    0.35743715086605561737E+02
    0.35162314790407627640E+02
    0.36939465208839187937E+02
    0.10859396114468962580E+02
    0.37600150945396372038E+02
    0.33074382838914409888E+02
    0.32778248271853890117E+02
    0.37234543509672043626E+02
    0.37155728365436850424E+02
    0.32238877306884504037E+02
    0.11664638986761348249E+02
    0.35128411155178781655E+02
    0.35946263676512259622E+02
    0.31000792247764906051E+02
    0.33293178569605338168E+02
    0.12082698901561837346E+02
    0.11234640866268350123E+02
    0.30828892754989965397E+02
    0.26364351174136221090E+02
    0.36461770633462180058E+02
    0.29907173015733700794E+02
    0.36214628123212179389E+02
    0.34079002664578894155E+02
    0.21259057480666058382E+02
    0.35424259444859920620E+02
    0.36370952030508910013E+02
    0.32420975809412404089E+02
    0.23200296693870235742E+02
    0.32032830188583687914E+02
    0.25879432357827251820E+02
    0.32875935375046033471E+02
    0.21373626999651101244E+02
    0.26214873398856465059E+02
    0.30467783533013275132E+02
    0.24318646496590574202E+02
    0.35830865880675027313E+02
    0.28420621355336130875E+02
    0.22643238062599298388E+02
    0.36969892548915773034E+02
    0.15263775726006691968E+02
    0.26961033370567506040E+02
    0.37049360643166863838E+02
    0.20531220252431705120E+02
    0.37096975373771172713E+02
    0.17487508042221126203E+02
    0.15383297958793106019E+02
    0.17189732408901338800E+02
    0.15924470429327771015E+02
    0.33327577324618687271E+02
    0.31467261184264856411E+02
    0.22863609816784990159E+02
    0.16740189012312850281E+02
    0.11628896313167725651E+02
    0.35089352755091837821E+02
    0.12571706819350342954E+02
    0.37372886982741135853E+02
    0.37429930293375761607E+02
    0.36195777281352356169E+02
    0.36490357668622905862E+02
    0.13797076726074362085E+02
    0.34061241049233615286E+02
    0.11995230226455650069E+02
    0.23456444447293485212E+02
    0.35141514586535642195E+02
    0.25260368976875060554E+02
    0.13369319381494648269E+02
    0.32116726521215213097E+02
    0.28923574040260220386E+02
    0.10965347567112383231E+02
    0.11008569439500274001E+02
    0.11385350414898137927E+02
    0.11248909027130446603E+02
    0.18074093641747342787E+02
    0.14263855734565337841E+02
    0.36635564661487109106E+02
    0.16831461011576177356E+02
    0.12077805439133927123E+02
    0.10556370410942326643E+02
    0.19899074370201095263E+02
    0.32483969888383604996E+02
    0.34529849313571972402E+02
    0.28975907609062446113E+02
    0.28857454439326552631E+02
    0.36660465426433873404E+02
    0.29407276796895057913E+02
    0.17073657169721450089E+02
    0.11260091011597074484E+02
    0.16217862808723712220E+02
    0.22833266252077951464E+02
    0.18507667876081871583E+02
    0.11552125141565298350E+02
    0.30435041757141942043E+02
    0.19848662260111421318E+02
    0.33635549655670267555E+02
    0.32637797541864280504E+02
    0.28044856911600685834E+02
    0.16786096320485668798E+02
    0.31709964344997285224E+02
    0.33105963844022653575E+02
    0.35713844300326243797E+02
    0.31791778502995171607E+02
    0.36613716028378910039E+02
    0.16168871042697777085E+02
    0.33929573465726527104E+02
    0.34317999064315479529E+02
    0.33909287840311485240E+02
    0.28705292147924062363E+02
    0.34384505633624769416E+02
    0.37177906794234985455E+02
    0.34365566307212205288E+02
    0.37305338311440891630E+02
    0.37603072969934729031E+02
    0.10607870657764108202E+02
    0.12686379351774881741E+02
    0.34029416437067119716E+02
    0.36240285080429380571E+02
    0.15271752921647133050E+02
    0.22566751990759215118E+02
    0.16604230337565979880E+02
    0.24804800494012628320E+02
    0.36014865499861990372E+02
    0.14661534466034177981E+02
    0.35417464458829492457E+02
    0.11703665186942128429E+02
    0.18262910321362728183E+02
    0.17180281354654621140E+02
    0.29421672825300309029E+02
    0.18103643785742544736E+02
    0.31109701837985095807E+02
    0.13128264547758451641E+02
    0.13088841243270961101E+02
    0.36359749329569737597E+02
    0.35748693139361854776E+02
    0.35337708023337498275E+02
    0.11510419915598264495E+02
    0.20466299870516618142E+02
    0.18513474126756861438E+02
    0.13605849130277469783E+02
    0.14532245494104873984E+02
    0.19448466630176326930E+02
    0.33043296557673393465E+02
    0.18561268883675261065E+02
    0.35065372630997941883E+02
    0.26236677545877071793E+02
    0.36700754349698705425E+02
    0.20516764096748637769E+02
    0.14230692720835964593E+02
    0.20049641008771882156E+02
    0.31019538311872544512E+02
    0.17355080177403710451E+02
    0.16482578301233814955E+02
    0.31229891610115238620E+02
    0.31099487647259760337E+02
    0.31001240153752803508E+02
    0.31139411214160848118E+02
    0.32479495964076349424E+02
    0.22340061635652389782E+02
    0.32102887618927503866E+02
    0.33340686883464094592E+02
    0.15408272352670145722E+02
    0.16141352458905977585E+02
    0.17041781067858220666E+02
    0.10820506780925954970E+02
    0.18005062109414303961E+02
    0.10538950298306454911E+02
    0.31275399374849826017E+02
    0.19224787397744211859E+02
    0.18777243710665509013E+02
    0.16955159221289424210E+02
    0.16098405795518839767E+02
    0.30964058640261178823E+02
    0.32511090507123846294E+02
    0.36680305514367759656E+02
    0.15279970187713209029E+02
    0.10904738492098136504E+02
    0.24821625856366221541E+02
    0.27058557181708920325E+02
    0.34943065836752474240E+02
    0.17369315118627024930E+02
    0.17890758888518053737E+02
    0.32746537218178097817E+02
    0.36632918126848935003E+02
    0.13644672123711997003E+02
    0.24134581232175708720E+02
    0.36228349877943159640E+02
    0.26974898211780999446E+02
    0.35577015794565127749E+02
    0.15105853841935878989E+02
    0.32582941399487879153E+02
    0.15985428198905552222E+02
    0.30036967240689694592E+02
    0.18038351863444955114E+02
    0.30624768536594743296E+02
    0.16340185394750225356E+02
    0.25180418934084539018E+02
    0.24157689506764405962E+02
    0.33935052716208481627E+02
    0.17965984697116134328E+02
    0.12374820834112904677E+02
    0.11844305169648183806E+02
    0.20055362018936225610E+02
    0.11771209992398096844E+02
    0.24319445221474939700E+02
    0.15162236079646220333E+02
    0.15850672881402392278E+02
    0.12148663561795219223E+02
    0.12688737994272036858E+02
    0.36767044955981937449E+02
    0.36631128800947713842E+02
    0.32942895125223301989E+02
    0.23196712422430348255E+02
    0.33627528611854245355E+02
    0.33397141405235949208E+02
    0.13196208729141613247E+02
    0.36419778049765504591E+02
    0.36626327673936273754E+02
    0.36659289314274246863E+02
    0.11727757281213323282E+02
    0.12198798770328016516E+02
    0.36390321232069744894E+02
    0.36062852309359179515E+02
    0.18431937230539983119E+02
    0.18333584226127918271E+02
    0.32552343132780549695E+02
    0.17491132527194935165E+02
    0.28317496406285282973E+02
    0.33916647051361742626E+02
    0.33618835843628751547E+02
    0.27592720902263966565E+02
    0.33234859260294754790E+02
    0.36629046347393057204E+02
    0.32059308321382097517E+02
    0.14139201079235613534E+02
    0.21232014548489757999E+02
    0.12889181902161164217E+02
    0.22190899829615116090E+02
    0.31372151546917201870E+02
    0.30128987048242166225E+02
    0.10972144033569069421E+02
    0.36426955197996043978E+02
    0.33344918253857322554E+02
    0.14762054513555090907E+02
    0.36035281566977801049E+02
    0.27812544014889283517E+02
    0.10587301228167632416E+02
    0.31977373552660999678E+02
    0.36724618272081215764E+02
    0.18241775430923748758E+02
    0.18774749488253899443E+02
    0.25897738058761614610E+02
    0.18741055544763717933E+02
    0.36184052386998374118E+02
    0.10630775635433311166E+02
    0.29284241771958487988E+02
    0.10556208696011097459E+02
    0.10678267566623775409E+02
    0.10667161970099650503E+02
    0.21068842121871568906E+02
    0.10871100658037585518E+02
    0.15886610769821473355E+02
    0.16039282060141655251E+02
    0.10721156291224930968E+02
    0.20894992005357931220E+02
    0.11395790556639742164E+02
    0.32369228820748318753E+02
    0.33154335908910432806E+02
    0.10727156998930702514E+02
    0.19213191153740023509E+02
    0.19394007856182966520E+02
    0.34814196962044952954E+02
    0.23649095910650888896E+02
    0.30688024646933317996E+02
    0.15068181101592816873E+02
    0.18231379879866675964E+02
    0.35670771377501765187E+02
    0.15851079755860491005E+02
    0.34187677429825377828E+02
    0.33189706869915973186E+02
    0.18242338983461237945E+02
    0.15566124072069811746E+02
    0.31135795319842706874E+02
    0.18418792205074634438E+02
    0.35628198485891019232E+02
    0.33559125055761974465E+02
    0.33772328328911882522E+02
    0.33685452068836106321E+02
    0.24994390040344594439E+02
    0.36606688086970692098E+02
    0.23667705132313674454E+02
    0.31454580861348365062E+02
    0.17454285939461470889E+02
    0.31770524252022866563E+02
    0.14055709852844335828E+02
    0.23117870484175590207E+02
    0.21554511025993903672E+02
    0.22079262237001294977E+02
    0.29062258174868759397E+02
    0.35704564700764407803E+02
    0.34080296065191731714E+02
    0.15510910054739051489E+02
    0.17393223991895212066E+02
    0.23469875222670051329E+02
    0.14683649417861444064E+02
    0.30485343026149113399E+02
    0.12180327765046415678E+02
    0.19903513933167864991E+02
    0.31603245656264824959E+02
    0.19807426195590309703E+02
    0.33036693649151672503E+02
    0.37132899163034814194E+02
    0.17872209397860284952E+02
    0.34665246636074520836E+02
    0.33397204024177902681E+02
    0.34512939355870017266E+02
    0.32831418203572766856E+02
    0.33829584202362447343E+02
    0.34366828387476218154E+02
    0.33836151913313578632E+02
    0.37701500661342265630E+02
    0.33619085673684409699E+02
    0.36262058800357543475E+02
    0.27781678368138809532E+02
    0.34580794854731379928E+02
    0.37432647687095972344E+02
    0.12233850255828201625E+02
    0.13262038898019193667E+02
    0.37581494669024380073E+02
    0.37463904336833010689E+02
    0.20206669546965486006E+02
    0.23740843629404960069E+02
    0.17667292315545576997E+02
    0.31121228297344988079E+02
    0.35455656123482889086E+02
    0.31493176543317513705E+02
    0.33971371855715062793E+02
    0.35551078893462921826E+02
    0.35270941708895826139E+02
    0.34936139122897508003E+02
    0.10652651298590912532E+02
    0.18755611811097757879E+02
    0.15482183872197042618E+02
    0.33993772415864128789E+02
    0.33546607141372362548E+02
    0.35955061770336577354E+02
    0.35892347661816664584E+02
    0.34393162300037324997E+02
    0.34576689892426458073E+02
    0.16735704200282246035E+02
    0.15629566147698602308E+02
    0.15733072814621387181E+02
    0.18399172033535279525E+02
    0.17262687702838253045E+02
    0.18892005281027554275E+02
    0.19775433118853804615E+02
    0.18113995537559794968E+02
    0.19751876564702527617E+02
    0.26361429656552360257E+02
    0.21478451370886435967E+02
    0.16116394788120260273E+02
    0.19431595680955108918E+02
    0.18696150442615675047E+02
    0.17203013557457111915E+02
    0.18300766019283852160E+02
    0.11002705469161506713E+02
    0.12003785595007034459E+02
    0.11209290971383476077E+02
    0.11569843942585006147E+02
    0.11414133560279639212E+02
    0.12837158872349217376E+02
    0.13364862209153614003E+02
    0.12019304422483752859E+02
    0.10796255341048668797E+02
    0.12489446076147524778E+02
    0.14777213158386331315E+02
    0.11468161758643802273E+02
    0.10825197151193975742E+02
    0.32465270125409070090E+02
    0.32855312931088960227E+02
    0.30062988924641540933E+02
    0.22852923115695698897E+02
    0.16736870096833353472E+02
    0.15883410808767539635E+02
    0.18573499699558833953E+02
    0.15781185835847621135E+02
    0.18003787176100516376E+02
    0.19269758270195580963E+02
    0.19095145147375486516E+02
    0.18315912080579021648E+02
    0.19701048718022274642E+02
    0.21212493291922783101E+02
    0.25966335512681609998E+02
    0.20453182504011770959E+02
    0.35507088875011127982E+02
    0.22301431343246559180E+02
    0.13127152595993180739E+02
    0.11738022236342249727E+02
    0.11075865610416261831E+02
    0.11391982587250884862E+02
    0.35470531773721617697E+02
    0.34907657828498862784E+02
    0.34242731496640239186E+02
    0.33651034544307862006E+02
    0.32270947442267242877E+02
    0.33447169669730968167E+02
    0.34007417690535710619E+02
    0.35838174171703819582E+02
    0.34463731881815732550E+02
    0.35191140716513956477E+02
    0.10645284300893667506E+02
    0.10537266685491401219E+02
    0.36863646780576040385E+02
    0.11461157690998645009E+02
    0.36513489593685527268E+02
    0.36628228685280305399E+02
    0.36064437986162246830E+02
    0.35658234525068770893E+02
    0.36466960382338939439E+02
    0.11117787090181767695E+02
    0.10871311483091858463E+02
    0.36514591075213246540E+02
    0.33310945245209637733E+02
    0.35899087811932545833E+02
    0.36197603321399427045E+02
    0.36823044611104045032E+02
    0.16436162856068456506E+02
    0.16308638413962718516E+02
    0.15570498645100075308E+02
    0.16776696613357003685E+02
    0.17975186964589653371E+02
    0.16463488977775078581E+02
    0.15767957217771041201E+02
    0.15109044593476909313E+02
    0.15168149655629713735E+02
    0.15075570083932229082E+02
    0.15533109296500063223E+02
    0.15411037515130219688E+02
    0.19592790327272091133E+02
    0.22272990429770167964E+02
    0.18456362286988287735E+02
    0.18393843140440658601E+02
    0.19383440807263021100E+02
    0.19000904946835955656E+02
    0.21241142873876817987E+02
    0.25145157824967533600E+02
    0.20912644744468252611E+02
    0.27916240337952835660E+02
    0.26598428226459336798E+02
    0.28108534148949878784E+02
    0.15835957061613768815E+02
    0.16766417808437726222E+02
    0.14242923008604023494E+02
    0.16121452638921283551E+02
    0.15573061583920480899E+02
    0.15202120326782999626E+02
    0.17240489825165237647E+02
    0.13793310685851508879E+02
    0.18478821109498902331E+02
    0.15597447813889949941E+02
    0.33196238916023247612E+02
    0.34656318111780855418E+02
    0.33203655968686199174E+02
    0.33185343009554436833E+02
    0.32119596057385791710E+02
    0.31321660936865061586E+02
    0.32794449496832640989E+02
    0.26160706665370511814E+02
    0.20326818497936915975E+02
    0.19718948450949302043E+02
    0.25340742866586126070E+02
    0.28079815079430350266E+02
    0.22825767806030299312E+02
    0.20400504118184521474E+02
    0.22668702835676409535E+02
    0.16713670212061490616E+02
    0.20669727815256621284E+02
    0.19386327467522633583E+02
    0.13682502501419660845E+02
    0.11784476567152465165E+02
    0.14900893969745101941E+02
    0.13923752225854570952E+02
    0.12326626328702321445E+02
    0.11765759635456811694E+02
    0.12403880013597673226E+02
    0.13402393012156927909E+02
    0.12657952905316989245E+02
    0.12579531802565160348E+02
    0.33464242580469218069E+02
    0.33694605512738988295E+02
    0.35981588181299287044E+02
    0.34659558774889319466E+02
    0.32034093745239651696E+02
    0.33312439669137930309E+02
    0.10624729032659704586E+02
    0.10757424385029878522E+02
    0.36639097323013075425E+02
    0.36613249561052263914E+02
    0.36596505122213223160E+02
    0.36256596652288344274E+02
    0.36396489916956554111E+02
    0.36467124179394019734E+02
    0.36090446197327551658E+02
    0.36679344067727434719E+02
    0.18171138277010598472E+02
    0.24925968747977584883E+02
    0.21581793538064488303E+02
    0.26126496530983125410E+02
    0.20236223617829310228E+02
    0.19639940539008488685E+02
    0.18153213046802111563E+02
    0.16242388354895435754E+02
    0.32768180845495834319E+02
    0.33474728054032816260E+02
    0.31994019774534226741E+02
    0.32389968556505465358E+02
    0.28016245610310885894E+02
    0.27535044199629300721E+02
    0.28695287609074291879E+02
    0.24498572171448191881E+02
    0.19656850487902367774E+02
    0.18052576713830092103E+02
    0.21472220893726813529E+02
    0.18874223756270477992E+02
    0.19275390474776532557E+02
    0.14647474688334911619E+02
    0.17697595542180252437E+02
    0.16748937203018442688E+02
    0.11473765177412504457E+02
    0.12512577378576713372E+02
    0.11439604503226121324E+02
    0.12177356828770690811E+02
    0.11495835036248756467E+02
    0.11182706187797185393E+02
    0.14050209495004274629E+02
    0.12266080016897225491E+02
    0.15000378616480460892E+02
    0.13839129490441905546E+02
    0.15936005936213273770E+02
    0.21111714526456349716E+02
    0.15501782625770051283E+02
    0.15034922110446597543E+02
    0.15737838536890194518E+02
    0.16540928403746725905E+02
    0.35751029648323616073E+02
    0.36041886359113640026E+02
    0.35226464069034221893E+02
    0.37352459077953689359E+02
    0.36556573348150102731E+02
    0.35719311573675078364E+02
    0.35404878257194781099E+02
    0.36062744497751104689E+02
    0.35448271766974357888E+02
    0.35381085134578782458E+02
    0.34355323887700478735E+02
    0.34908539301593556559E+02
    0.34601095489715000042E+02
    0.33220089911231987401E+02
    0.17423329649037441413E+02
    0.21273331163683515399E+02
    0.22711131230100718881E+02
    0.23723912905013143870E+02
    0.22881519705875717818E+02
    0.28080766091570229293E+02
    0.25973605298175641565E+02
    0.22984688605565018804E+02
    0.19730585882234599637E+02
    0.16823736475310990812E+02
    0.21361094799858882709E+02
    0.24900239344314382350E+02
    0.22956467127570000741E+02
    0.21923797564426021012E+02
    0.25132484500321524479E+02
    0.27927547269777953431E+02
    0.26121068945837187414E+02
    0.22701063486201285002E+02
    0.14454682797752811396E+02
    0.21151446409497904000E+02
    0.18689365683108736249E+02
    0.22150111736098430981E+02
    0.21519138357393750027E+02
    0.19396004384987460156E+02
    0.22723553672971814166E+02
    0.23876933938187800521E+02
    0.17596201080849766640E+02
    0.17113109325165247299E+02
    0.18595603538086596274E+02
    0.16253597560997835814E+02
    0.20745734755232088986E+02
    0.17026174621083988825E+02
    0.15730084021464756816E+02
    0.15103876753744723160E+02
    0.16421136120275630077E+02
    0.15776372495179529665E+02
    0.12243021796603194673E+02
    0.11562241907976554600E+02
    0.10972503800761433723E+02
    0.11389395648543656492E+02
    0.10727689835494057746E+02
    0.10860918084029865582E+02
    0.12569643901994288271E+02
    0.13292322567060352867E+02
    0.35933430836919661999E+02
    0.35647030664511412112E+02
    0.14834117495149190091E+02
    0.16284754148393460582E+02
    0.22653696699809355408E+02
    0.20602390433391807534E+02
    0.28181276947731177529E+02
    0.20960486530612705280E+02
    0.21324137268568861714E+02
    0.17201243413638628965E+02
    0.24168885470653183489E+02
    0.22250687086284990812E+02
    0.34948677214448508721E+02
    0.34326555424793554039E+02
    0.20113748904209696633E+02
    0.21669168957712130918E+02
    0.36128476897237746357E+02
    0.35312318062378231787E+02
    0.36447088528264998786E+02
    0.35869374030914123352E+02
    0.35401773304670207665E+02
    0.33901427609369740424E+02
    0.31525374414382472565E+02
    0.33238056776002942172E+02
    0.30998360105224886496E+02
    0.31481500535256149220E+02
    0.31742619778018138277E+02
    0.31419889800778825872E+02
    0.32806480806595281763E+02
    0.32089722107190972622E+02
    0.20044982856423427364E+02
    0.26281485753626295576E+02
    0.17822639502974620740E+02
    0.21311282051549220284E+02
    0.22616043409397548203E+02
    0.28081572132749052173E+02