# vtk DataFile Version 3.0
LAPLACIEN  2D
ASCII
DATASET UNSTRUCTURED_GRID
 POINTS        1616  float
  0.45880792999999997       0.87913892999999999        0.0000000000000000     
  0.40372658000000000       0.18243693000000000        0.0000000000000000     
  0.52563972999999997       0.19039755999999999        0.0000000000000000     
  0.45642953000000003       0.24226190000000000        0.0000000000000000     
  0.51984098000000001       0.24548566999999999        0.0000000000000000     
  0.21212766999999999       0.18957676000000001        0.0000000000000000     
  0.28573643999999998       0.48586826999999999        0.0000000000000000     
  0.49667887999999999       0.82979849000000006        0.0000000000000000     
  0.22848407000000001       0.23366793000000000        0.0000000000000000     
  0.27860389000000002       0.86069733000000004        0.0000000000000000     
  0.36563702999999997       0.80971340999999997        0.0000000000000000     
  0.28045499000000002       0.80393031999999998        0.0000000000000000     
  0.40374228000000001       0.78127665000000002        0.0000000000000000     
  0.56160891999999996       0.55341227999999998        0.0000000000000000     
  0.37210935000000001       0.26787699999999998        0.0000000000000000     
  0.49899838000000002       0.57286409999999999        0.0000000000000000     
  0.41023869000000002       0.33464665999999998        0.0000000000000000     
  0.33484156999999998       0.29151022999999998        0.0000000000000000     
  0.46758665999999999       0.58262307999999996        0.0000000000000000     
  0.43303693999999998       0.36569945999999998        0.0000000000000000     
  0.25741280000000000       0.61805882999999995        0.0000000000000000     
  0.28853707000000001       0.59423020000000004        0.0000000000000000     
  0.67837254000000002       0.45038665999999999        0.0000000000000000     
  0.42159046000000000       0.50697913999999999        0.0000000000000000     
  0.60276470999999998       0.73940291000000002        0.0000000000000000     
  0.30758273000000003       0.77844542000000005        0.0000000000000000     
  0.45367541000000000       0.31842187000000000        0.0000000000000000     
  0.36974101999999998       0.35807864000000000        0.0000000000000000     
  0.26919625000000003       0.65312176000000000        0.0000000000000000     
  0.61908110999999999       0.42741791000000001        0.0000000000000000     
  0.54442267000000000       0.74200747000000000        0.0000000000000000     
  0.58930464999999999       0.41588288000000001        0.0000000000000000     
  0.51511633000000001       0.74331579000000003        0.0000000000000000     
  0.12878382999999999       0.33122940000000001        0.0000000000000000     
  0.15534365000000000       0.71749246000000000        0.0000000000000000     
  0.64877724999999997       0.30161799000000000        0.0000000000000000     
  0.58853643000000000       0.28101930000000003        0.0000000000000000     
  0.56390348000000001       0.30132482999999999        0.0000000000000000     
  0.29605991999999998       0.44474459999999999        0.0000000000000000     
  0.29900669000000002       0.52983276000000001        0.0000000000000000     
  0.55954318999999997       0.48654808999999999        0.0000000000000000     
  0.42341458999999998       0.38785072999999998        0.0000000000000000     
  0.45806291999999998       0.35892998999999998        0.0000000000000000     
  0.47820750000000001       0.31147424000000001        0.0000000000000000     
  0.36344222999999998       0.38139388000000002        0.0000000000000000     
  0.17186508000000000       0.28159534000000003        0.0000000000000000     
  0.18029876000000000       0.33292397000000001        0.0000000000000000     
  0.20696366999999999       0.71822465999999996        0.0000000000000000     
  0.61326404999999995       0.34468346000000000        0.0000000000000000     
  0.29887186999999998       0.42337377999999998        0.0000000000000000     
  0.33271837999999998       0.44383096000000000        0.0000000000000000     
  0.31835012000000001       0.54267131999999996        0.0000000000000000     
  0.54882964999999995       0.45462609999999998        0.0000000000000000     
  0.20448143999999999       0.28717446000000002        0.0000000000000000     
  0.20634120000000000       0.33378063000000002        0.0000000000000000     
  0.23301781999999999       0.71859421999999995        0.0000000000000000     
  0.58606499999999995       0.35199907000000002        0.0000000000000000     
  0.20841100000000001       0.45369578999999999        0.0000000000000000     
  0.24778198000000001       0.77708496000000005        0.0000000000000000     
  0.30748062999999998       0.61002621000000001        0.0000000000000000     
  0.23337332000000000       0.41981835000000001        0.0000000000000000     
  0.25985113999999998       0.75924943000000000        0.0000000000000000     
  0.24610213000000000       0.40254353999999998        0.0000000000000000     
  0.37350351999999998       0.50127178999999999        0.0000000000000000     
  0.43235204999999999       0.78236391000000005        0.0000000000000000     
  0.30749858000000002       0.28582627999999999        0.0000000000000000     
  0.30336816000000000       0.64635111000000001        0.0000000000000000     
  0.31418906000000002       0.43625961000000002        0.0000000000000000     
  0.27223414000000001       0.78063022000000004        0.0000000000000000     
  0.22829299000000000       0.75089561000000005        0.0000000000000000     
  0.26580239000000000       0.42989294000000000        0.0000000000000000     
  0.37369119000000001       0.51975733999999996        0.0000000000000000     
  0.39681665999999999       0.51027884000000001        0.0000000000000000     
  0.32086795000000001       0.65137668999999998        0.0000000000000000     
  0.31757218999999998       0.62987181000000003        0.0000000000000000     
  0.32959777000000001       0.42500900000000003        0.0000000000000000     
  0.24663835000000001       0.74537787000000000        0.0000000000000000     
  0.26354222999999999       0.41075105000000001        0.0000000000000000     
  0.28343712999999998       0.43221330000000002        0.0000000000000000     
  0.34682245000000000       0.43182289000000001        0.0000000000000000     
  0.35306810000000000       0.45344571000000000        0.0000000000000000     
  0.57327218000000002       0.15829040000000000        0.0000000000000000     
  0.51473097999999995       0.12621746000000000        0.0000000000000000     
  0.72829681999999996       0.40151571000000003        0.0000000000000000     
  0.42703184999999999       0.53501600999999999        0.0000000000000000     
  0.32612607999999998       0.75472421999999995        0.0000000000000000     
   9.9814849999999997E-002  0.28081352999999998        0.0000000000000000     
  0.13945825000000001       0.78732252999999996        0.0000000000000000     
  0.44199519999999998       0.38275643999999998        0.0000000000000000     
  0.40132215999999998       0.36508836000000000        0.0000000000000000     
  0.43963142999999999       0.34043466999999999        0.0000000000000000     
  0.47160058999999999       0.33493045999999999        0.0000000000000000     
  0.45615203999999998       0.28038164999999998        0.0000000000000000     
  0.34321279999999998       0.35314412000000001        0.0000000000000000     
  0.29178279000000001       0.56170810000000004        0.0000000000000000     
  0.49833080000000002       0.48416767999999999        0.0000000000000000     
  0.46386271000000001       0.46452802999999998        0.0000000000000000     
  0.44722043000000000       0.45300645000000000        0.0000000000000000     
  0.46562803000000003       0.44419790999999997        0.0000000000000000     
  0.43925322000000000       0.48229485999999999        0.0000000000000000     
  0.49117628000000002       0.45665803999999999        0.0000000000000000     
  0.43435156000000003       0.46523363000000001        0.0000000000000000     
  0.19405754000000000       0.31093060000000000        0.0000000000000000     
  0.22069087000000001       0.66905079000000001        0.0000000000000000     
  0.30776597999999999       0.59042684000000001        0.0000000000000000     
  0.29541507000000000       0.57849362000000004        0.0000000000000000     
  0.28335474999999999       0.61970232999999997        0.0000000000000000     
  0.29935165000000002       0.62852803999999995        0.0000000000000000     
  0.28459435999999999       0.64121777000000002        0.0000000000000000     
  0.26698675999999999       0.63435282999999998        0.0000000000000000     
  0.24031983000000001       0.64700659000000005        0.0000000000000000     
  0.33118850000000000       0.50233682999999996        0.0000000000000000     
  0.35257061000000001       0.51072803000000000        0.0000000000000000     
  0.29038973000000001       0.78732479000000000        0.0000000000000000     
  0.28737915000000003       0.76752330999999996        0.0000000000000000     
  0.21978159000000000       0.73315437000000006        0.0000000000000000     
  0.18119734000000001       0.76257752999999995        0.0000000000000000     
  0.20353571000000001       0.75186065999999996        0.0000000000000000     
  0.39122694000000002       0.49007234000000000        0.0000000000000000     
  0.59140473999999998       0.13507609000000001        0.0000000000000000     
  0.53156702000000000        9.7663528999999999E-002   0.0000000000000000     
  0.76346223999999996       0.39657278000000001        0.0000000000000000     
  0.41119013999999998       0.52354409999999996        0.0000000000000000     
   7.2558165999999993E-002  0.26885883999999999        0.0000000000000000     
  0.10497347000000000       0.79895936000000001        0.0000000000000000     
[...]
 CELL_DATA        2963
 SCALARS Nutrients float
 LOOKUP_TABLE default
    0.32710555955419756913E+02
    0.32711524732935835402E+02
    0.30396728589268597887E+02
    0.32584381197976995281E+02
    0.32176672994922235205E+02
    0.31983702279594737661E+02
    0.31918596859202626348E+02
    0.31697386517946679163E+02
    0.33136579651430885463E+02
    0.16141881321950982908E+02
    0.34211701004422288008E+02
    0.29901025807355829045E+02
    0.30007162091381804458E+02
    0.33908849190488609793E+02
    0.33391181572801372113E+02
    0.29758071739953045665E+02
    0.16960325661373079953E+02
    0.31288462464974305277E+02
    0.31705630573489305135E+02
    0.28525685229214335692E+02
    0.29778299565633943757E+02
    0.16349709785029670428E+02
    0.15420477635671021588E+02
    0.28323536642908724303E+02
    0.25844225535824023154E+02
    0.32312231030350226035E+02
    0.28715557737689611173E+02
    0.32044679917255066925E+02
    0.30525441974974619086E+02
    0.24504524854262882627E+02
    0.31648271866935779428E+02
    0.32616426736879589043E+02
    0.29276213776188509286E+02
    0.24061984667360395207E+02
    0.29819866200681168777E+02
    0.26732574772566099597E+02
    0.29710725420043722522E+02
    0.23043901900292905083E+02
    0.26873229955002859271E+02
    0.27395567723008671379E+02
    0.25968306942486840683E+02
    0.32180742138378171546E+02
    0.26779781879256745469E+02
    0.25172975816826106410E+02
    0.33203712928633606793E+02
    0.19448217670797209422E+02
    0.27232844927634356935E+02
    0.33273002010690028385E+02
    0.24151522932745354666E+02
    0.33333656781852184281E+02
    0.20806858568113046459E+02
    0.21560545809293291342E+02
    0.22498199307056914620E+02
    0.21836831140488758507E+02
    0.30122018719255201802E+02
    0.29272418483777030929E+02
    0.25271631860312158580E+02
    0.21106398958650522957E+02
    0.17003729905519300303E+02
    0.32417596216542726495E+02
    0.17684194450662662490E+02
    0.33875128409575729904E+02
    0.34040341707493780632E+02
    0.32484758183098726647E+02
    0.33601392280580242300E+02
    0.18516227173257615135E+02
    0.31920542039347978402E+02
    0.17285168054174768315E+02
    0.22283087716750713980E+02
    0.31738983448337538817E+02
    0.26416541773248049196E+02
    0.18235010897433330257E+02
    0.32271033625976031090E+02
    0.28201268175469603960E+02
    0.16261419255980079868E+02
    0.16295361414700341385E+02
    0.15848515160580804562E+02
    0.16641215715155979638E+02
    0.22939263210240433466E+02
    0.18814117670437095597E+02
    0.32904718313426151610E+02
    0.20418805415316363394E+02
    0.17331873529877743323E+02
    0.15577534174653875354E+02
    0.22774839699315702291E+02
    0.28676478791905331889E+02
    0.30016671806362122510E+02
    0.26801776448284552856E+02
    0.27264335105919609958E+02
    0.32759510381626149922E+02
    0.28095616344062566583E+02
    0.20557410801138640721E+02
    0.15221599656059112249E+02
    0.20732561869002374522E+02
    0.24566335683987627903E+02
    0.21746711435933242740E+02
    0.15969278351844806707E+02
    0.28874672445918839969E+02
    0.23813366465073439571E+02
    0.31366420596769739149E+02
    0.32245363569578600504E+02
    0.27261965388243094566E+02
    0.20449179093956526998E+02
    0.29705041836023987400E+02
    0.29641781697833756937E+02
    0.31868304749770139495E+02
    0.29549031813658249490E+02
    0.32668494304970948861E+02
    0.20009118479881117025E+02
    0.31248964730246392207E+02
    0.30849524026904308727E+02
    0.31938039741709495445E+02
    0.28068086912591962090E+02
    0.31836237770656961033E+02
    0.33895802794276491454E+02
    0.32345505447033055191E+02
    0.33687324814148496444E+02
    0.34219110332905401606E+02
    0.15725243616531704660E+02
    0.17908034188652511176E+02
    0.32281968136105177791E+02
    0.32655565193126307122E+02
    0.21495419128600627090E+02
    0.23699842269719141541E+02
    0.22198824029171493777E+02
    0.24909532565795046821E+02
    0.31803175486984240905E+02
    0.19073617551240186430E+02
    0.31510470490682426004E+02
    0.17040203369705139380E+02
    0.22246428918511750084E+02
    0.21312346616695954538E+02
    0.26573188680060479072E+02
    0.22144406523006868071E+02
    0.28967124484381177041E+02
    0.18288530920090874332E+02
    0.18228447921002683074E+02
    0.32388099149032392177E+02
    0.32583124453436639101E+02
    0.31480878530941499349E+02
    0.16905647044091033138E+02
    0.23330838265414211463E+02
    0.19111263048867183301E+02
    0.18689277023693286139E+02
    0.19375003174722504440E+02
    0.22863016301699438770E+02
    0.29214450023043635696E+02
    0.22407431716772098440E+02
    0.32659814816832927420E+02
    0.26073568454883432111E+02
    0.33627552144162379477E+02
    0.20507342457282248915E+02
    0.19101663587902187658E+02
    0.23169067772084371626E+02
    0.32097653767088864640E+02
    0.22571814261709498339E+02
    0.22128125249685702158E+02
    0.32125989395809526172E+02
    0.32104488825386212625E+02
    0.32093195528158339869E+02
    0.32114894364848673547E+02
    0.32276117451604115161E+02
    0.24179340436363244038E+02
    0.29679066336238431489E+02
    0.31020876661221372217E+02
    0.19925886823767186229E+02
    0.21955921279628615395E+02
    0.21360837077095883529E+02
    0.15997407193751165266E+02
    0.22072851009003311873E+02
    0.15366240005031967186E+02
    0.32125999043573578717E+02
    0.23510882743562699915E+02
    0.21561959780817776533E+02
    0.22371926298041106662E+02
    0.21930472628707256888E+02
    0.28202735326645257175E+02
    0.30345497920887140708E+02
    0.32841534811361228208E+02
    0.21503930911779253421E+02
    0.16149841042532870006E+02
    0.26219747714750972989E+02
    0.27301231651319941562E+02
    0.32887362191999251593E+02
    0.22583030025115373718E+02
    0.22845905611654977463E+02
    0.29911112129170238205E+02
    0.32572597974111488384E+02
    0.18648511382636474565E+02
    0.25879280580822463520E+02
    0.32467281867288647845E+02
    0.24687751546207838516E+02
    0.31290502088800703717E+02
    0.21407949719743481154E+02
    0.29247013455387698144E+02
    0.21873158472002316444E+02
    0.27176434634805449519E+02
    0.21831113523565232271E+02
    0.29014366464746988328E+02
    0.22051584963139379880E+02
    0.26395574070881885120E+02
    0.25891206977913334697E+02
    0.30380252742086593543E+02
    0.21100603183047866196E+02
    0.15719278661415490461E+02
    0.15457344529326002558E+02
    0.22294704233407102834E+02
    0.15377382447234127838E+02
    0.22922986714673054820E+02
    0.21436973344462909807E+02
    0.21801315658848672285E+02
    0.16332206676534468670E+02
    0.16514868120147344399E+02
    0.32943612291369767320E+02
    0.32786128747708175979E+02
    0.30440099412018973624E+02
    0.24035009467176394082E+02
    0.30550289068344973487E+02
    0.29864763197655410210E+02
    0.18119003427391962902E+02
    0.32614267211717127282E+02
    0.32782373990394759744E+02
    0.32752019000349989142E+02
    0.17082142478848687972E+02
    0.17437590854225408776E+02
    0.32594316068848250723E+02
    0.32185479912076338849E+02
    0.22247695881086919201E+02
    0.22238154109022435279E+02
    0.29873610781044064311E+02
    0.21682170909350155341E+02
    0.27908962395797452416E+02
    0.31347855968322235753E+02
    0.30142159453357468379E+02
    0.26510482648173532283E+02
    0.30131172228475591623E+02
    0.32610768291677601383E+02
    0.28775242151851056605E+02
    0.17350835950032511334E+02
    0.20817559556768731710E+02
    0.17915956452631775164E+02
    0.24951100838253125858E+02
    0.28082393872209298280E+02
    0.27228937769504277355E+02
    0.15506013354555170380E+02
    0.32258071266857733406E+02
    0.30037336455682464020E+02
    0.19614431216770753963E+02
    0.31744120079292102332E+02
    0.25477789572158911824E+02
    0.15646496195101754267E+02
    0.29096045288763104253E+02
    0.32700967160903744002E+02
    0.18909326976839686552E+02
    0.22525930428819172846E+02
    0.26138421117745963329E+02
    0.21535377139520402778E+02
    0.31996394294425645199E+02
    0.15349748605220009168E+02
    0.28133316725869715214E+02
    0.15407001039482704385E+02
    0.15632079399711827250E+02
    0.15718365362571413257E+02
    0.24409351932438049460E+02
    0.15173336695010259945E+02
    0.21818149034117052310E+02
    0.17589806181781540317E+02
    0.15545817609218977040E+02
    0.23073060642692944100E+02
    0.15236751531393384340E+02
    0.29373473642348187695E+02
    0.29800338214822950533E+02
    0.15424723204899631668E+02
    0.22146739273682420901E+02
    0.22018379311283574395E+02
    0.31038035381605212137E+02
    0.25649622594450178781E+02
    0.28803887558687783610E+02
    0.21387209600223695105E+02
    0.21581491394554848995E+02
    0.31772793950777099781E+02
    0.20457653027979830540E+02
    0.30995630589999496607E+02
    0.32307607237035249170E+02
    0.21511213184481139393E+02
    0.21657997905192925003E+02
    0.28050678666780267889E+02
    0.21692769514600822589E+02
    0.31192715831676213867E+02
    0.32319776951612979587E+02
    0.32430063353790494318E+02
    0.32470288454253001476E+02
    0.25029511392894303157E+02
    0.33570071811645881610E+02
    0.25666371968318234309E+02
    0.28115365325830449450E+02
    0.21005914373763051373E+02
    0.32203833547238765789E+02
    0.16687937900434857141E+02
    0.24278518879634898298E+02
    0.23397259469423190126E+02
    0.23380012673909163823E+02
    0.27805023687804681032E+02
    0.31654565531821980073E+02
    0.30565622914938224142E+02
    0.21622130052126699695E+02
    0.20610104521012416967E+02
    0.25559159591806960066E+02
    0.18396768521919291572E+02
    0.27847956346735376343E+02
    0.17458565084994749128E+02
    0.22208618910516793932E+02
    0.28403995637864721147E+02
    0.22465066269954760969E+02
    0.30299721994279849469E+02
    0.33598443170487932719E+02
    0.21052836414119781239E+02
    0.30317709519438558630E+02
    0.29424033305709151875E+02
    0.32239891479279755515E+02
    0.30450629351252395338E+02
    0.32248660666862988933E+02
    0.31791180734078665182E+02
    0.32118464894905351059E+02
    0.34318239748712429105E+02
    0.31197419129529350812E+02
    0.33060747343740104043E+02
    0.26081912191161300996E+02
    0.31055380332414763700E+02
    0.33836398811176152890E+02
    0.17428356629379212706E+02
    0.18165571781611134838E+02
    0.34178365886598172096E+02
    0.34100963538385265394E+02
    0.23064872217084861461E+02
    0.25692313326120782335E+02
    0.21851522552675096023E+02
    0.29178195208763533230E+02
    0.31729939832981596481E+02
    0.29418507604384153353E+02
    0.31778128733246507664E+02
    0.31609038008508868245E+02
    0.30745585805072593644E+02
    0.32841310047281581319E+02
    0.15760765038740625954E+02
    0.21542051672573521159E+02
    0.19628472035861015854E+02
    0.31559853629241821693E+02
    0.32537546630461832819E+02
    0.31809745348801168774E+02
    0.31794322946503317695E+02
    0.31154598834452812639E+02
    0.31423471122562656177E+02
    0.22257720549370421992E+02
    0.21685291915634060445E+02
    0.21737689668509492691E+02
    0.23095561838841415891E+02
    0.22523479227433799821E+02
    0.23338962356109416163E+02
    0.23782584719850103028E+02
    0.22953179618723240196E+02
    0.23763240746234611578E+02
    0.26961454083545099536E+02
    0.24608314724817073937E+02
    0.21947512084417763134E+02
    0.23614004595808669507E+02
    0.22129026906415457887E+02
    0.21160444490324369582E+02
    0.19076675199761304214E+02
    0.15171186244033776802E+02
    0.15475664665906137429E+02
    0.15323795100202877606E+02
    0.15293748635600257657E+02
    0.15366486466921781329E+02
    0.15884485411669517774E+02
    0.16362441549187391132E+02
    0.15773900223785652486E+02
    0.15263440893525054065E+02
    0.15719570934856529121E+02
    0.16889654654438178483E+02
    0.15337188382232588069E+02
    0.15209533726342012727E+02
    0.29398577555849918497E+02
    0.29725473561178404225E+02
    0.28233689225392961220E+02
    0.23998840974324465947E+02
    0.20966182701448030201E+02
    0.20405074917410171764E+02
    0.21976911325228904559E+02
    0.20275340491741868476E+02
    0.21961704355631269436E+02
    0.22609726831008863712E+02
    0.22581039688626201922E+02
    0.22065462138593773034E+02
    0.22940595481307575199E+02
    0.23625248969343321193E+02
    0.26219488139321349252E+02
    0.23116429689472020925E+02
    0.31386336779999538749E+02
    0.24055307645072133482E+02
    0.18181602270792218690E+02
    0.17052310099639726104E+02
    0.16341314180513645482E+02
    0.16697873134135210904E+02
    0.33019884910836090341E+02
    0.32424670252465965348E+02
    0.31912671902854011563E+02
    0.32169193977515959659E+02
    0.29993513364199269944E+02
    0.30670926178393152384E+02
    0.31075163071110534219E+02
    0.32093959942405668073E+02
    0.31497837057836459707E+02
    0.31640267840545931222E+02
    0.15794729202149182967E+02
    0.15481230421840892930E+02
    0.32971184237951398188E+02
    0.16852405879163082858E+02
    0.32699809641247490788E+02
    0.32784651724721122434E+02
    0.32358073276666935669E+02
    0.31244285303901978779E+02
    0.32348730812239871568E+02
    0.15680350090091891957E+02
    0.15583147031955419948E+02
    0.32437671530319192925E+02
    0.32269483233891570251E+02
    0.31701360625025660767E+02
    0.32206304617808093838E+02
    0.33201385653903130901E+02
    0.22105853607150795170E+02
    0.22038034670549411231E+02
    0.21651538894602420982E+02
    0.22276015281715686456E+02
    0.22881823371942608958E+02
    0.22114694900708901315E+02
    0.21755122994526530533E+02
    0.21412033300034568839E+02
    0.21439709874071233742E+02
    0.21392856974112817170E+02
    0.21635796395080010512E+02
    0.21569563130779521032E+02
    0.23684607688615621157E+02
    0.24987932581074161931E+02
    0.23129611394634540744E+02
    0.23096203914822336145E+02
    0.23583486622465922977E+02
    0.23398123146383934312E+02
    0.24488203413540169606E+02
    0.26373603620430241534E+02
    0.24328039950186777673E+02
    0.27715379605506935690E+02
    0.27072919152963294209E+02
    0.27818432051286112738E+02
    0.21800261497811909805E+02
    0.22278462085238682988E+02
    0.19195381368735791483E+02
    0.20367650184366752342E+02
    0.20230703391096010790E+02
    0.19842919766505033863E+02
    0.18287354118802994662E+02
    0.16429062188643921871E+02
    0.19153641087531060094E+02
    0.17379714874676462699E+02
    0.29837258163003962608E+02
    0.30811665835446035544E+02
    0.29922230515616366375E+02
    0.29878854051493025423E+02
    0.29224467723781788919E+02
    0.28723686140290006108E+02
    0.29814722867911772397E+02
    0.26175431551463848479E+02
    0.22908801939404799697E+02
    0.22560518390536167033E+02
    0.25595362236202955586E+02
    0.26354783470310774618E+02
    0.24264938583410362583E+02
    0.22724029504243123512E+02
    0.24129098258481722183E+02
    0.20827804353646595104E+02
    0.22931886783348033987E+02
    0.22180308901822623824E+02
    0.18623248414536302420E+02
    0.17076960958580823302E+02
    0.19548667860114967709E+02
    0.18689103605194222979E+02
    0.17563673432001134955E+02
    0.17080176662526707076E+02
    0.17579286874919525019E+02
    0.18275114198972239876E+02
    0.17739869458655299184E+02
    0.17686020925384557501E+02
    0.32222526980285479681E+02
    0.32356741080985607084E+02
    0.32770012845588347261E+02
    0.31391779203202002435E+02
    0.29332012526171997280E+02
    0.30395646387521850329E+02
    0.15254057535953943869E+02
    0.15185761756023119062E+02
    0.32799391054922011790E+02
    0.32771495094530280312E+02
    0.32775061016581560125E+02
    0.32029846098403353949E+02
    0.32255095686730520299E+02
    0.32483166754370898843E+02
    0.31892325026632953211E+02
    0.32808535977717752985E+02
    0.22983628701360728996E+02
    0.26254264830708198275E+02
    0.24651962138911233779E+02
    0.26829271534522089127E+02
    0.20165346643207616495E+02
    0.19818277323073942853E+02
    0.19106635745053377917E+02
    0.17854932977464166299E+02
    0.29558529821244523106E+02
    0.30060876625760201364E+02
    0.29125115984526374291E+02
    0.29401142533848592109E+02
    0.27140052540973968576E+02
    0.27122348133398798353E+02
    0.27459160382877939810E+02
    0.24918877667572019163E+02
    0.22450039910324871784E+02
    0.21648567161769932454E+02
    0.23186652796155321710E+02
    0.22019867537058146922E+02
    0.21971958592505320240E+02
    0.19194486151819535991E+02
    0.21177672324645570257E+02
    0.20794851021924394274E+02
    0.16780151606092026384E+02
    0.17741452146984144633E+02
    0.16784278082698541823E+02
    0.17381090854083311115E+02
    0.16821147908150660299E+02
    0.16551281691928082296E+02
    0.18739291054209026299E+02
    0.17457256487099314768E+02
    0.19348822424892158978E+02
    0.18557064089382524941E+02
    0.19959263916894379065E+02
    0.22865545432863157771E+02
    0.19610759174353294298E+02
    0.19333924521339746150E+02
    0.19870461734376533514E+02
    0.20277009330815761956E+02
    0.32242466400233212198E+02
    0.32577094850876598287E+02
    0.32103768549092599471E+02
    0.33720887955233720845E+02
    0.32887033766972251669E+02
    0.32143575749064879687E+02
    0.32055169585555212564E+02
    0.32399732892938580164E+02
    0.31774017273752622970E+02
    0.31850259551775000233E+02
    0.31489271229749366654E+02
    0.31709502780268604027E+02
    0.31187478279245343771E+02
    0.30264078646556612284E+02
    0.22604232542464764322E+02
    0.24502304713039450235E+02
    0.25193432847041762557E+02
    0.25678540920820225324E+02
    0.25275577085541769407E+02
    0.27776726585777407053E+02
    0.26761530484296216059E+02
    0.25325964298664377594E+02
    0.19895504475113671816E+02
    0.18148195601689170786E+02
    0.23419461593959852053E+02
    0.25023106968754952106E+02
    0.24171917067713007299E+02
    0.23644892247828590115E+02
    0.25350786737384456870E+02
    0.26409120222381250898E+02
    0.25456711400003101176E+02
    0.23773912342090095962E+02
    0.19151577679714044677E+02
    0.22928279099608822378E+02
    0.21633749484560638621E+02
    0.23417785049441043554E+02
    0.23256707699068005724E+02
    0.22119933244776071035E+02
    0.23883311072914438000E+02
    0.24410738304567459522E+02
    0.21231973054259174916E+02
    0.20897114644040190257E+02
    0.21664976426078990102E+02
    0.20294573717276364277E+02
    0.22761159030907055723E+02
    0.20746219749518004960E+02
    0.19933757616020727710E+02
    0.19638283826806908650E+02
    0.20495728207911383834E+02
    0.20055223240154614217E+02
    0.17459287670175736906E+02
    0.16861136252371800026E+02
    0.16296472557510352175E+02
    0.16711882867758554028E+02
    0.15933478796831671787E+02
    0.16123855706740457094E+02
    0.17749046613045624810E+02
    0.18254670466522107120E+02
    0.32097624013923173436E+02
    0.31550533048913127487E+02
    0.19368890025007964084E+02
    0.20227252212643470841E+02
    0.23712384675167772485E+02
    0.22724690086888234219E+02
    0.26520809022332464622E+02
    0.22771907358115502262E+02
    0.22966468475346481171E+02
    0.20764418151894666664E+02
    0.24426812418472188426E+02
    0.23458001463085306426E+02
    0.31268180136239774214E+02
    0.30939634757785679398E+02
    0.22411579834153602775E+02
    0.23212317948635639908E+02
    0.32271986508252773262E+02
    0.31585575136141656571E+02
    0.32481643132067773649E+02
    0.31905241170563680697E+02
    0.31515562494210019651E+02
    0.30492020947008985132E+02
    0.32164739497550236536E+02
    0.32471924711786130047E+02
    0.32093956722710892393E+02
    0.32161267560761473305E+02
    0.32188075186351170487E+02
    0.32155568493312323142E+02
    0.32296381452714200577E+02
    0.32245602519900891991E+02
    0.22034194001736612023E+02
    0.26036713743849912106E+02
    0.21279705168631480205E+02
    0.23151370279505552929E+02
    0.23866163418034322063E+02
    0.27067665703262175469E+02