# vtk DataFile Version 3.0
LAPLACIEN  2D
ASCII
DATASET UNSTRUCTURED_GRID
 POINTS        1616  float
  0.45880792999999997       0.87913892999999999        0.0000000000000000     
  0.40372658000000000       0.18243693000000000        0.0000000000000000     
  0.52563972999999997       0.19039755999999999        0.0000000000000000     
  0.45642953000000003       0.24226190000000000        0.0000000000000000     
  0.51984098000000001       0.24548566999999999        0.0000000000000000     
  0.21212766999999999       0.18957676000000001        0.0000000000000000     
  0.28573643999999998       0.48586826999999999        0.0000000000000000     
  0.49667887999999999       0.82979849000000006        0.0000000000000000     
  0.22848407000000001       0.23366793000000000        0.0000000000000000     
  0.27860389000000002       0.86069733000000004        0.0000000000000000     
  0.36563702999999997       0.80971340999999997        0.0000000000000000     
  0.28045499000000002       0.80393031999999998        0.0000000000000000     
  0.40374228000000001       0.78127665000000002        0.0000000000000000     
  0.56160891999999996       0.55341227999999998        0.0000000000000000     
  0.37210935000000001       0.26787699999999998        0.0000000000000000     
  0.49899838000000002       0.57286409999999999        0.0000000000000000     
  0.41023869000000002       0.33464665999999998        0.0000000000000000     
  0.33484156999999998       0.29151022999999998        0.0000000000000000     
  0.46758665999999999       0.58262307999999996        0.0000000000000000     
  0.43303693999999998       0.36569945999999998        0.0000000000000000     
  0.25741280000000000       0.61805882999999995        0.0000000000000000     
  0.28853707000000001       0.59423020000000004        0.0000000000000000     
  0.67837254000000002       0.45038665999999999        0.0000000000000000     
  0.42159046000000000       0.50697913999999999        0.0000000000000000     
  0.60276470999999998       0.73940291000000002        0.0000000000000000     
  0.30758273000000003       0.77844542000000005        0.0000000000000000     
  0.45367541000000000       0.31842187000000000        0.0000000000000000     
  0.36974101999999998       0.35807864000000000        0.0000000000000000     
  0.26919625000000003       0.65312176000000000        0.0000000000000000     
  0.61908110999999999       0.42741791000000001        0.0000000000000000     
  0.54442267000000000       0.74200747000000000        0.0000000000000000     
  0.58930464999999999       0.41588288000000001        0.0000000000000000     
  0.51511633000000001       0.74331579000000003        0.0000000000000000     
  0.12878382999999999       0.33122940000000001        0.0000000000000000     
  0.15534365000000000       0.71749246000000000        0.0000000000000000     
  0.64877724999999997       0.30161799000000000        0.0000000000000000     
  0.58853643000000000       0.28101930000000003        0.0000000000000000     
  0.56390348000000001       0.30132482999999999        0.0000000000000000     
  0.29605991999999998       0.44474459999999999        0.0000000000000000     
  0.29900669000000002       0.52983276000000001        0.0000000000000000     
  0.55954318999999997       0.48654808999999999        0.0000000000000000     
  0.42341458999999998       0.38785072999999998        0.0000000000000000     
  0.45806291999999998       0.35892998999999998        0.0000000000000000     
  0.47820750000000001       0.31147424000000001        0.0000000000000000     
  0.36344222999999998       0.38139388000000002        0.0000000000000000     
  0.17186508000000000       0.28159534000000003        0.0000000000000000     
  0.18029876000000000       0.33292397000000001        0.0000000000000000     
  0.20696366999999999       0.71822465999999996        0.0000000000000000     
  0.61326404999999995       0.34468346000000000        0.0000000000000000     
  0.29887186999999998       0.42337377999999998        0.0000000000000000     
  0.33271837999999998       0.44383096000000000        0.0000000000000000     
  0.31835012000000001       0.54267131999999996        0.0000000000000000     
  0.54882964999999995       0.45462609999999998        0.0000000000000000     
  0.20448143999999999       0.28717446000000002        0.0000000000000000     
  0.20634120000000000       0.33378063000000002        0.0000000000000000     
  0.23301781999999999       0.71859421999999995        0.0000000000000000     
  0.58606499999999995       0.35199907000000002        0.0000000000000000     
  0.20841100000000001       0.45369578999999999        0.0000000000000000     
  0.24778198000000001       0.77708496000000005        0.0000000000000000     
  0.30748062999999998       0.61002621000000001        0.0000000000000000     
  0.23337332000000000       0.41981835000000001        0.0000000000000000     
  0.25985113999999998       0.75924943000000000        0.0000000000000000     
  0.24610213000000000       0.40254353999999998        0.0000000000000000     
  0.37350351999999998       0.50127178999999999        0.0000000000000000     
  0.43235204999999999       0.78236391000000005        0.0000000000000000     
  0.30749858000000002       0.28582627999999999        0.0000000000000000     
  0.30336816000000000       0.64635111000000001        0.0000000000000000     
  0.31418906000000002       0.43625961000000002        0.0000000000000000     
  0.27223414000000001       0.78063022000000004        0.0000000000000000     
  0.22829299000000000       0.75089561000000005        0.0000000000000000     
  0.26580239000000000       0.42989294000000000        0.0000000000000000     
  0.37369119000000001       0.51975733999999996        0.0000000000000000     
  0.39681665999999999       0.51027884000000001        0.0000000000000000     
  0.32086795000000001       0.65137668999999998        0.0000000000000000     
  0.31757218999999998       0.62987181000000003        0.0000000000000000     
  0.32959777000000001       0.42500900000000003        0.0000000000000000     
  0.24663835000000001       0.74537787000000000        0.0000000000000000     
  0.26354222999999999       0.41075105000000001        0.0000000000000000     
  0.28343712999999998       0.43221330000000002        0.0000000000000000     
  0.34682245000000000       0.43182289000000001        0.0000000000000000     
  0.35306810000000000       0.45344571000000000        0.0000000000000000     
  0.57327218000000002       0.15829040000000000        0.0000000000000000     
  0.51473097999999995       0.12621746000000000        0.0000000000000000     
  0.72829681999999996       0.40151571000000003        0.0000000000000000     
  0.42703184999999999       0.53501600999999999        0.0000000000000000     
  0.32612607999999998       0.75472421999999995        0.0000000000000000     
   9.9814849999999997E-002  0.28081352999999998        0.0000000000000000     
  0.13945825000000001       0.78732252999999996        0.0000000000000000     
  0.44199519999999998       0.38275643999999998        0.0000000000000000     
  0.40132215999999998       0.36508836000000000        0.0000000000000000     
  0.43963142999999999       0.34043466999999999        0.0000000000000000     
  0.47160058999999999       0.33493045999999999        0.0000000000000000     
  0.45615203999999998       0.28038164999999998        0.0000000000000000     
  0.34321279999999998       0.35314412000000001        0.0000000000000000     
  0.29178279000000001       0.56170810000000004        0.0000000000000000     
  0.49833080000000002       0.48416767999999999        0.0000000000000000     
  0.46386271000000001       0.46452802999999998        0.0000000000000000     
  0.44722043000000000       0.45300645000000000        0.0000000000000000     
  0.46562803000000003       0.44419790999999997        0.0000000000000000     
  0.43925322000000000       0.48229485999999999        0.0000000000000000     
  0.49117628000000002       0.45665803999999999        0.0000000000000000     
  0.43435156000000003       0.46523363000000001        0.0000000000000000     
  0.19405754000000000       0.31093060000000000        0.0000000000000000     
  0.22069087000000001       0.66905079000000001        0.0000000000000000     
  0.30776597999999999       0.59042684000000001        0.0000000000000000     
  0.29541507000000000       0.57849362000000004        0.0000000000000000     
  0.28335474999999999       0.61970232999999997        0.0000000000000000     
  0.29935165000000002       0.62852803999999995        0.0000000000000000     
  0.28459435999999999       0.64121777000000002        0.0000000000000000     
  0.26698675999999999       0.63435282999999998        0.0000000000000000     
  0.24031983000000001       0.64700659000000005        0.0000000000000000     
  0.33118850000000000       0.50233682999999996        0.0000000000000000     
  0.35257061000000001       0.51072803000000000        0.0000000000000000     
  0.29038973000000001       0.78732479000000000        0.0000000000000000     
  0.28737915000000003       0.76752330999999996        0.0000000000000000     
  0.21978159000000000       0.73315437000000006        0.0000000000000000     
  0.18119734000000001       0.76257752999999995        0.0000000000000000     
  0.20353571000000001       0.75186065999999996        0.0000000000000000     
  0.39122694000000002       0.49007234000000000        0.0000000000000000     
  0.59140473999999998       0.13507609000000001        0.0000000000000000     
  0.53156702000000000        9.7663528999999999E-002   0.0000000000000000     
  0.76346223999999996       0.39657278000000001        0.0000000000000000     
  0.41119013999999998       0.52354409999999996        0.0000000000000000     
   7.2558165999999993E-002  0.26885883999999999        0.0000000000000000     
  0.10497347000000000       0.79895936000000001        0.0000000000000000     
[...]
 CELL_DATA        2963
 SCALARS Tumor_cells float
 LOOKUP_TABLE default
    0.11360671266150660312E-07
    0.82873472931040068826E-08
    0.11526346936827404209E-07
    0.95285611244900679385E-08
    0.11539682616639033331E-07
    0.10275130455159971274E-07
    0.76420934128036456740E-08
    0.10488989500565479311E-07
    0.89449260758447954599E-08
    0.14634739564646124469E-02
    0.11449052232927306249E-07
    0.99215133776750882850E-08
    0.13689315664186514666E-07
    0.10916594743782607874E-07
    0.74807463650424584368E-08
    0.14747769417972194582E-07
    0.51262120576410258495E-03
    0.10604464132302851381E-07
    0.49354020220729696636E-08
    0.95474209061311449813E-08
    0.10768794170083880826E-07
    0.11881203460510669431E-01
    0.21221588943949147577E-01
    0.10127918010371758064E-07
    0.13720975426207617622E-07
    0.14091671250971062046E-07
    0.11700192688759703149E-07
    0.11301357060191677681E-07
    0.10725521448061159825E-07
    0.94472581427168357337E-08
    0.21470669397307245059E-05
    0.71326624788248273380E-08
    0.10485285993304682099E-07
    0.27166589993593511971E-07
    0.98582112727222775456E-08
    0.36757921702038405154E-07
    0.99819267500419251114E-08
    0.70123136813657429458E-07
    0.10820114761682425275E-07
    0.56475409199992967352E-02
    0.11182909790726573426E-07
    0.11630696271131837536E-07
    0.93836947654863655705E-08
    0.12679399517639800808E-07
    0.10131551895053501724E-07
    0.32291136905688643956E-05
    0.10920232425577374948E-07
    0.38917537421617567499E-08
    0.10117789323943762589E-07
    0.72332417207815450012E-08
    0.88377522548251468069E-06
    0.67530422633778989602E-08
    0.56934693568005115358E-08
    0.98111588976548142561E-08
    0.10993520283355422076E-07
    0.10436450379019688053E-05
    0.11808281381832014425E-07
    0.92452280884167614341E-06
    0.79136830036355792204E-04
    0.91267928853724604100E-08
    0.40859214247848719991E-04
    0.66301910310792892069E-08
    0.10905013712494783290E-07
    0.76427075281217457227E-08
    0.12171231506683847261E-07
    0.14310124117097152701E-04
    0.24028483392082065445E-07
    0.39586420684951762014E-04
    0.62434080533518919454E-01
    0.12195921577102931231E-07
    0.10663685004747961369E-07
    0.29219201718517912579E-04
    0.11563054028537328844E-07
    0.87502344348402725534E-08
    0.11514342510495585367E-02
    0.11336269857729333252E-02
    0.97695992828799507052E-02
    0.35489596241459721781E-03
    0.88337055627197576135E-08
    0.49654038674587738810E-05
    0.99002381799558941987E-08
    0.22447978949353135475E-05
    0.60534021827831941158E-04
    0.42402387049034536565E-02
    0.43283088546899123682E-07
    0.88734159941762362598E-08
    0.76850011707152728722E-08
    0.10255845983798554183E-07
    0.10712909460608566339E-07
    0.75664205413294934246E-08
    0.98335940655907260386E-08
    0.85889958132476853584E-06
    0.17968259873626581113E-01
    0.22722371425250163049E-05
    0.11836716479987820261E-07
    0.32317970536014702852E-06
    0.98660579690216070048E-02
    0.89446219274603931729E-08
    0.86418395104038697959E-08
    0.10388995924064153029E-07
    0.14788702594421668092E-07
    0.11553618431132410978E-07
    0.27651486162502319194E-05
    0.85322435496849424048E-08
    0.60854804194892088767E-03
    0.77759955619288665926E-08
    0.94884616196835569987E-08
    0.52706500023756567142E-08
    0.15773841052155514310E-05
    0.90926634688674059630E-08
    0.86412107799007242064E-08
    0.13110492002143512100E-07
    0.93819468790651543960E-08
    0.92299211000359875776E-08
    0.12551397988220417528E-07
    0.10836472568624912302E-07
    0.87731831893704370101E-08
    0.79499186121639495603E-08
    0.31451835502077384911E-02
    0.21780602950421181245E-03
    0.11816759127033180760E-07
    0.11932483120086379550E-07
    0.93522006758992220820E-08
    0.36429482055415360030E-07
    0.60131879433449640445E-08
    0.16259125797023536752E-07
    0.69909051999316607420E-08
    0.75296918972485362226E-05
    0.88056365838473788090E-05
    0.12678462520409635025E-03
    0.16141682244899394579E-07
    0.65155352920407006054E-06
    0.95570674441171447888E-02
    0.21129877133063484564E-07
    0.19926427239222150215E-05
    0.12545987371591311521E-03
    0.11993864222621529903E-03
    0.18283198748119926987E-06
    0.14289311619297056466E-07
    0.85702924295707785368E-05
    0.10982541264995317480E-03
    0.12294705869428077024E-07
    0.10572126870267771481E+00
    0.75288971513974548466E-04
    0.22277055628631902779E-04
    0.12251863381412671542E-07
    0.13054544171293120748E-07
    0.14399370086527083303E-07
    0.96910845063683123537E-08
    0.23854737520381296339E-04
    0.86944740441242942746E-08
    0.89452460516124404633E-01
    0.31684077792368003132E-04
    0.10610404050085991352E-07
    0.10541956254999136657E-07
    0.81152420257736554232E-08
    0.66472110944385886517E-08
    0.62248905324902384845E-08
    0.11836836464583403006E-07
    0.11506108730442578038E-07
    0.85924979732443435076E-08
    0.15050418672042666989E-07
    0.13868728811514775545E-07
    0.30716814726987550453E-05
    0.94816509916998792100E-08
    0.80590328371550127960E-05
    0.77786157924631501274E-08
    0.40544159162782924826E-06
    0.21950106430575553988E-02
    0.26326320129299648605E-07
    0.65636481994298459530E-02
    0.11770310274688074893E-07
    0.11604108638327273813E-07
    0.39478086941865367840E-06
    0.12096807711617545542E-07
    0.12012723398669045823E-07
    0.98095489213606952026E-08
    0.86642437572871036598E-08
    0.70125337117544597599E-08
    0.61003918135783567166E-08
    0.15935344292996897302E-02
    0.11236187399191034576E-07
    0.49032200528027133694E-07
    0.12664142904350347321E-07
    0.12292832294097939712E-07
    0.12013428627127076254E-07
    0.51526140620351611760E-06
    0.16535824512096400041E-07
    0.59259080178703638477E-04
    0.11211359862805296857E-07
    0.83043629893125065513E-08
    0.24906184843695867992E-01
    0.86768621310307455592E-08
    0.51651582646948861620E-08
    0.10499363362239081017E-02
    0.72419515117181927927E-08
    0.84995312085280744219E-02
    0.20441038348315839443E-06
    0.47979863475016463446E-06
    0.79271401502249927476E-08
    0.30485922290870453104E-07
    0.59470400126703586476E-08
    0.10039369621664411268E-07
    0.87253849531429263049E-06
    0.31191081928938005352E-01
    0.24480178147728445803E-01
    0.14820862654149510739E-06
    0.22218940088628562346E-01
    0.51318793126432601936E-01
    0.84270998419720214272E-08
    0.12220821129857942752E-07
    0.16037605684602239398E-01
    0.33071883173056211558E-01
    0.65044816804686159100E-08
    0.92852654024065632010E-08
    0.93468281731592256727E-08
    0.26740378529922854773E-07
    0.13551176449246296396E-05
    0.41960481442479904707E-03
    0.16304447072610054080E-04
    0.79003785836791900225E-08
    0.91830635447047005555E-08
    0.20280936482622804127E-07
    0.62875148022832920078E-04
    0.22866775995970424072E-04
    0.77002113925638306073E-08
    0.35060129793799599676E-06
    0.32107110680672870186E-07
    0.22144308187218453421E-07
    0.61778050807884167471E-05
    0.14813002224860116969E-06
    0.10813027683795025076E-06
    0.90487862711806173792E-08
    0.16465112306882250036E-03
    0.11092143986553723108E-07
    0.24980023249334425194E-04
    0.10755594178696491241E-07
    0.20636239215261584397E-02
    0.61107487937445088833E-01
    0.80144958806972838028E-01
    0.11297719855060401050E-04
    0.81876323402982927705E-08
    0.28863675516992040419E-02
    0.78551483623003764967E-02
    0.11541321054811853192E-01
    0.12022317160623921728E-07
    0.11463634695920772071E-03
    0.19339576271409791456E-04
    0.27662670189275747325E-07
    0.21732042759824141132E-01
    0.36800226157221722738E-02
    0.95247618443788265956E-08
    0.11279023176377262312E-07
    0.10140694522616996998E+00
    0.13062356107519692940E-07
    0.11452260579843409343E-07
    0.33508129233519564184E-06
    0.84206412285854924165E-07
    0.83804925859789075604E-02
    0.91601905779555839107E-08
    0.63359420321911358309E-02
    0.45089823272671022275E-02
    0.34322986633070467349E-02
    0.82715376722854453545E-08
    0.13558344848103882213E-01
    0.10485413220198377719E-07
    0.10322041462677659929E+00
    0.59825692463565671719E-02
    0.89801902369408663235E-04
    0.18782644802890637037E-01
    0.97974119725180034103E-08
    0.28860862887791668670E-03
    0.84533731028238103672E-02
    0.16376073860264114281E-03
    0.10667802975298688265E-02
    0.99614656316589633528E-08
    0.62117419940655425316E-08
    0.94356091019323919037E-08
    0.59106038994303573587E-08
    0.29449441338732232831E-03
    0.78745384646790630933E-08
    0.37701303005523492594E-05
    0.75874805625971698134E-07
    0.10767318948599976622E-07
    0.61540591697989627858E-03
    0.71709596460154698631E-08
    0.45162504965104511082E-02
    0.25766854882997421118E-03
    0.35264738049057475839E-07
    0.10396861511088136988E-07
    0.11148120682651629087E-07
    0.11336213562677102865E-07
    0.35099564100195116724E-03
    0.13503330651696690271E-07
    0.16906505344912899550E-07
    0.26436732403601944513E-02
    0.10747189021793025158E-02
    0.84139172013962496192E-08
    0.73067300617050190414E-01
    0.79580791345606590663E-04
    0.24110155863563915496E-07
    0.10031096100847191471E-02
    0.52058080846205036053E-05
    0.12670285515414878297E-07
    0.17531323002766429800E-06
    0.10460619039279711465E-07
    0.45012930637220692487E-02
    0.78592013276943285915E-08
    0.16182477579305149656E-01
    0.76036536270027084731E-04
    0.35460269147381568312E-03
    0.16705700717565979419E-06
    0.46186075060715145251E-04
    0.15632267173644587136E-03
    0.10206915032095692414E-07
    0.97230847935087954456E-08
    0.10703937233262990582E-05
    0.53475332650326720854E-06
    0.18116318939422201232E-03
    0.10199989207198276449E-07
    0.20213846574527435221E-06
    0.10609957747138467250E-07
    0.21037278033235347060E-07
    0.13079995681237555775E-07
    0.11829958180011495451E-07
    0.73416360552215330678E-07
    0.86518049304391622691E-08
    0.83415120699642812587E-03
    0.46883920443922012613E-07
    0.38519463355169937046E-08
    0.11362298484040400214E-03
    0.97861477162586864807E-05
    0.11050826232823605360E-07
    0.11762111745991325349E-07
    0.21992986031511590329E-07
    0.10946564601967754014E-07
    0.54203194025634189545E-07
    0.12748170392624901456E-05
    0.11953647818538428706E-07
    0.12412669596564276149E-07
    0.11604399058685292074E-07
    0.13995475429267297738E-07
    0.29270162279714080881E-07
    0.14376550349311684875E-07
    0.29339911387777431462E-02
    0.20975912937915143323E-02
    0.73614216944019396539E-05
    0.36771003428687282019E-07
    0.14292496679874982934E-07
    0.92976830309022349965E-08
    0.92584957703077449003E-08
    0.12330587421862458568E-07
    0.12424444561318601380E-07
    0.10104549060874198560E-07
    0.11505887304228864337E-07
    0.68468175087999160395E-08
    0.57707539761802045244E-08
    0.70698566705942300909E-08
    0.50796228492342710073E-08
    0.11095028616895518316E-07
    0.88538277288628634790E-08
    0.56689135515374317126E-08
    0.73539357118408334388E-08
    0.11264302818527162960E-07
    0.58205094021435926581E-08
    0.92521166178519537425E-08
    0.11765281938422840543E-06
    0.82809410947373682067E-06
    0.12564846240889301909E+00
    0.15064018762715836869E-01
    0.24266431743256270531E-01
    0.19867858987048177960E-01
    0.20240061636434849429E-01
    0.22258967159357236770E-01
    0.34037014672512765079E-01
    0.56491541151755676753E-01
    0.33814165513066200830E-01
    0.13230736983521410033E-01
    0.29917998238239609798E-01
    0.67569133399790426431E-01
    0.21538906728322627926E-01
    0.13808224782978641143E-01
    0.10292991337463529869E-07
    0.97010717619523702713E-08
    0.11544436997724213727E-07
    0.13521967919000874625E-07
    0.14092980797030711413E-05
    0.38188399759812728768E-05
    0.18220140867123247912E-06
    0.48204121198426978993E-05
    0.75343916173240064603E-07
    0.34863082720763097739E-07
    0.23698753034547866647E-07
    0.92605085606337806787E-07
    0.14430901986917952177E-07
    0.15145374925844338104E-07
    0.10320116836612736042E-07
    0.24922333799909705250E-07
    0.91724682143905253391E-08
    0.13425570613073593901E-07
    0.98181677558181436804E-04
    0.17175764028288674403E-03
    0.13380121984543069929E-02
    0.66321088455313507212E-03
    0.12271231910562385679E-07
    0.93795003195104723456E-08
    0.10353370050830738946E-07
    0.13089699881744924967E-07
    0.89281959031507989660E-08
    0.10286323119558739204E-07
    0.11280500402342758921E-07
    0.87525197218831009405E-08
    0.11378196194959674910E-07
    0.96596456278419660254E-08
    0.27069651868972342129E-02
    0.51475149899803040662E-02
    0.81624572249993658645E-08
    0.16544071491372320691E-03
    0.91716550518350334156E-08
    0.74346172885884640964E-08
    0.11326841899067787642E-07
    0.54933470510423103435E-07
    0.26786965589749673008E-07
    0.89421592466580428205E-02
    0.70567412311769786570E-02
    0.70035630281083175675E-08
    0.12448537598814159837E-07
    0.73779490460396687638E-08
    0.85119988377354633860E-08
    0.10239738911752536343E-07
    0.11806542316277489182E-07
    0.10804122648095021795E-07
    0.84583125343611197600E-08
    0.67744830240670119147E-08
    0.57534115162472871530E-08
    0.83594615753569996597E-08
    0.78776851682795144823E-08
    0.49118630948320242962E-08
    0.75292104030357214364E-08
    0.49392671714012555925E-08
    0.65817342463348275235E-08
    0.61160958369967049759E-08
    0.52395892518879502749E-08
    0.62231773752101977614E-08
    0.11783250126535119273E-07
    0.10844673104816952809E-07
    0.75794416890182060128E-08
    0.10747497329018602577E-07
    0.53984413707677728368E-08
    0.76907380537487304812E-08
    0.55050016957333561184E-08
    0.82813726539715690862E-08
    0.71066017328681829087E-08
    0.20561825019316284830E-07
    0.68638077174123473057E-08
    0.79636262887358988124E-08
    0.34732958364732129022E-04
    0.37288351131095014390E-05
    0.61051732166025180875E-05
    0.10277036473093483307E-04
    0.10380680453178119105E+00
    0.54027902063286829815E-01
    0.11838057730400058931E+00
    0.10606031724685981155E+00
    0.10427926105780816634E-07
    0.96077253400559192652E-08
    0.10539218594248005529E-07
    0.10846991296480473870E-07
    0.86540334911444690863E-08
    0.92124498958766398251E-08
    0.10798749717492321482E-07
    0.13629824036027840432E-07
    0.38663179470183423976E-07
    0.73261562689059248380E-07
    0.13388745248987263591E-07
    0.98617533055075141088E-08
    0.12378954594050242014E-07
    0.59822508598600798773E-07
    0.13643673643769317271E-07
    0.15301301597338115340E-05
    0.44106644008005988161E-07
    0.13908106781202264493E-06
    0.52582798643457057477E-04
    0.47470853488802754270E-03
    0.14399807658942377736E-04
    0.40510206779902455815E-04
    0.24889949899901611533E-03
    0.54135923603480340209E-03
    0.18683479648583893313E-03
    0.54937173973210667388E-04
    0.57839290095635548814E-04
    0.12437800147424725905E-03
    0.12778175532867920755E-07
    0.11791104943871695819E-07
    0.14629268865655376122E-07
    0.12733332733067032139E-07
    0.11707371475917100859E-07
    0.10671115231259542859E-07
    0.92827591134950863949E-02
    0.12230483500182425319E-01
    0.60239440647956963114E-08
    0.92442433082666607889E-08
    0.94021488846773972246E-08
    0.18269178807437538653E-07
    0.32281838127196448332E-07
    0.54825160876517508323E-08
    0.87502333013660198182E-08
    0.84614592116990217974E-08
    0.66412835569567807935E-08
    0.67055442780138876780E-08
    0.52841441232126508653E-08
    0.84812781152168518882E-08
    0.87729067761520673763E-01
    0.99436515195595279182E-01
    0.12124868251169951261E+00
    0.12569607661885334737E+00
    0.10807494407531895579E-07
    0.10621270426324164166E-07
    0.96231377346700532302E-08
    0.92488515565836103636E-08
    0.12886829708881183628E-07
    0.92891923654215324214E-08
    0.12604392724027261843E-07
    0.13359190661168994083E-07
    0.91912023707653278868E-07
    0.35362155952902491258E-06
    0.26624143009585557503E-07
    0.18757745023872274049E-06
    0.18634308034699436783E-06
    0.20255671671331721112E-04
    0.78531070065826030651E-06
    0.16315301342367433879E-05
    0.81954206316208573144E-03
    0.21907944628390477724E-03
    0.35211064149287470441E-03
    0.15595491069183317449E-03
    0.36612918210409919244E-03
    0.54799860778363500540E-03
    0.31189559914011289669E-04
    0.20635344197172670786E-03
    0.14069881801694289307E-04
    0.26640300578103154111E-04
    0.56268678574433193048E-05
    0.98509983907830885602E-07
    0.55797330879422999908E-05
    0.96203853348173848782E-05
    0.67162854191291192828E-05
    0.34230567528427060098E-05
    0.11972697104010618422E-07
    0.13061884754494125461E-07
    0.13875118492534545970E-07
    0.53966188643766889399E-08
    0.10568948185126796518E-07
    0.10699525729148993658E-07
    0.12110696802194464853E-07
    0.96619709154344752978E-08
    0.88761151233589103180E-08
    0.10654799462084680152E-07
    0.10428398706775446831E-07
    0.12359075240540964726E-07
    0.10337337615754639378E-07
    0.10574925317834926958E-07
    0.61498037171567862897E-08
    0.60142904095153638613E-08
    0.63253132872577510188E-08
    0.61654999307471915826E-08
    0.72087001830324434123E-08
    0.81690971120963382981E-08
    0.66364492411406135085E-08
    0.55371726298283270897E-08
    0.10452163092092410512E+00
    0.12355988696411908390E+00
    0.22665090877770059355E-07
    0.12878772559909198738E-07
    0.14614130016521279482E-07
    0.18499893696715660603E-07
    0.13991121364726786948E-07
    0.11493879251811885144E-07
    0.96784064494324965952E-08
    0.15172565709920190281E-07
    0.23227132750088384008E-04
    0.45791556222706053059E-07
    0.37588726461774836886E-06
    0.49342977999212431540E-07
    0.25700323448420839301E-07
    0.14803532704330761349E-06
    0.13596081424913840553E-07
    0.10584110896606952734E-07
    0.78289751685411281082E-06
    0.12858274767935743385E-05
    0.33586810822208263701E-06
    0.36127303329297453618E-05
    0.48984196402350569528E-07
    0.17410291838503118326E-05
    0.65247051696965778562E-05
    0.11140712287613387495E-04
    0.27297462347649644470E-05
    0.56295979786588166502E-05
    0.24586369555183620710E-03
    0.46890055930129398562E-03
    0.10581392203746688586E-02
    0.51408822119992567384E-03
    0.22739602318333279260E-02
    0.15037719030261157901E-02
    0.17852973402710154999E-03
    0.84844411261883465112E-04
    0.82802392071764309053E-08
    0.91970341798819985929E-08
    0.15213660711760608498E-04
    0.38284247041293668025E-05
    0.17122284466473247214E-07
    0.54208170556643628825E-07
    0.10645574992854016486E-07
    0.90320311150611610602E-07
    0.62294234460203366775E-07
    0.18239522044036059833E-05
    0.12737548069653864628E-07
    0.28235791890966754622E-07
    0.86264228537719259685E-08
    0.96488553532659575015E-08
    0.95152982021614910343E-07
    0.29250192512883765547E-07
    0.90181127782260201572E-08
    0.83983248581039582575E-08
    0.72504260771129800843E-08
    0.85084978043089466158E-08
    0.86617390428536363988E-08
    0.87263942542146512807E-08
    0.66329216512394238472E-08
    0.11286069559364641530E-07
    0.11103155353066683729E-07
    0.11706852291664282039E-07
    0.62598456319405585013E-08
    0.10181113388905165471E-07
    0.95993228389816001818E-08
    0.85438170114020575827E-08
    0.37068806671792628622E-02
    0.36866027669134069440E-04
    0.64985100721002945785E-03
    0.43071493261286579587E-03
    0.30715254329922558451E-03
    0.19694329904206554603E-04