# vtk DataFile Version 3.0
LAPLACIEN  2D
ASCII
DATASET UNSTRUCTURED_GRID
 POINTS        7297  float
   1.5625000000000000E-002  0.96875000000000000        0.0000000000000000     
   3.1250000000000000E-002  0.96875000000000000        0.0000000000000000     
   3.1250000000000000E-002  0.98437500000000000        0.0000000000000000     
   9.3749999999999997E-003  0.97812500000000002        0.0000000000000000     
   2.0312500000000001E-002  0.97968750000000004        0.0000000000000000     
   2.1874999999999999E-002  0.99062499999999998        0.0000000000000000     
   1.0937499999999999E-002  0.98906249999999996        0.0000000000000000     
   4.6875000000000000E-002  0.96875000000000000        0.0000000000000000     
   6.2500000000000000E-002  0.96875000000000000        0.0000000000000000     
   6.2500000000000000E-002  0.98437500000000000        0.0000000000000000     
   4.0625000000000001E-002  0.97812500000000002        0.0000000000000000     
   5.1562499999999997E-002  0.97968750000000004        0.0000000000000000     
   5.3124999999999999E-002  0.99062499999999998        0.0000000000000000     
   4.2187500000000003E-002  0.98906249999999996        0.0000000000000000     
   1.5625000000000000E-002  0.93750000000000000        0.0000000000000000     
   3.1250000000000000E-002  0.93750000000000000        0.0000000000000000     
   3.1250000000000000E-002  0.95312500000000000        0.0000000000000000     
   9.3749999999999997E-003  0.94687500000000002        0.0000000000000000     
   2.0312500000000001E-002  0.94843750000000004        0.0000000000000000     
   2.1874999999999999E-002  0.95937499999999998        0.0000000000000000     
   1.0937499999999999E-002  0.95781249999999996        0.0000000000000000     
   4.6875000000000000E-002  0.93750000000000000        0.0000000000000000     
   6.2500000000000000E-002  0.93750000000000000        0.0000000000000000     
   6.2500000000000000E-002  0.95312500000000000        0.0000000000000000     
   4.0625000000000001E-002  0.94687500000000002        0.0000000000000000     
   5.1562499999999997E-002  0.94843750000000004        0.0000000000000000     
   5.3124999999999999E-002  0.95937499999999998        0.0000000000000000     
   4.2187500000000003E-002  0.95781249999999996        0.0000000000000000     
   7.8125000000000000E-002  0.96875000000000000        0.0000000000000000     
   9.3750000000000000E-002  0.96875000000000000        0.0000000000000000     
   9.3750000000000000E-002  0.98437500000000000        0.0000000000000000     
   7.1874999999999994E-002  0.97812500000000002        0.0000000000000000     
   8.2812499999999997E-002  0.97968750000000004        0.0000000000000000     
   8.4375000000000006E-002  0.99062499999999998        0.0000000000000000     
   7.3437500000000003E-002  0.98906249999999996        0.0000000000000000     
  0.10937500000000000       0.96875000000000000        0.0000000000000000     
  0.12500000000000000       0.96875000000000000        0.0000000000000000     
  0.12500000000000000       0.98437500000000000        0.0000000000000000     
  0.10312499999999999       0.97812500000000002        0.0000000000000000     
  0.11406250000000000       0.97968750000000004        0.0000000000000000     
  0.11562500000000001       0.99062499999999998        0.0000000000000000     
  0.10468750000000000       0.98906249999999996        0.0000000000000000     
   7.8125000000000000E-002  0.93750000000000000        0.0000000000000000     
   9.3750000000000000E-002  0.93750000000000000        0.0000000000000000     
   9.3750000000000000E-002  0.95312500000000000        0.0000000000000000     
   7.1874999999999994E-002  0.94687500000000002        0.0000000000000000     
   8.2812499999999997E-002  0.94843750000000004        0.0000000000000000     
   8.4375000000000006E-002  0.95937499999999998        0.0000000000000000     
   7.3437500000000003E-002  0.95781249999999996        0.0000000000000000     
  0.10937500000000000       0.93750000000000000        0.0000000000000000     
  0.12500000000000000       0.93750000000000000        0.0000000000000000     
  0.12500000000000000       0.95312500000000000        0.0000000000000000     
  0.10312499999999999       0.94687500000000002        0.0000000000000000     
  0.11406250000000000       0.94843750000000004        0.0000000000000000     
  0.11562500000000001       0.95937499999999998        0.0000000000000000     
  0.10468750000000000       0.95781249999999996        0.0000000000000000     
   1.5625000000000000E-002  0.90625000000000000        0.0000000000000000     
   3.1250000000000000E-002  0.90625000000000000        0.0000000000000000     
   3.1250000000000000E-002  0.92187500000000000        0.0000000000000000     
   9.3749999999999997E-003  0.91562500000000002        0.0000000000000000     
   2.0312500000000001E-002  0.91718750000000004        0.0000000000000000     
   2.1874999999999999E-002  0.92812499999999998        0.0000000000000000     
   1.0937499999999999E-002  0.92656249999999996        0.0000000000000000     
   4.6875000000000000E-002  0.90625000000000000        0.0000000000000000     
   6.2500000000000000E-002  0.90625000000000000        0.0000000000000000     
   6.2500000000000000E-002  0.92187500000000000        0.0000000000000000     
   4.0625000000000001E-002  0.91562500000000002        0.0000000000000000     
   5.1562499999999997E-002  0.91718750000000004        0.0000000000000000     
   5.3124999999999999E-002  0.92812499999999998        0.0000000000000000     
   4.2187500000000003E-002  0.92656249999999996        0.0000000000000000     
   1.5625000000000000E-002  0.87500000000000000        0.0000000000000000     
   3.1250000000000000E-002  0.87500000000000000        0.0000000000000000     
   3.1250000000000000E-002  0.89062500000000000        0.0000000000000000     
   9.3749999999999997E-003  0.88437500000000002        0.0000000000000000     
   2.0312500000000001E-002  0.88593750000000004        0.0000000000000000     
   2.1874999999999999E-002  0.89687499999999998        0.0000000000000000     
   1.0937499999999999E-002  0.89531249999999996        0.0000000000000000     
   4.6875000000000000E-002  0.87500000000000000        0.0000000000000000     
   6.2500000000000000E-002  0.87500000000000000        0.0000000000000000     
   6.2500000000000000E-002  0.89062500000000000        0.0000000000000000     
   4.0625000000000001E-002  0.88437500000000002        0.0000000000000000     
   5.1562499999999997E-002  0.88593750000000004        0.0000000000000000     
   5.3124999999999999E-002  0.89687499999999998        0.0000000000000000     
   4.2187500000000003E-002  0.89531249999999996        0.0000000000000000     
   7.8125000000000000E-002  0.90625000000000000        0.0000000000000000     
   9.3750000000000000E-002  0.90625000000000000        0.0000000000000000     
   9.3750000000000000E-002  0.92187500000000000        0.0000000000000000     
   7.1874999999999994E-002  0.91562500000000002        0.0000000000000000     
   8.2812499999999997E-002  0.91718750000000004        0.0000000000000000     
   8.4375000000000006E-002  0.92812499999999998        0.0000000000000000     
   7.3437500000000003E-002  0.92656249999999996        0.0000000000000000     
  0.10937500000000000       0.90625000000000000        0.0000000000000000     
  0.12500000000000000       0.90625000000000000        0.0000000000000000     
  0.12500000000000000       0.92187500000000000        0.0000000000000000     
  0.10312499999999999       0.91562500000000002        0.0000000000000000     
  0.11406250000000000       0.91718750000000004        0.0000000000000000     
  0.11562500000000001       0.92812499999999998        0.0000000000000000     
  0.10468750000000000       0.92656249999999996        0.0000000000000000     
   7.8125000000000000E-002  0.87500000000000000        0.0000000000000000     
   9.3750000000000000E-002  0.87500000000000000        0.0000000000000000     
   9.3750000000000000E-002  0.89062500000000000        0.0000000000000000     
   7.1874999999999994E-002  0.88437500000000002        0.0000000000000000     
   8.2812499999999997E-002  0.88593750000000004        0.0000000000000000     
   8.4375000000000006E-002  0.89687499999999998        0.0000000000000000     
   7.3437500000000003E-002  0.89531249999999996        0.0000000000000000     
  0.10937500000000000       0.87500000000000000        0.0000000000000000     
  0.12500000000000000       0.87500000000000000        0.0000000000000000     
  0.12500000000000000       0.89062500000000000        0.0000000000000000     
  0.10312499999999999       0.88437500000000002        0.0000000000000000     
  0.11406250000000000       0.88593750000000004        0.0000000000000000     
  0.11562500000000001       0.89687499999999998        0.0000000000000000     
  0.10468750000000000       0.89531249999999996        0.0000000000000000     
  0.14062500000000000       0.96875000000000000        0.0000000000000000     
  0.15625000000000000       0.96875000000000000        0.0000000000000000     
  0.15625000000000000       0.98437500000000000        0.0000000000000000     
  0.13437499999999999       0.97812500000000002        0.0000000000000000     
  0.14531250000000001       0.97968750000000004        0.0000000000000000     
  0.14687500000000001       0.99062499999999998        0.0000000000000000     
  0.13593749999999999       0.98906249999999996        0.0000000000000000     
  0.17187500000000000       0.96875000000000000        0.0000000000000000     
  0.18750000000000000       0.96875000000000000        0.0000000000000000     
  0.18750000000000000       0.98437500000000000        0.0000000000000000     
  0.16562499999999999       0.97812500000000002        0.0000000000000000     
  0.17656250000000001       0.97968750000000004        0.0000000000000000     
  0.17812500000000001       0.99062499999999998        0.0000000000000000     
[...]
 CELL_DATA       14336
 SCALARS Nutrients float
 LOOKUP_TABLE default
    0.11743872670430390655E-04
    0.11652074811713593073E-04
    0.12313530038663627280E-04
    0.12313530037929446226E-04
    0.11652074810146595673E-04
    0.11743872666682977983E-04
    0.11215191231602474902E-04
    0.10905732271941742561E-04
    0.10572319675958535400E-04
    0.10572319676353637307E-04
    0.10905732273725768437E-04
    0.11215191236434702998E-04
    0.11166015256141628755E-04
    0.11166015255652026771E-04
    0.13901965596203046691E-04
    0.14476995106334515631E-04
    0.16041489993562625622E-04
    0.16471135868012389371E-04
    0.15301542134909245513E-04
    0.15870730507139292197E-04
    0.14637620728621883183E-04
    0.13614764771283836370E-04
    0.12537969580027370431E-04
    0.12142732786374292784E-04
    0.12821995385198071775E-04
    0.12734938392931683903E-04
    0.13788873234025698472E-04
    0.14024921267050092185E-04
    0.15870730516679976547E-04
    0.15301542141264028884E-04
    0.16471135872438522768E-04
    0.16041489997003907035E-04
    0.14476995109454766475E-04
    0.13901965597553569574E-04
    0.12734938394359573082E-04
    0.12821995388603987868E-04
    0.12142732790496061832E-04
    0.12537969585182700939E-04
    0.13614764778356032931E-04
    0.14637620739639281385E-04
    0.14024921272518887564E-04
    0.13788873238481259487E-04
    0.18755190858936913410E-04
    0.19005348422567841212E-04
    0.21442704062980628076E-04
    0.21442704063119372073E-04
    0.19005348421485234849E-04
    0.18755190855700803706E-04
    0.16592431615523855749E-04
    0.15977092111403079012E-04
    0.14367253741469514892E-04
    0.14367253742120969626E-04
    0.15977092112635495009E-04
    0.16592431618437933691E-04
    0.17302676036862820212E-04
    0.17302676036526571849E-04
    0.19668476997972484576E-04
    0.21219032446687885414E-04
    0.24256230377933106241E-04
    0.25384950250523104470E-04
    0.23374938781296244252E-04
    0.24732922163234163964E-04
    0.22335527826631820298E-04
    0.20110204783846251402E-04
    0.17811563858252247086E-04
    0.16828239035068569350E-04
    0.18065746607963652307E-04
    0.17471872136786928436E-04
    0.20155937818162197677E-04
    0.20771985943513631318E-04
    0.31173309690879062196E-04
    0.34290111494270723706E-04
    0.39648413578094308289E-04
    0.41822306103570564787E-04
    0.38435400303066262126E-04
    0.40938439320846953739E-04
    0.36706610108731694197E-04
    0.32682435426851696102E-04
    0.28497016655747051751E-04
    0.26594721378776605471E-04
    0.28748753078860779633E-04
    0.27330826560810513032E-04
    0.32605569590647878579E-04
    0.33788672445608394594E-04
    0.26307639416700842003E-04
    0.27518373486089504692E-04
    0.31791518021075743040E-04
    0.32359028919228766748E-04
    0.28559051800895535260E-04
    0.28774258293973184269E-04
    0.25030171829809491450E-04
    0.23378103494439704985E-04
    0.20312834198972734654E-04
    0.19852693939771170800E-04
    0.22418373338923565765E-04
    0.22707129182985216222E-04
    0.25054463816635852842E-04
    0.25345970503506858929E-04
    0.40600877878208289570E-04
    0.43380719072278874711E-04
    0.50731405276822849561E-04
    0.52243950156885985369E-04
    0.46160126657722618231E-04
    0.47117723568130727982E-04
    0.40803711849233803555E-04
    0.37486883357024504502E-04
    0.32088725840441511324E-04
    0.30871164566294547805E-04
    0.34934818585839196676E-04
    0.34711927214962510959E-04
    0.39685779471023910217E-04
    0.40465296779160193170E-04
    0.24732922182361465567E-04
    0.23374938796846424075E-04
    0.25384950265525135392E-04
    0.24256230390352865743E-04
    0.21219032456831043971E-04
    0.19668477004426550373E-04
    0.17471872141149324297E-04
    0.18065746616739432025E-04
    0.16828239045159909819E-04
    0.17811563870089857785E-04
    0.20110204798936119641E-04
    0.22335527847728727614E-04
    0.20771985956664058381E-04
    0.20155937829600527208E-04
    0.28774258306447062400E-04
    0.28559051811693474002E-04
    0.32359028931606709928E-04
    0.31791518032161310454E-04
    0.27518373492676737621E-04
    0.26307639418574360298E-04
    0.22707129182244845052E-04
    0.22418373342404423944E-04
    0.19852693943980450210E-04
    0.20312834204987305548E-04
    0.23378103502796657403E-04
    0.25030171841251209114E-04
    0.25345970511411956540E-04
    0.25054463823235798042E-04
    0.40938439376007433330E-04
    0.38435400350079558702E-04
    0.41822306153122039635E-04
    0.39648413621463885967E-04
    0.34290111527961188132E-04
    0.31173309714809132090E-04
    0.27330826577793523624E-04
    0.28748753103849450976E-04
    0.26594721402209707583E-04
    0.28497016684880234976E-04
    0.32682435466602904883E-04
    0.36706610162874399328E-04
    0.33788672483627183829E-04
    0.32605569624610193148E-04
    0.47117723619006420259E-04
    0.46160126704526623130E-04
    0.52243950212421653122E-04
    0.50731405328025320372E-04
    0.43380719108160972514E-04
    0.40600877901923145333E-04
    0.34711927229249056538E-04
    0.34934818607694110388E-04
    0.30871164584177452977E-04
    0.32088725864149787335E-04
    0.37486883390795220218E-04
    0.40803711891950989680E-04
    0.40465296815104456415E-04
    0.39685779503629528726E-04
    0.39310043369891216531E-04
    0.40257227314618718097E-04
    0.46601986211873128770E-04
    0.46601986209372036989E-04
    0.40257227310546502171E-04
    0.39310043360765188690E-04
    0.33530548401494197940E-04
    0.32193696632860800873E-04
    0.27758922473879341314E-04
    0.27758922475189884242E-04
    0.32193696637413819804E-04
    0.33530548413377114737E-04
    0.35858951453107721448E-04
    0.35858951451848996607E-04
    0.58913457270256622549E-04
    0.61699434525033691377E-04
    0.72373444691139170301E-04
    0.73358092584047902341E-04
    0.63413187736048180938E-04
    0.62866968539441537081E-04
    0.53301979084650563342E-04
    0.50223506462247543961E-04
    0.42657163237451776018E-04
    0.41988425189506716265E-04
    0.48750102028693855850E-04
    0.49778969760540956932E-04
    0.55222108077780748152E-04
    0.55688625411167650553E-04
    0.62866968600033693373E-04
    0.63413187787931063152E-04
    0.73358092643355224849E-04
    0.72373444739785044956E-04
    0.61699434558035680647E-04
    0.58913457288158995926E-04
    0.49778969765927666348E-04
    0.48750102046947002511E-04
    0.41988425205089269687E-04
    0.42657163261213848786E-04
    0.50223506500431653698E-04
    0.53301979139548794756E-04
    0.55688625449048224339E-04
    0.55222108110010744819E-04
    0.91565214674501491034E-04
    0.94226034244683181773E-04
    0.11033734332408930254E-03
    0.11033734331361184379E-03
    0.94226034225169683967E-04
    0.91565214629916576931E-04
    0.76935479258759544257E-04
    0.73794237628932107614E-04
    0.62634604398273017404E-04
    0.62634604407407827283E-04
    0.73794237648690540242E-04
    0.76935479306341247375E-04
    0.83132536589800454935E-04
    0.83132536584140106443E-04
    0.51798564096960746355E-04
    0.57394250847750896021E-04
    0.66672539117859392233E-04
    0.70559302043711019355E-04
    0.64776906259254358631E-04
    0.69191222467375706855E-04
    0.61891812240974980247E-04
    0.54865327578496159264E-04
    0.47585804192609883331E-04
    0.44222448872780712533E-04
    0.47889944644726009822E-04
    0.45254951823354871879E-04
    0.54608433974814441089E-04
    0.56709879277853742169E-04
    0.87883894287214267072E-04
    0.97658955908682496959E-04
    0.11379269432279122127E-03
    0.12049276044295170220E-03
    0.11040699761039904716E-03
    0.11791311014265268287E-03
    0.10535619264374719898E-03
    0.93270909573589576378E-04
    0.80692623544474496411E-04
    0.74874695207555790814E-04
    0.81189881822252545768E-04
    0.76549772205860549938E-04
    0.92836954981743684680E-04
    0.96473597083264784626E-04
    0.66310806996301550507E-04
    0.71751562240483551976E-04
    0.84500064644548253260E-04
    0.87608294468607828399E-04
    0.77385642137377971231E-04
    0.79448165316168634304E-04
    0.68567130609028457662E-04
    0.62562177358263087448E-04
    0.53225995723439531980E-04
    0.50837620466836649610E-04
    0.57486440437307953987E-04
    0.56448830079627652478E-04
    0.65833100059261065971E-04
    0.67400479867855004668E-04
    0.11202830599877744260E-03
    0.12206150133336864040E-03
    0.14443679853807313328E-03
    0.15015837265967358141E-03
    0.13235223286094162528E-03
    0.13603600709925707827E-03
    0.11709389013720774306E-03
    0.10653896764619635396E-03
    0.90301374447669175609E-04
    0.85983051184893081976E-04
    0.97329415336416534349E-04
    0.95058851890885480928E-04
    0.11197582402071946787E-03
    0.11482967023619546326E-03
    0.15048773884429342902E-03
    0.16709508266730358373E-03
    0.19483288719658473304E-03
    0.20583809743402372975E-03
    0.18826532064907870083E-03
    0.20051667561356566498E-03
    0.17929571019829998696E-03
    0.15894237754067962447E-03
    0.13756310024327916960E-03
    0.12766039984757075114E-03
    0.13861089233672027848E-03
    0.13082198199610846584E-03
    0.15852242560684257273E-03
    0.16459996638465304673E-03
    0.25732272673483494929E-03
    0.28432772091602578641E-03
    0.33124434250536035186E-03
    0.34821240144636717581E-03
    0.31776603245093287082E-03
    0.33666796063116301600E-03
    0.30182948344831310667E-03
    0.26862976184444570292E-03
    0.23313183430145835093E-03
    0.21681813598058185307E-03
    0.23566150026655790757E-03
    0.22330928881126612100E-03
    0.26892550351196345100E-03
    0.27865063580326607110E-03
    0.19325288492419038849E-03
    0.21099447477258793590E-03
    0.25063670747690615067E-03
    0.26035020311811749895E-03
    0.22844967557881652970E-03
    0.23397777470944054615E-03
    0.20087784820557697766E-03
    0.18303866254023836162E-03
    0.15479816094524003617E-03
    0.14741273706962468542E-03
    0.16733763069284759810E-03
    0.16332931945192797154E-03
    0.19302336137424052080E-03
    0.19787978291366129045E-03
    0.33682978050144648336E-03
    0.36674091280899142730E-03
    0.43671885637136808071E-03
    0.45156256651369540856E-03
    0.39379611143520640813E-03
    0.40013329627036284264E-03
    0.34265064608660257420E-03
    0.31397585405031622815E-03
    0.26536395942198458091E-03
    0.25350143067016695257E-03
    0.28915216866154722477E-03
    0.28341511847266280142E-03
    0.33365214948426175729E-03
    0.34125043013821066773E-03
    0.93927300852268333625E-04
    0.99952687843432502031E-04
    0.11820392005773622181E-03
    0.12097918186290843522E-03
    0.10468294663733661840E-03
    0.10485934442028544387E-03
    0.88570228314464692762E-04
    0.82456725325634960214E-04
    0.69446222889058486388E-04
    0.67655831897652789924E-04
    0.78485893091294662194E-04
    0.79016311302869770596E-04
    0.89831139170258489011E-04
    0.91102435559914534172E-04
    0.15634866302223566679E-03
    0.16838927260417620147E-03
    0.20052919298074731234E-03
    0.20665226074847116758E-03
    0.17863032269636324486E-03
    0.17990587509403462279E-03
    0.15136280865285332972E-03
    0.13997625345358520295E-03
    0.11715594439207098660E-03
    0.11340218285963223099E-03
    0.13154701206232518457E-03
    0.13109068618873614227E-03
    0.15171728962128571902E-03
    0.15444974459608912980E-03
    0.14129814290346010344E-03
    0.14800246235081176722E-03
    0.17469387157530161182E-03
    0.17686380858790353311E-03
    0.15155887909417420649E-03
    0.14945227068659437349E-03
    0.12516927224730535462E-03
    0.11824726501315834470E-03
    0.99416724105555353999E-04
    0.98167026132188112456E-04
    0.11538942096622672377E-03
    0.11829830044757413921E-03
    0.13146901911907838854E-03
    0.13240713621560484380E-03
    0.22838246555968637970E-03
    0.24325353606339766128E-03
    0.28925562695025335827E-03
    0.29626124482905880205E-03
    0.25445001268436655576E-03
    0.25391358968690480851E-03
    0.21184640831087902190E-03
    0.19767659786284235888E-03
    0.16493856650517593884E-03
    0.16123843105119852284E-03
    0.18899421063651568949E-03
    0.19091765159191177617E-03
    0.21736990689991592162E-03
    0.22027948316874233011E-03
    0.26942898293569149523E-03
    0.29243098714113873208E-03
    0.35040965042195114680E-03
    0.36220967663052174110E-03
    0.31192682047327115972E-03
    0.31421887573777256084E-03
    0.26314559963396693971E-03
    0.24281890002927905624E-03
    0.20222588026789961092E-03
    0.19519958636187684470E-03
    0.22693056596087283669E-03
    0.22494999724961863550E-03
    0.26320355087116817372E-03
    0.26838374556786262406E-03
    0.47624240606822140472E-03
    0.51820275520008112369E-03
    0.62416569897598612494E-03
    0.64439553776542623717E-03
    0.55146101235502829364E-03
    0.55253049314956683390E-03
    0.46033597992052008351E-03
    0.42598388913960949075E-03
    0.35341596917048728917E-03
    0.34151147350977361728E-03
    0.39899581116324992977E-03
    0.39551070168443718412E-03
    0.46442573325209009476E-03
    0.47324773629854046623E-03
    0.38628189094998515839E-03
    0.41766181936599963481E-03
    0.50071862341182805933E-03
    0.51732511691713906760E-03
    0.44390554578572073534E-03
    0.44596414228411024924E-03
    0.37017905818262331844E-03
    0.34266812144398802386E-03
    0.28381619004647263985E-03
    0.27543034099135771950E-03
    0.32266460389157938793E-03
    0.32194487201577112138E-03
    0.37446511204649289301E-03
    0.38123749873735543296E-03
    0.68167983894124181080E-03
    0.74449772585952244189E-03
    0.89943310737819416514E-03
    0.93308290581911297688E-03
    0.79716797432215073024E-03
    0.80114202209144718281E-03
    0.66101267581413511529E-03
    0.61023943885771280739E-03
    0.50215909265729184729E-03
    0.48571875200370816543E-03
    0.57062303740374234994E-03
    0.56539105150953290757E-03
    0.66696479448222927879E-03
    0.68048452205591181824E-03
    0.69191222605657874147E-04
    0.64776906380931549524E-04
    0.70559302174672761999E-04
    0.66672539235521796033E-04
    0.57394250942169346944E-04
    0.51798564170599270019E-04
    0.45254951879639736885E-04
    0.47889944716266398994E-04
    0.44222448938304755430E-04
    0.47585804270467762709E-04
    0.54865327680211609291E-04
    0.61891812372249718505E-04
    0.56709879378420595191E-04
    0.54608434066998778238E-04
    0.79448165457519622293E-04
    0.77385642271843286090E-04
    0.87608294627162733173E-04
    0.84500064794480958942E-04
    0.71751562353312338545E-04
    0.66310807084495949123E-04
    0.56448830142480885296E-04
    0.57486440513571039732E-04
    0.50837620529900685211E-04
    0.53225995798510652632E-04
    0.62562177457898095808E-04
    0.68567130728058379215E-04
    0.67400479975965627987E-04
    0.65833100160755616582E-04
    0.11791311045118610086E-03
    0.11040699788722029701E-03
    0.12049276074358318371E-03
    0.11379269459684431323E-03
    0.97658956133436943241E-04
    0.87883894471460833101E-04
    0.76549772351860962761E-04
    0.81189881996666265454E-04
    0.74874695367088523975E-04
    0.80692623728593519607E-04
    0.93270909805917879567E-04
    0.10535619293311853620E-03
    0.96473597316210920423E-04
    0.92836955198413858778E-04
    0.13603600743051832826E-03
    0.13235223318244023101E-03
    0.15015837303661693099E-03
    0.14443679890054742540E-03
    0.12206150161480756151E-03
    0.11202830623334910916E-03
    0.95058852067799736742E-04
    0.97329415535382838936E-04
    0.85983051351915158484E-04
    0.90301374636572457732E-04
    0.10653896788834965657E-03
    0.11709389041791423139E-03
    0.11482967050057764802E-03
    0.11197582427308787941E-03
    0.10485934460573882179E-03
    0.10468294681017095368E-03
    0.12097918206482883836E-03
    0.11820392024124870166E-03
    0.99952687981737722172E-04
    0.93927300959410113881E-04
    0.79016311373912551629E-04
    0.78485893183048482990E-04
    0.67655831974025834098E-04
    0.69446222980449262086E-04
    0.82456725453508380075E-04
    0.88570228474736133520E-04
    0.91102435696363939007E-04
    0.89831139296537589577E-04
    0.14945227089769425564E-03
    0.15155887926675932435E-03
    0.17686380877619003972E-03
    0.17469387172347992931E-03
    0.14800246245562270254E-03
    0.14129814295636808526E-03
    0.11829830047122584698E-03
    0.11538942103410204881E-03
    0.98167026198850188164E-04
    0.99416724204414344654E-04
    0.11824726514991806174E-03
    0.12516927243627612833E-03
    0.13240713634502643660E-03
    0.13146901922826576014E-03
    0.17990587554831964276E-03
    0.17863032313253593571E-03
    0.20665226126382392913E-03
    0.20052919346030898809E-03
    0.16838927298119211128E-03
    0.15634866333843057233E-03
    0.13109068642021767001E-03
    0.13154701232555892818E-03
    0.11340218307865872877E-03
    0.11715594463778363009E-03
    0.13997625377996575423E-03
    0.15136280903942190093E-03
    0.15444974495240200939E-03
    0.15171728995940026515E-03
    0.25391359026690320591E-03
    0.25445001321083431404E-03
    0.29626124542340352523E-03
    0.28925562748263375888E-03
    0.24325353647302707717E-03
    0.22838246587418589120E-03
    0.19091765181426955289E-03
    0.18899421092808364742E-03
    0.16123843130905657524E-03
    0.16493856681910968654E-03
    0.19767659827073182002E-03
    0.21184640881622546476E-03
    0.22027948359051250640E-03
    0.21736990728781215259E-03
    0.20051667625260337011E-03
    0.18826532123114819543E-03
    0.20583809806702671138E-03
    0.19483288778350803814E-03
    0.16709508315267419787E-03
    0.15048773925464698355E-03
    0.13082198232708356776E-03
    0.13861089271908398840E-03
    0.12766040019736795514E-03
    0.13756310063988517610E-03
    0.15894237803043846560E-03
    0.17929571079441588991E-03
    0.16459996687953222234E-03
    0.15852242607185940528E-03
    0.23397777542105737390E-03
    0.22844967627513065693E-03
    0.26035020393774550157E-03
    0.25063670826578764335E-03
    0.21099447539943641679E-03
    0.19325288546260759970E-03
    0.16332931986982581135E-03
    0.16733763114581444507E-03
    0.14741273745281360872E-03
    0.15479816136640072821E-03
    0.18303866307082413659E-03
    0.20087784880777961871E-03
    0.19787978349533328942E-03
    0.19302336193420085628E-03
    0.33666796187654772499E-03
    0.31776603361046156133E-03
    0.34821240272677123550E-03
    0.33124434369271948215E-03
    0.28432772190481171671E-03
    0.25732272758445843500E-03
    0.22330928950645308455E-03
    0.23566150105029824908E-03
    0.21681813669739967996E-03
    0.23313183510356740827E-03
    0.26862976281860374015E-03
    0.30182948461060743429E-03
    0.27865063679631562645E-03
    0.26892550445205135653E-03
    0.40013329769585321075E-03
    0.39379611285996802975E-03
    0.45156256820247457065E-03
    0.43671885800205108253E-03
    0.36674091411431050712E-03
    0.33682978164751464127E-03
    0.28341511937041380473E-03
    0.28915216961711287524E-03
    0.25350143147828712491E-03
    0.26536396029942489966E-03
    0.31397585514019235586E-03
    0.34265064730599304821E-03
    0.34125043133848042328E-03
    0.33365215064752059117E-03
    0.31421887673397963818E-03
    0.31192682145097556804E-03
    0.36220967778397234003E-03
    0.35040965152035718089E-03
    0.29243098801572689439E-03
    0.26942898369934425388E-03
    0.22494999782552566048E-03
    0.22693056658681291880E-03
    0.19519958688221240970E-03
    0.20222588083661791471E-03
    0.24281890076384660083E-03
    0.26314560048107626901E-03
    0.26838374637844778425E-03
    0.26320355165083980263E-03
    0.44596414363801410892E-03
    0.44390554705905010480E-03
    0.51732511838539741670E-03
    0.50071862476367095911E-03
    0.41766182044263602769E-03
    0.38628189184534918220E-03
    0.32194487269540081375E-03
    0.32266460467503780976E-03
    0.27543034167199431043E-03
    0.28381619081867519999E-03
    0.34266812242774347293E-03
    0.37017905934159147643E-03