# vtk DataFile Version 3.0
LAPLACIEN  2D
ASCII
DATASET UNSTRUCTURED_GRID
FIELD FieldData 1
TIME 1 1 double
8.2000
 POINTS        7297  float
   1.5625000000000000E-002  0.96875000000000000        0.0000000000000000     
   3.1250000000000000E-002  0.96875000000000000        0.0000000000000000     
   3.1250000000000000E-002  0.98437500000000000        0.0000000000000000     
   9.3749999999999997E-003  0.97812500000000002        0.0000000000000000     
   2.0312500000000001E-002  0.97968750000000004        0.0000000000000000     
   2.1874999999999999E-002  0.99062499999999998        0.0000000000000000     
   1.0937499999999999E-002  0.98906249999999996        0.0000000000000000     
   4.6875000000000000E-002  0.96875000000000000        0.0000000000000000     
   6.2500000000000000E-002  0.96875000000000000        0.0000000000000000     
   6.2500000000000000E-002  0.98437500000000000        0.0000000000000000     
   4.0625000000000001E-002  0.97812500000000002        0.0000000000000000     
   5.1562499999999997E-002  0.97968750000000004        0.0000000000000000     
   5.3124999999999999E-002  0.99062499999999998        0.0000000000000000     
   4.2187500000000003E-002  0.98906249999999996        0.0000000000000000     
   1.5625000000000000E-002  0.93750000000000000        0.0000000000000000     
   3.1250000000000000E-002  0.93750000000000000        0.0000000000000000     
   3.1250000000000000E-002  0.95312500000000000        0.0000000000000000     
   9.3749999999999997E-003  0.94687500000000002        0.0000000000000000     
   2.0312500000000001E-002  0.94843750000000004        0.0000000000000000     
   2.1874999999999999E-002  0.95937499999999998        0.0000000000000000     
   1.0937499999999999E-002  0.95781249999999996        0.0000000000000000     
   4.6875000000000000E-002  0.93750000000000000        0.0000000000000000     
   6.2500000000000000E-002  0.93750000000000000        0.0000000000000000     
   6.2500000000000000E-002  0.95312500000000000        0.0000000000000000     
   4.0625000000000001E-002  0.94687500000000002        0.0000000000000000     
   5.1562499999999997E-002  0.94843750000000004        0.0000000000000000     
   5.3124999999999999E-002  0.95937499999999998        0.0000000000000000     
   4.2187500000000003E-002  0.95781249999999996        0.0000000000000000     
   7.8125000000000000E-002  0.96875000000000000        0.0000000000000000     
   9.3750000000000000E-002  0.96875000000000000        0.0000000000000000     
   9.3750000000000000E-002  0.98437500000000000        0.0000000000000000     
   7.1874999999999994E-002  0.97812500000000002        0.0000000000000000     
   8.2812499999999997E-002  0.97968750000000004        0.0000000000000000     
   8.4375000000000006E-002  0.99062499999999998        0.0000000000000000     
   7.3437500000000003E-002  0.98906249999999996        0.0000000000000000     
  0.10937500000000000       0.96875000000000000        0.0000000000000000     
  0.12500000000000000       0.96875000000000000        0.0000000000000000     
  0.12500000000000000       0.98437500000000000        0.0000000000000000     
  0.10312499999999999       0.97812500000000002        0.0000000000000000     
  0.11406250000000000       0.97968750000000004        0.0000000000000000     
  0.11562500000000001       0.99062499999999998        0.0000000000000000     
  0.10468750000000000       0.98906249999999996        0.0000000000000000     
   7.8125000000000000E-002  0.93750000000000000        0.0000000000000000     
   9.3750000000000000E-002  0.93750000000000000        0.0000000000000000     
   9.3750000000000000E-002  0.95312500000000000        0.0000000000000000     
   7.1874999999999994E-002  0.94687500000000002        0.0000000000000000     
   8.2812499999999997E-002  0.94843750000000004        0.0000000000000000     
   8.4375000000000006E-002  0.95937499999999998        0.0000000000000000     
   7.3437500000000003E-002  0.95781249999999996        0.0000000000000000     
  0.10937500000000000       0.93750000000000000        0.0000000000000000     
  0.12500000000000000       0.93750000000000000        0.0000000000000000     
  0.12500000000000000       0.95312500000000000        0.0000000000000000     
  0.10312499999999999       0.94687500000000002        0.0000000000000000     
  0.11406250000000000       0.94843750000000004        0.0000000000000000     
  0.11562500000000001       0.95937499999999998        0.0000000000000000     
  0.10468750000000000       0.95781249999999996        0.0000000000000000     
   1.5625000000000000E-002  0.90625000000000000        0.0000000000000000     
   3.1250000000000000E-002  0.90625000000000000        0.0000000000000000     
   3.1250000000000000E-002  0.92187500000000000        0.0000000000000000     
   9.3749999999999997E-003  0.91562500000000002        0.0000000000000000     
   2.0312500000000001E-002  0.91718750000000004        0.0000000000000000     
   2.1874999999999999E-002  0.92812499999999998        0.0000000000000000     
   1.0937499999999999E-002  0.92656249999999996        0.0000000000000000     
   4.6875000000000000E-002  0.90625000000000000        0.0000000000000000     
   6.2500000000000000E-002  0.90625000000000000        0.0000000000000000     
   6.2500000000000000E-002  0.92187500000000000        0.0000000000000000     
   4.0625000000000001E-002  0.91562500000000002        0.0000000000000000     
   5.1562499999999997E-002  0.91718750000000004        0.0000000000000000     
   5.3124999999999999E-002  0.92812499999999998        0.0000000000000000     
   4.2187500000000003E-002  0.92656249999999996        0.0000000000000000     
   1.5625000000000000E-002  0.87500000000000000        0.0000000000000000     
   3.1250000000000000E-002  0.87500000000000000        0.0000000000000000     
   3.1250000000000000E-002  0.89062500000000000        0.0000000000000000     
   9.3749999999999997E-003  0.88437500000000002        0.0000000000000000     
   2.0312500000000001E-002  0.88593750000000004        0.0000000000000000     
   2.1874999999999999E-002  0.89687499999999998        0.0000000000000000     
   1.0937499999999999E-002  0.89531249999999996        0.0000000000000000     
   4.6875000000000000E-002  0.87500000000000000        0.0000000000000000     
   6.2500000000000000E-002  0.87500000000000000        0.0000000000000000     
   6.2500000000000000E-002  0.89062500000000000        0.0000000000000000     
   4.0625000000000001E-002  0.88437500000000002        0.0000000000000000     
   5.1562499999999997E-002  0.88593750000000004        0.0000000000000000     
   5.3124999999999999E-002  0.89687499999999998        0.0000000000000000     
   4.2187500000000003E-002  0.89531249999999996        0.0000000000000000     
   7.8125000000000000E-002  0.90625000000000000        0.0000000000000000     
   9.3750000000000000E-002  0.90625000000000000        0.0000000000000000     
   9.3750000000000000E-002  0.92187500000000000        0.0000000000000000     
   7.1874999999999994E-002  0.91562500000000002        0.0000000000000000     
   8.2812499999999997E-002  0.91718750000000004        0.0000000000000000     
   8.4375000000000006E-002  0.92812499999999998        0.0000000000000000     
   7.3437500000000003E-002  0.92656249999999996        0.0000000000000000     
  0.10937500000000000       0.90625000000000000        0.0000000000000000     
  0.12500000000000000       0.90625000000000000        0.0000000000000000     
  0.12500000000000000       0.92187500000000000        0.0000000000000000     
  0.10312499999999999       0.91562500000000002        0.0000000000000000     
  0.11406250000000000       0.91718750000000004        0.0000000000000000     
  0.11562500000000001       0.92812499999999998        0.0000000000000000     
  0.10468750000000000       0.92656249999999996        0.0000000000000000     
   7.8125000000000000E-002  0.87500000000000000        0.0000000000000000     
   9.3750000000000000E-002  0.87500000000000000        0.0000000000000000     
   9.3750000000000000E-002  0.89062500000000000        0.0000000000000000     
   7.1874999999999994E-002  0.88437500000000002        0.0000000000000000     
   8.2812499999999997E-002  0.88593750000000004        0.0000000000000000     
   8.4375000000000006E-002  0.89687499999999998        0.0000000000000000     
   7.3437500000000003E-002  0.89531249999999996        0.0000000000000000     
  0.10937500000000000       0.87500000000000000        0.0000000000000000     
  0.12500000000000000       0.87500000000000000        0.0000000000000000     
  0.12500000000000000       0.89062500000000000        0.0000000000000000     
  0.10312499999999999       0.88437500000000002        0.0000000000000000     
  0.11406250000000000       0.88593750000000004        0.0000000000000000     
  0.11562500000000001       0.89687499999999998        0.0000000000000000     
  0.10468750000000000       0.89531249999999996        0.0000000000000000     
  0.14062500000000000       0.96875000000000000        0.0000000000000000     
  0.15625000000000000       0.96875000000000000        0.0000000000000000     
  0.15625000000000000       0.98437500000000000        0.0000000000000000     
  0.13437499999999999       0.97812500000000002        0.0000000000000000     
  0.14531250000000001       0.97968750000000004        0.0000000000000000     
  0.14687500000000001       0.99062499999999998        0.0000000000000000     
  0.13593749999999999       0.98906249999999996        0.0000000000000000     
  0.17187500000000000       0.96875000000000000        0.0000000000000000     
  0.18750000000000000       0.96875000000000000        0.0000000000000000     
  0.18750000000000000       0.98437500000000000        0.0000000000000000     
  0.16562499999999999       0.97812500000000002        0.0000000000000000     
  0.17656250000000001       0.97968750000000004        0.0000000000000000     
[...]
 CELL_DATA       14336
 SCALARS Nutrient float
 LOOKUP_TABLE default
    0.46617488616229512191E-02
    0.46616637502290940442E-02
    0.46623155202306972716E-02
    0.46623155201692290800E-02
    0.46616637504740023046E-02
    0.46617488614087189414E-02
    0.46612309923749215348E-02
    0.46609257416362140369E-02
    0.46605959523646446271E-02
    0.46605959509558097728E-02
    0.46609257423622010158E-02
    0.46612309920751882064E-02
    0.46611832500755576505E-02
    0.46611832498463434335E-02
    0.46638875106916888313E-02
    0.46644574091017831571E-02
    0.46660049846281746386E-02
    0.46664329371905993032E-02
    0.46652729421066832863E-02
    0.46658296589634565277E-02
    0.46646131167230979464E-02
    0.46636014839732632328E-02
    0.46625344066787048972E-02
    0.46621499917325346166E-02
    0.46628171746138837722E-02
    0.46627341744116994685E-02
    0.46637765124440929213E-02
    0.46640064026907367134E-02
    0.46658296590067595624E-02
    0.46652729420727807180E-02
    0.46664329372094227877E-02
    0.46660049846145995600E-02
    0.46644574091637613575E-02
    0.46638875106172301629E-02
    0.46627341745628372513E-02
    0.46628171744690846690E-02
    0.46621499919239769646E-02
    0.46625344065006537470E-02
    0.46636014840708119381E-02
    0.46646131166968160184E-02
    0.46640064027402925589E-02
    0.46637765124244688619E-02
    0.46686996840746754905E-02
    0.46689486480696361717E-02
    0.46713671307830034046E-02
    0.46713671307771278962E-02
    0.46689486480855002179E-02
    0.46686996840522203625E-02
    0.46665554247619081205E-02
    0.46659443990004255756E-02
    0.46643496192389152788E-02
    0.46643496191656535696E-02
    0.46659443990475267874E-02
    0.46665554247334352367E-02
    0.46672597086705779404E-02
    0.46672597086571320987E-02
    0.46696050715763501651E-02
    0.46711452512425378700E-02
    0.46741623059036677829E-02
    0.46752857773180436438E-02
    0.46732897976715795721E-02
    0.46746403454954298801E-02
    0.46722570339291120967E-02
    0.46700451083135936098E-02
    0.46677578693659939335E-02
    0.46667899315312256006E-02
    0.46680117387180629709E-02
    0.46674246680426679373E-02
    0.46700914257852849804E-02
    0.46706999245356940406E-02
    0.46810388183889323557E-02
    0.46841421980521541837E-02
    0.46894720902527298537E-02
    0.46916381441161917817E-02
    0.46882734340889988672E-02
    0.46907690071440943588E-02
    0.46865566644996034876E-02
    0.46825508839860446875E-02
    0.46783860350512749063E-02
    0.46764936332459611928E-02
    0.46786336402098111301E-02
    0.46772204407433187398E-02
    0.46824707080542812138E-02
    0.46836489937585462640E-02
    0.46761950358797602784E-02
    0.46773983908446128965E-02
    0.46816397063205892823E-02
    0.46822050008724254433E-02
    0.46784342638981572110E-02
    0.46786501881733912750E-02
    0.46749312796049782848E-02
    0.46732894799239770370E-02
    0.46702464715394432018E-02
    0.46697884613375465271E-02
    0.46723365435578940313E-02
    0.46726219351263236640E-02
    0.46749534078976452689E-02
    0.46752440806651883454E-02
    0.46903859723896115796E-02
    0.46931539462016450687E-02
    0.47004539864547974573E-02
    0.47019634529716783714E-02
    0.46959282615215234419E-02
    0.46968907008207785858E-02
    0.46906155971273974167E-02
    0.46873128245184872420E-02
    0.46819475818635422626E-02
    0.46807335275245182810E-02
    0.46847689028185852608E-02
    0.46845425675582112388E-02
    0.46894900899168206684E-02
    0.46902678067065302694E-02
    0.46746403455275656325E-02
    0.46732897976857531303E-02
    0.46752857773412889383E-02
    0.46741623059179462918E-02
    0.46711452512683817803E-02
    0.46696050715683687024E-02
    0.46674246680810599699E-02
    0.46680117387034765486E-02
    0.46667899315742918456E-02
    0.46677578693540234742E-02
    0.46700451083466175406E-02
    0.46722570339497310199E-02
    0.46706999245597997580E-02
    0.46700914257984922975E-02
    0.46786501881948723558E-02
    0.46784342639088708632E-02
    0.46822050008904310056E-02
    0.46816397063329925551E-02
    0.46773983908583571106E-02
    0.46761950358764963961E-02
    0.46726219351379081474E-02
    0.46723365435502517071E-02
    0.46697884613619679642E-02
    0.46702464715336327455E-02
    0.46732894799445786130E-02
    0.46749312796146302862E-02
    0.46752440806803099299E-02
    0.46749534079047428900E-02
    0.46907690072120330690E-02
    0.46882734341451683460E-02
    0.46916381441772349661E-02
    0.46894720903053362104E-02
    0.46841421980969005084E-02
    0.46810388184166506348E-02
    0.46772204407723042344E-02
    0.46786336402383785563E-02
    0.46764936332794855914E-02
    0.46783860350845763929E-02
    0.46825508840369787708E-02
    0.46865566645631550821E-02
    0.46836489938073414332E-02
    0.46824707080959379960E-02
    0.46968907008828600022E-02
    0.46959282615763268259E-02
    0.47019634530368527997E-02
    0.47004539865131136564E-02
    0.46931539462455127559E-02
    0.46903859724167972986E-02
    0.46845425675802136040E-02
    0.46847689028433397648E-02
    0.46807335275524343185E-02
    0.46819475818915103418E-02
    0.46873128245619255852E-02
    0.46906155971784433897E-02
    0.46902678067511421531E-02
    0.46894900899563211893E-02
    0.46890957463236711614E-02
    0.46900308584243164192E-02
    0.46963208237330812331E-02
    0.46963208237291798400E-02
    0.46900308584206847756E-02
    0.46890957463101134300E-02
    0.46833626789887341027E-02
    0.46820342188861104743E-02
    0.46776344072147766143E-02
    0.46776344072107390454E-02
    0.46820342188955213492E-02
    0.46833626790001780735E-02
    0.46856684686317571359E-02
    0.46856684686291047437E-02
    0.47085295108738999675E-02
    0.47112979380288799724E-02
    0.47218860697611593144E-02
    0.47228722617902009831E-02
    0.47130155295947821770E-02
    0.47124909201950180085E-02
    0.47029987990723567948E-02
    0.46999331314637139353E-02
    0.46924233572183619151E-02
    0.46917538236191901058E-02
    0.46984575990635353906E-02
    0.46994719793327730667E-02
    0.47048803235878742038E-02
    0.47053476892920335223E-02
    0.47124909202638501013E-02
    0.47130155296521841768E-02
    0.47228722618555983234E-02
    0.47218860698135531676E-02
    0.47112979380657532547E-02
    0.47085295108925916130E-02
    0.46994719793404977903E-02
    0.46984575990835931308E-02
    0.46917538236399885729E-02
    0.46924233572452119650E-02
    0.46999331315083874017E-02
    0.47029987991339420803E-02
    0.47053476893351405333E-02
    0.47048803236239616563E-02
    0.47409079360772807266E-02
    0.47435361527993534850E-02
    0.47595002594661775519E-02
    0.47595002594544152594E-02
    0.47435361527785324665E-02
    0.47409079360287726540E-02
    0.47264036727902285911E-02
    0.47232831340464544873E-02
    0.47122179758822893558E-02
    0.47122179758914235423E-02
    0.47232831340681211835E-02
    0.47264036728410212945E-02
    0.47325381612093493644E-02
    0.47325381612031026252E-02
    0.47015606598831659324E-02
    0.47071403270149535930E-02
    0.47163747722905810522E-02
    0.47202524171768810157E-02
    0.47145058454088990471E-02
    0.47189109426395833488E-02
    0.47116403070815889020E-02
    0.47046390495008886742E-02
    0.46973899462991689641E-02
    0.46940379861067109066E-02
    0.46976860888098600361E-02
    0.46950559331266428567E-02
    0.47043754674880580366E-02
    0.47064714713948834629E-02
    0.47374971668451724624E-02
    0.47472505682092259321E-02
    0.47633206672909001941E-02
    0.47700128067762843573E-02
    0.47599783581844168009E-02
    0.47674739653322979749E-02
    0.47549595750548791576E-02
    0.47429084152100144806E-02
    0.47303736406026425029E-02
    0.47245730222919661567E-02
    0.47308569460768369608E-02
    0.47262215261806633446E-02
    0.47424622091403459065E-02
    0.47460916592997892671E-02
    0.47159351732249570402E-02
    0.47213588894375489377E-02
    0.47340304759734838994E-02
    0.47371386363563340594E-02
    0.47269919235266950538E-02
    0.47290690929404979870E-02
    0.47182494127245662094E-02
    0.47122602637458170863E-02
    0.47029753839470294155E-02
    0.47005897719899708900E-02
    0.47071905721366314596E-02
    0.47061449881267798309E-02
    0.47154916373823418246E-02
    0.47170578553684802334E-02
    0.47614127429884247136E-02
    0.47714291936769787431E-02
    0.47936883119676252860E-02
    0.47994169609610727936E-02
    0.47817298834014884332E-02
    0.47854422062913052130E-02
    0.47665913492512049232E-02
    0.47560555322456185903E-02
    0.47398934827250528701E-02
    0.47355746549090733596E-02
    0.47468451136796954021E-02
    0.47445550432043811714E-02
    0.47614248089173569212E-02
    0.47642800700521490548E-02
    0.47998931262127637193E-02
    0.48164747591605871005E-02
    0.48441243516310792880E-02
    0.48551232811869012712E-02
    0.48376242182412007228E-02
    0.48498668853960242783E-02
    0.48287013995309286535E-02
    0.48083939442752146598E-02
    0.47870731418277658736E-02
    0.47771926290071931032E-02
    0.47880978091618007705E-02
    0.47803116362817059046E-02
    0.48079519752782301154E-02
    0.48140212114260389278E-02
    0.49064475706230136626E-02
    0.49334255833244624809E-02
    0.49802154171154893597E-02
    0.49971856475882810850E-02
    0.49668465833182136315E-02
    0.49857444532788539743E-02
    0.49509792169686846555E-02
    0.49178350656633555704E-02
    0.48824167020870383460E-02
    0.48661315053331530289E-02
    0.48849085963561279800E-02
    0.48725519634017395998E-02
    0.49180966041064613087E-02
    0.49278129659030382725E-02
    0.48422944058670782524E-02
    0.48600190666258846414E-02
    0.48994879943829944616E-02
    0.49092256465722589748E-02
    0.48775064706347613999E-02
    0.48830874397285881083E-02
    0.48501230854013088756E-02
    0.48323014770297583603E-02
    0.48041688610540398546E-02
    0.47967812460430678256E-02
    0.48165856754556150149E-02
    0.48125382181753413938E-02
    0.48421775523644332989E-02
    0.48470401791589293877E-02
    0.49853838747550378516E-02
    0.50152876155672822603E-02
    0.50850181105936533357E-02
    0.50999116215954022613E-02
    0.50424147188807685524E-02
    0.50488441540955351916E-02
    0.49915554997907235144E-02
    0.49628949558218156055E-02
    0.49144312366135728398E-02
    0.49025601591907779983E-02
    0.49380296563999856105E-02
    0.49322204788695830566E-02
    0.49823996718670665249E-02
    0.49900136792936818086E-02
    0.47432751754000372982E-02
    0.47492778939131046617E-02
    0.47673908287071157727E-02
    0.47701728424468575404E-02
    0.47540195758618763663E-02
    0.47542337552052629790E-02
    0.47380586792259028056E-02
    0.47319625161714425413E-02
    0.47190415467287640319E-02
    0.47172474413427183809E-02
    0.47279854197871213836E-02
    0.47284903601756316308E-02
    0.47392525322139111843E-02
    0.47405266007496940292E-02
    0.48052793918452949007E-02
    0.48172932577584927707E-02
    0.48492180491275455392E-02
    0.48553638270251190875E-02
    0.48275690236635887542E-02
    0.48289137139004931903E-02
    0.48005485934497467773E-02
    0.47891772698925826057E-02
    0.47664925498219212763E-02
    0.47627290293721204553E-02
    0.47807263050151250355E-02
    0.47802231356929387671E-02
    0.48007799964509319940E-02
    0.48035207622703088651E-02
    0.47901753036322979387E-02
    0.47968316909196727013E-02
    0.48232808479081283604E-02
    0.48254592284420116596E-02
    0.48004009923222797085E-02
    0.47983591784315970594E-02
    0.47742820020559451760E-02
    0.47673858752457646051E-02
    0.47487103448476276207E-02
    0.47474559916618848041E-02
    0.47645197858420919659E-02
    0.47673900686220236841E-02
    0.47804639855001662685E-02
    0.47814053536552230186E-02
    0.48765101992244066359E-02
    0.48913219537267916756E-02
    0.49369318456996416980E-02
    0.49439683724410371859E-02
    0.49025654004240136127E-02
    0.49021493620750120762E-02
    0.48604126266192128336E-02
    0.48462715363770418261E-02
    0.48137773640799380592E-02
    0.48100617589441731561E-02
    0.48375551194627976204E-02
    0.48393997432253149302E-02
    0.48657166205781218413E-02
    0.48686377024515876608E-02
    0.49177308589190135354E-02
    0.49407098089004168606E-02
    0.49983594202568587886E-02
    0.50102108071994949298E-02
    0.49602831187545732422E-02
    0.49626956005811469208E-02
    0.49118940032459312839E-02
    0.48915787797816851282E-02
    0.48511858910849324500E-02
    0.48441401848073233419E-02
    0.48756373421027891790E-02
    0.48735690109251326649E-02
    0.49117364257507210162E-02
    0.49169350180250813095E-02
    0.51236208210650863171E-02
    0.51655735304574745131E-02
    0.52710483926717566217E-02
    0.52913817672343224641E-02
    0.51989893589279760969E-02
    0.52002688717613949204E-02
    0.51084739448348983476E-02
    0.50741169303987658859E-02
    0.50018412635091579962E-02
    0.49898960115774037075E-02
    0.50470159613278742575E-02
    0.50433778333891570930E-02
    0.51121939548545670615E-02
    0.51210555216255632810E-02
    0.50332402439062038507E-02
    0.50645554551793066714E-02
    0.51469997413986848245E-02
    0.51636823034262860008E-02
    0.50909207071664535141E-02
    0.50931998647570650776E-02
    0.50179297694391113496E-02
    0.49904399844525205304E-02
    0.49319649903072255992E-02
    0.49235432877918691719E-02
    0.49703450882005997466E-02
    0.49694794623970266548E-02
    0.50218186230594173691E-02
    0.50286220562421046765E-02
    0.53268684056007519975E-02
    0.53896325323775700830E-02
    0.55436329671750342318E-02
    0.55774475870955658729E-02
    0.54425649021261606614E-02
    0.54469224413391161693E-02
    0.53075787581682585051E-02
    0.52568007506712923285E-02
    0.51492904566700784322E-02
    0.51327708463531551350E-02
    0.52169892233258690836E-02
    0.52114854953329969173E-02
    0.53128414338850862841E-02
    0.53264279551101471194E-02
    0.47189109427962956655E-02
    0.47145058455468711461E-02
    0.47202524173257029427E-02
    0.47163747724236941908E-02
    0.47071403271244666860E-02
    0.47015606599688118325E-02
    0.46950559331957368928E-02
    0.46976860888935908014E-02
    0.46940379861853146967E-02
    0.46973899463896347933E-02
    0.47046390496181594507E-02
    0.47116403072291626955E-02
    0.47064714715107855425E-02
    0.47043754675945587823E-02
    0.47290690930987854326E-02
    0.47269919236759341818E-02
    0.47371386365305506033E-02
    0.47340304761366563263E-02
    0.47213588895631949591E-02
    0.47159351733232256557E-02
    0.47061449882001603687E-02
    0.47071905722235359015E-02
    0.47005897720653602376E-02
    0.47029753840339520721E-02
    0.47122602638597164276E-02
    0.47182494128592683547E-02
    0.47170578554903853236E-02
    0.47154916374966176010E-02
    0.47674739656667162319E-02
    0.47599783584849602452E-02
    0.47700128071022753276E-02
    0.47633206675876064301E-02
    0.47472505684557578937E-02
    0.47374971670487119046E-02
    0.47262215263450804356E-02
    0.47308569462707209322E-02
    0.47245730224708022693E-02
    0.47303736408065982788E-02
    0.47429084154646840299E-02
    0.47549595753679204171E-02
    0.47460916595550234690E-02
    0.47424622093784054785E-02
    0.47854422066467457164E-02
    0.47817298837449853655E-02
    0.47994169613610115563E-02
    0.47936883123500242596E-02
    0.47714291939778569890E-02
    0.47614127432398364523E-02
    0.47445550433975886007E-02
    0.47468451138963727726E-02
    0.47355746550943583068E-02
    0.47398934829327617202E-02
    0.47560555325088134382E-02
    0.47665913495550599546E-02
    0.47642800703371632545E-02
    0.47614248091892739587E-02
    0.47542337554047396989E-02
    0.47540195760463763511E-02
    0.47701728426608495590E-02
    0.47673908289000404420E-02
    0.47492778940605587593E-02
    0.47432751755136408692E-02
    0.47284903602534461217E-02
    0.47279854198868567078E-02
    0.47172474414283530053E-02
    0.47190415468296997847E-02
    0.47319625163108058885E-02
    0.47380586793993456629E-02
    0.47405266008968228661E-02
    0.47392525323497608492E-02
    0.47983591786522816411E-02
    0.48004009925019328758E-02
    0.48254592286373961668E-02
    0.48232808480604830517E-02
    0.47968316910285664981E-02
    0.47901753036867162142E-02
    0.47673900686473749330E-02
    0.47645197859136085433E-02
    0.47474559917334109224E-02
    0.47487103449521776699E-02
    0.47673858753896937446E-02
    0.47742820022541815686E-02
    0.47814053537907300756E-02
    0.47804639856143015322E-02
    0.48289137143755316017E-02
    0.48275690241180880397E-02
    0.48553638275593228452E-02
    0.48492180496225219949E-02
    0.48172932581508360467E-02
    0.48052793921741845939E-02
    0.47802231359369068073E-02
    0.47807263052927605890E-02
    0.47627290296063931260E-02
    0.47664925500837561009E-02
    0.47891772702368610309E-02
    0.48005485938565819332E-02
    0.48035207626437479919E-02
    0.48007799968049890554E-02
    0.49021493626704411642E-02
    0.49025654009635811353E-02
    0.49439683730481435650E-02
    0.49369318462419058482E-02
    0.48913219541461923009E-02
    0.48765101995462602907E-02
    0.48393997434549480829E-02
    0.48375551197639586262E-02
    0.48100617592128254441E-02
    0.48137773644055560640E-02
    0.48462715367980704895E-02
    0.48604126271402569789E-02
    0.48686377028853483270E-02
    0.48657166209768792572E-02
    0.48498668860691750496E-02
    0.48376242188551731374E-02
    0.48551232818534227967E-02
    0.48441243522487111017E-02
    0.48164747596755536421E-02
    0.47998931266502531737E-02
    0.47803116366384361749E-02
    0.47880978095714548520E-02
    0.47771926293837269767E-02
    0.47870731422520480108E-02
    0.48083939447951824092E-02
    0.48287014001588629900E-02
    0.48140212119511856942E-02
    0.48079519757724814566E-02
    0.48830874404726205482E-02
    0.48775064713607162864E-02
    0.49092256474228988458E-02
    0.48994879951988262387E-02
    0.48600190672796004382E-02
    0.48422944064297149952E-02
    0.48125382186165310133E-02
    0.48165856759338635321E-02
    0.47967812464519794455E-02
    0.48041688615016210628E-02
    0.48323014775891052000E-02
    0.48501230860345705478E-02
    0.48470401797689327550E-02
    0.48421775529514637232E-02
    0.49857444545684621515E-02
    0.49668465845180429299E-02
    0.49971856489105428295E-02
    0.49802154183423187617E-02
    0.49334255843512236223E-02
    0.49064475715079247306E-02
    0.48725519641309869914E-02
    0.48849085971756018090E-02
    0.48661315060851400432E-02
    0.48824167029253261185E-02
    0.49178350666763005067E-02
    0.49509792181711481315E-02
    0.49278129669349957781E-02
    0.49180966050842746251E-02
    0.50488441555613765288E-02
    0.50424147203430589106E-02
    0.50999116233223376962E-02
    0.50850181122585550592E-02
    0.50152876169068227180E-02
    0.49853838759330131036E-02
    0.49322204797978951712E-02
    0.49380296573888204925E-02
    0.49025601600322906218E-02
    0.49144312375257997311E-02
    0.49628949569485774837E-02
    0.49915555010493252441E-02
    0.49900136805301068335E-02
    0.49823996730651931922E-02
    0.49626956016048202544E-02
    0.49602831197574090774E-02
    0.50102108083780278955E-02
    0.49983594213768352960E-02
    0.49407098097967033778E-02
    0.49177308597018708214E-02
    0.48735690115197863315E-02
    0.48756373427499581294E-02
    0.48441401853499301000E-02
    0.48511858916767411701E-02
    0.48915787805411522701E-02
    0.49118940041208364669E-02
    0.49169350188595414147E-02
    0.49117364265530601142E-02
    0.50931998661319644039E-02
    0.50909207084579941732E-02
    0.51636823049125779930E-02
    0.51469997427643337379E-02
    0.50645554562709117763E-02
    0.50332402448139672985E-02
    0.49694794630897173512E-02
    0.49703450889993965392E-02
    0.49235432884896677616E-02
    0.49319649910969784110E-02
    0.49904399854552913135E-02
    0.50179297706196158285E-02