# vtk DataFile Version 3.0
LAPLACIEN  2D
ASCII
DATASET UNSTRUCTURED_GRID
FIELD FieldData 1
TIME 1 1 double
18.7000
 POINTS        7297  float
   1.5625000000000000E-002  0.96875000000000000        0.0000000000000000     
   3.1250000000000000E-002  0.96875000000000000        0.0000000000000000     
   3.1250000000000000E-002  0.98437500000000000        0.0000000000000000     
   9.3749999999999997E-003  0.97812500000000002        0.0000000000000000     
   2.0312500000000001E-002  0.97968750000000004        0.0000000000000000     
   2.1874999999999999E-002  0.99062499999999998        0.0000000000000000     
   1.0937499999999999E-002  0.98906249999999996        0.0000000000000000     
   4.6875000000000000E-002  0.96875000000000000        0.0000000000000000     
   6.2500000000000000E-002  0.96875000000000000        0.0000000000000000     
   6.2500000000000000E-002  0.98437500000000000        0.0000000000000000     
   4.0625000000000001E-002  0.97812500000000002        0.0000000000000000     
   5.1562499999999997E-002  0.97968750000000004        0.0000000000000000     
   5.3124999999999999E-002  0.99062499999999998        0.0000000000000000     
   4.2187500000000003E-002  0.98906249999999996        0.0000000000000000     
   1.5625000000000000E-002  0.93750000000000000        0.0000000000000000     
   3.1250000000000000E-002  0.93750000000000000        0.0000000000000000     
   3.1250000000000000E-002  0.95312500000000000        0.0000000000000000     
   9.3749999999999997E-003  0.94687500000000002        0.0000000000000000     
   2.0312500000000001E-002  0.94843750000000004        0.0000000000000000     
   2.1874999999999999E-002  0.95937499999999998        0.0000000000000000     
   1.0937499999999999E-002  0.95781249999999996        0.0000000000000000     
   4.6875000000000000E-002  0.93750000000000000        0.0000000000000000     
   6.2500000000000000E-002  0.93750000000000000        0.0000000000000000     
   6.2500000000000000E-002  0.95312500000000000        0.0000000000000000     
   4.0625000000000001E-002  0.94687500000000002        0.0000000000000000     
   5.1562499999999997E-002  0.94843750000000004        0.0000000000000000     
   5.3124999999999999E-002  0.95937499999999998        0.0000000000000000     
   4.2187500000000003E-002  0.95781249999999996        0.0000000000000000     
   7.8125000000000000E-002  0.96875000000000000        0.0000000000000000     
   9.3750000000000000E-002  0.96875000000000000        0.0000000000000000     
   9.3750000000000000E-002  0.98437500000000000        0.0000000000000000     
   7.1874999999999994E-002  0.97812500000000002        0.0000000000000000     
   8.2812499999999997E-002  0.97968750000000004        0.0000000000000000     
   8.4375000000000006E-002  0.99062499999999998        0.0000000000000000     
   7.3437500000000003E-002  0.98906249999999996        0.0000000000000000     
  0.10937500000000000       0.96875000000000000        0.0000000000000000     
  0.12500000000000000       0.96875000000000000        0.0000000000000000     
  0.12500000000000000       0.98437500000000000        0.0000000000000000     
  0.10312499999999999       0.97812500000000002        0.0000000000000000     
  0.11406250000000000       0.97968750000000004        0.0000000000000000     
  0.11562500000000001       0.99062499999999998        0.0000000000000000     
  0.10468750000000000       0.98906249999999996        0.0000000000000000     
   7.8125000000000000E-002  0.93750000000000000        0.0000000000000000     
   9.3750000000000000E-002  0.93750000000000000        0.0000000000000000     
   9.3750000000000000E-002  0.95312500000000000        0.0000000000000000     
   7.1874999999999994E-002  0.94687500000000002        0.0000000000000000     
   8.2812499999999997E-002  0.94843750000000004        0.0000000000000000     
   8.4375000000000006E-002  0.95937499999999998        0.0000000000000000     
   7.3437500000000003E-002  0.95781249999999996        0.0000000000000000     
  0.10937500000000000       0.93750000000000000        0.0000000000000000     
  0.12500000000000000       0.93750000000000000        0.0000000000000000     
  0.12500000000000000       0.95312500000000000        0.0000000000000000     
  0.10312499999999999       0.94687500000000002        0.0000000000000000     
  0.11406250000000000       0.94843750000000004        0.0000000000000000     
  0.11562500000000001       0.95937499999999998        0.0000000000000000     
  0.10468750000000000       0.95781249999999996        0.0000000000000000     
   1.5625000000000000E-002  0.90625000000000000        0.0000000000000000     
   3.1250000000000000E-002  0.90625000000000000        0.0000000000000000     
   3.1250000000000000E-002  0.92187500000000000        0.0000000000000000     
   9.3749999999999997E-003  0.91562500000000002        0.0000000000000000     
   2.0312500000000001E-002  0.91718750000000004        0.0000000000000000     
   2.1874999999999999E-002  0.92812499999999998        0.0000000000000000     
   1.0937499999999999E-002  0.92656249999999996        0.0000000000000000     
   4.6875000000000000E-002  0.90625000000000000        0.0000000000000000     
   6.2500000000000000E-002  0.90625000000000000        0.0000000000000000     
   6.2500000000000000E-002  0.92187500000000000        0.0000000000000000     
   4.0625000000000001E-002  0.91562500000000002        0.0000000000000000     
   5.1562499999999997E-002  0.91718750000000004        0.0000000000000000     
   5.3124999999999999E-002  0.92812499999999998        0.0000000000000000     
   4.2187500000000003E-002  0.92656249999999996        0.0000000000000000     
   1.5625000000000000E-002  0.87500000000000000        0.0000000000000000     
   3.1250000000000000E-002  0.87500000000000000        0.0000000000000000     
   3.1250000000000000E-002  0.89062500000000000        0.0000000000000000     
   9.3749999999999997E-003  0.88437500000000002        0.0000000000000000     
   2.0312500000000001E-002  0.88593750000000004        0.0000000000000000     
   2.1874999999999999E-002  0.89687499999999998        0.0000000000000000     
   1.0937499999999999E-002  0.89531249999999996        0.0000000000000000     
   4.6875000000000000E-002  0.87500000000000000        0.0000000000000000     
   6.2500000000000000E-002  0.87500000000000000        0.0000000000000000     
   6.2500000000000000E-002  0.89062500000000000        0.0000000000000000     
   4.0625000000000001E-002  0.88437500000000002        0.0000000000000000     
   5.1562499999999997E-002  0.88593750000000004        0.0000000000000000     
   5.3124999999999999E-002  0.89687499999999998        0.0000000000000000     
   4.2187500000000003E-002  0.89531249999999996        0.0000000000000000     
   7.8125000000000000E-002  0.90625000000000000        0.0000000000000000     
   9.3750000000000000E-002  0.90625000000000000        0.0000000000000000     
   9.3750000000000000E-002  0.92187500000000000        0.0000000000000000     
   7.1874999999999994E-002  0.91562500000000002        0.0000000000000000     
   8.2812499999999997E-002  0.91718750000000004        0.0000000000000000     
   8.4375000000000006E-002  0.92812499999999998        0.0000000000000000     
   7.3437500000000003E-002  0.92656249999999996        0.0000000000000000     
  0.10937500000000000       0.90625000000000000        0.0000000000000000     
  0.12500000000000000       0.90625000000000000        0.0000000000000000     
  0.12500000000000000       0.92187500000000000        0.0000000000000000     
  0.10312499999999999       0.91562500000000002        0.0000000000000000     
  0.11406250000000000       0.91718750000000004        0.0000000000000000     
  0.11562500000000001       0.92812499999999998        0.0000000000000000     
  0.10468750000000000       0.92656249999999996        0.0000000000000000     
   7.8125000000000000E-002  0.87500000000000000        0.0000000000000000     
   9.3750000000000000E-002  0.87500000000000000        0.0000000000000000     
   9.3750000000000000E-002  0.89062500000000000        0.0000000000000000     
   7.1874999999999994E-002  0.88437500000000002        0.0000000000000000     
   8.2812499999999997E-002  0.88593750000000004        0.0000000000000000     
   8.4375000000000006E-002  0.89687499999999998        0.0000000000000000     
   7.3437500000000003E-002  0.89531249999999996        0.0000000000000000     
  0.10937500000000000       0.87500000000000000        0.0000000000000000     
  0.12500000000000000       0.87500000000000000        0.0000000000000000     
  0.12500000000000000       0.89062500000000000        0.0000000000000000     
  0.10312499999999999       0.88437500000000002        0.0000000000000000     
  0.11406250000000000       0.88593750000000004        0.0000000000000000     
  0.11562500000000001       0.89687499999999998        0.0000000000000000     
  0.10468750000000000       0.89531249999999996        0.0000000000000000     
  0.14062500000000000       0.96875000000000000        0.0000000000000000     
  0.15625000000000000       0.96875000000000000        0.0000000000000000     
  0.15625000000000000       0.98437500000000000        0.0000000000000000     
  0.13437499999999999       0.97812500000000002        0.0000000000000000     
  0.14531250000000001       0.97968750000000004        0.0000000000000000     
  0.14687500000000001       0.99062499999999998        0.0000000000000000     
  0.13593749999999999       0.98906249999999996        0.0000000000000000     
  0.17187500000000000       0.96875000000000000        0.0000000000000000     
  0.18750000000000000       0.96875000000000000        0.0000000000000000     
  0.18750000000000000       0.98437500000000000        0.0000000000000000     
  0.16562499999999999       0.97812500000000002        0.0000000000000000     
  0.17656250000000001       0.97968750000000004        0.0000000000000000     
[...]
 CELL_DATA       14336
 SCALARS Nutrient float
 LOOKUP_TABLE default
    0.11926322631850507297E-01
    0.11926240150658965616E-01
    0.11926892832160163396E-01
    0.11926892831997971955E-01
    0.11926240151308139040E-01
    0.11926322631296445292E-01
    0.11925805618754767301E-01
    0.11925499261995991737E-01
    0.11925168236434446553E-01
    0.11925168232716630567E-01
    0.11925499263907997013E-01
    0.11925805617955453561E-01
    0.11925757828433230373E-01
    0.11925757827829881405E-01
    0.11928470046453592754E-01
    0.11929041931542988184E-01
    0.11930593704102095826E-01
    0.11931023532964437142E-01
    0.11929860163021960978E-01
    0.11930417297809284630E-01
    0.11929197842243215166E-01
    0.11928183594463773534E-01
    0.11927111846688541116E-01
    0.11926729619410995215E-01
    0.11927395676924339857E-01
    0.11927313747153011486E-01
    0.11928359872422845261E-01
    0.11928588792543388941E-01
    0.11930417297902486118E-01
    0.11929860162915945088E-01
    0.11931023533000304285E-01
    0.11930593704056699847E-01
    0.11929041931697722048E-01
    0.11928470046253279030E-01
    0.11927313747547452910E-01
    0.11927395676533336655E-01
    0.11926729619911084768E-01
    0.11927111846205649612E-01
    0.11928183594705604395E-01
    0.11929197842149082132E-01
    0.11928588792659551229E-01
    0.11928359872361297273E-01
    0.11933296694525578896E-01
    0.11933546675558490829E-01
    0.11935972105410983315E-01
    0.11935972105396432455E-01
    0.11933546675604089771E-01
    0.11933296694476194788E-01
    0.11931146482427684719E-01
    0.11930533478655625662E-01
    0.11928934072472420838E-01
    0.11928934072278336506E-01
    0.11930533478776003328E-01
    0.11931146482343479506E-01
    0.11931853006057219907E-01
    0.11931853006022443905E-01
    0.11934204851024508148E-01
    0.11935749784456871694E-01
    0.11938775412597550304E-01
    0.11939902188692083293E-01
    0.11937900835248670128E-01
    0.11939254651920534755E-01
    0.11936864762703565390E-01
    0.11934646525530868966E-01
    0.11932351970076769676E-01
    0.11931381966404478595E-01
    0.11932606727981766997E-01
    0.11932017810602470187E-01
    0.11934693129846142209E-01
    0.11935303080162312089E-01
    0.11945671261356063247E-01
    0.11948783320306318942E-01
    0.11954127563564778333E-01
    0.11956299890257952520E-01
    0.11952926379630154571E-01
    0.11955428451410978624E-01
    0.11951204766709333169E-01
    0.11947187985402795557E-01
    0.11943011441351703353E-01
    0.11941113596940085631E-01
    0.11943259746726690371E-01
    0.11941842226612472966E-01
    0.11947107493212901289E-01
    0.11948289201782012064E-01
    0.11940813627412828063E-01
    0.11942020660669096926E-01
    0.11946273688151699127E-01
    0.11946840615289911272E-01
    0.11943059492657819715E-01
    0.11943275773647128724E-01
    0.11939546683777464003E-01
    0.11937900079631752134E-01
    0.11934848388622845347E-01
    0.11934388483589079138E-01
    0.11936944399261866304E-01
    0.11937230419830488146E-01
    0.11939568804328328996E-01
    0.11939860564086366215E-01
    0.11955043670689299504E-01
    0.11957819425593881058E-01
    0.11965138259538090834E-01
    0.11966652107511809716E-01
    0.11960601178431000402E-01
    0.11961565824792349394E-01
    0.11955274323698973984E-01
    0.11951962482687629452E-01
    0.11946582711672560154E-01
    0.11945364792698792006E-01
    0.11949411741020900951E-01
    0.11949184578533609755E-01
    0.11954145813068193724E-01
    0.11954925853230770685E-01
    0.11939254651954821565E-01
    0.11937900835245611811E-01
    0.11939902188713148040E-01
    0.11938775412600886178E-01
    0.11935749784497379222E-01
    0.11934204850984654611E-01
    0.11932017810689105747E-01
    0.11932606727920321357E-01
    0.11931381966489736784E-01
    0.11932351970016616405E-01
    0.11934646525580143786E-01
    0.11936864762708630783E-01
    0.11935303080192548320E-01
    0.11934693129849679311E-01
    0.11943275773668887360E-01
    0.11943059492657264603E-01
    0.11946840615306328695E-01
    0.11946273688158330975E-01
    0.11942020660688446032E-01
    0.11940813627398639760E-01
    0.11937230419859931607E-01
    0.11936944399230625669E-01
    0.11934388483641112169E-01
    0.11934848388589568147E-01
    0.11937900079662631947E-01
    0.11939546683771541657E-01
    0.11939860564104435095E-01
    0.11939568804328941354E-01
    0.11955428451468970430E-01
    0.11952926379673651028E-01
    0.11956299890308960329E-01
    0.11954127563606233020E-01
    0.11948783320346070130E-01
    0.11945671261370692171E-01
    0.11941842226643765643E-01
    0.11943259746740493565E-01
    0.11941113596973326402E-01
    0.11943011441370068870E-01
    0.11947187985448018063E-01
    0.11951204766760613329E-01
    0.11948289201823204808E-01
    0.11947107493244905202E-01
    0.11961565824845090192E-01
    0.11960601178475069317E-01
    0.11966652107568757218E-01
    0.11965138259587717803E-01
    0.11957819425632957439E-01
    0.11955043670708761366E-01
    0.11949184578555668498E-01
    0.11949411741034431794E-01
    0.11945364792727071468E-01
    0.11946582711689104211E-01
    0.11951962482725335402E-01
    0.11955274323738258532E-01
    0.11954925853269002256E-01
    0.11954145813099999879E-01
    0.11953749735425765049E-01
    0.11954687589964868924E-01
    0.11960993857899577392E-01
    0.11960993857895181602E-01
    0.11954687589965077091E-01
    0.11953749735412307065E-01
    0.11948001324710981821E-01
    0.11946669169550151735E-01
    0.11942256979084565210E-01
    0.11942256979070442827E-01
    0.11946669169564695656E-01
    0.11948001324715023727E-01
    0.11950313566557938319E-01
    0.11950313566553884270E-01
    0.11973234342796004390E-01
    0.11976009945910163698E-01
    0.11986624758400612686E-01
    0.11987613767041630994E-01
    0.11977732098582452580E-01
    0.11977206166198829662E-01
    0.11967690062108888790E-01
    0.11964616074917003991E-01
    0.11957086522058464617E-01
    0.11956414831195239651E-01
    0.11963136368522434005E-01
    0.11964153327091062509E-01
    0.11969575953776848826E-01
    0.11970044787261130415E-01
    0.11977206166260519898E-01
    0.11977732098632988544E-01
    0.11987613767102041004E-01
    0.11986624758448234315E-01
    0.11976009945944681226E-01
    0.11973234342812428752E-01
    0.11964153327099097748E-01
    0.11963136368537479262E-01
    0.11956414831215482139E-01
    0.11957086522078167606E-01
    0.11964616074957681521E-01
    0.11967690062162038983E-01
    0.11970044787299941383E-01
    0.11969575953808495386E-01
    0.12005694116239501446E-01
    0.12008329434026732835E-01
    0.12024331803813303327E-01
    0.12024331803801796906E-01
    0.12008329434007950984E-01
    0.12005694116194429860E-01
    0.11991154126646249439E-01
    0.11988026004593820700E-01
    0.11976932540881873174E-01
    0.11976932540889221462E-01
    0.11988026004614727588E-01
    0.11991154126693149423E-01
    0.11997304471882779681E-01
    0.11997304471876807028E-01
    0.11966248376095412267E-01
    0.11971843144923714763E-01
    0.11981100643002175546E-01
    0.11984989251414035136E-01
    0.11979228214651546289E-01
    0.11983644501923247649E-01
    0.11976355273852764410E-01
    0.11969335550309089314E-01
    0.11962067580823724025E-01
    0.11958706079548757709E-01
    0.11962364466353956824E-01
    0.11959726431219050435E-01
    0.11969071179039617731E-01
    0.11971173156309687299E-01
    0.12002276211122545752E-01
    0.12012053530321102970E-01
    0.12028161504178612809E-01
    0.12034871001909763083E-01
    0.12024812801747504498E-01
    0.12032326368203907774E-01
    0.12019782667000055570E-01
    0.12007701649488560988E-01
    0.11995136288640243644E-01
    0.11989320485396432608E-01
    0.11995620616253708027E-01
    0.11990972273373550275E-01
    0.12007253972222207972E-01
    0.12010892948394018276E-01
    0.11980659297529132681E-01
    0.11986096686117391971E-01
    0.11998798915641793045E-01
    0.12001915854431936814E-01
    0.11991743861358969414E-01
    0.11993826291156946609E-01
    0.11982980638098196524E-01
    0.11976975275287644190E-01
    0.11967666798531031297E-01
    0.11965274340874050910E-01
    0.11971892745718066761E-01
    0.11970843978256656345E-01
    0.11980214857306114434E-01
    0.11981785445529290549E-01
    0.12026247097646635895E-01
    0.12036287522490689283E-01
    0.12058596937011634501E-01
    0.12064339585361768051E-01
    0.12046612596742426252E-01
    0.12050333955934647290E-01
    0.12031440315628293483E-01
    0.12020878591899786594E-01
    0.12004678075701281578E-01
    0.12000347738731143715E-01
    0.12011645814867627849E-01
    0.12009349083921613474E-01
    0.12026259884179322721E-01
    0.12029122463584750180E-01
    0.12064819409810028858E-01
    0.12081439189963752434E-01
    0.12109150520291659531E-01
    0.12120174226472903850E-01
    0.12102637815507577557E-01
    0.12114908172395610561E-01
    0.12093695897939522876E-01
    0.12073341918489579119E-01
    0.12051972406455387782E-01
    0.12042067656861948563E-01
    0.12052998631617652808E-01
    0.12045192698816740290E-01
    0.12072897903142415857E-01
    0.12078981613081837820E-01
    0.12171608084441898345E-01
    0.12198644154046268603E-01
    0.12245530008109403036E-01
    0.12262536117927685941E-01
    0.12232138148561839952E-01
    0.12251076698332507772E-01
    0.12216240021573713040E-01
    0.12183024165229832184E-01
    0.12147530559062804864E-01
    0.12131208702314809703E-01
    0.12150025931512551183E-01
    0.12137640459223471637E-01
    0.12183284743583003285E-01
    0.12193022378474633119E-01
    0.12107311186354236671E-01
    0.12125074169451410810E-01
    0.12164626539709179689E-01
    0.12174384575576770173E-01
    0.12142600971380599142E-01
    0.12148195353412804751E-01
    0.12115161636286916544E-01
    0.12097299129543555296E-01
    0.12069104548028971799E-01
    0.12061698957713765101E-01
    0.12081547292452504694E-01
    0.12077489303023578732E-01
    0.12107195584819797907E-01
    0.12112069367816710730E-01
    0.12250696233479579575E-01
    0.12280660399778105252E-01
    0.12350525825307049482E-01
    0.12365448671676288611E-01
    0.12307845305171316586E-01
    0.12314290774771995129E-01
    0.12256891172140701660E-01
    0.12228169991335793507E-01
    0.12179607089841507778E-01
    0.12167709070681155883E-01
    0.12203250398448998310E-01
    0.12197427188283479355E-01
    0.12247710624772841295E-01
    0.12255340895291464212E-01
    0.12008066442307225100E-01
    0.12014083750255649327E-01
    0.12032238694543709659E-01
    0.12035027953257596348E-01
    0.12018836432353720289E-01
    0.12019050904038113339E-01
    0.12002837652907964380E-01
    0.11996726203213967446E-01
    0.11983773628054767563E-01
    0.11981974518150410869E-01
    0.11992739533169861216E-01
    0.11993245319755993852E-01
    0.12004033944202779222E-01
    0.12005311458920673445E-01
    0.12070214329376511425E-01
    0.12082254529662890541E-01
    0.12114249055640843172E-01
    0.12120408311462575399E-01
    0.12092552876629041395E-01
    0.12093900540504435789E-01
    0.12065473385761712674E-01
    0.12054075313901796082E-01
    0.12031338859068247890E-01
    0.12027566031345684680E-01
    0.12045605288875564989E-01
    0.12045100459208134616E-01
    0.12065704556056169872E-01
    0.12068451815240764657E-01
    0.12055078805376467227E-01
    0.12061750125905844333E-01
    0.12088259012598833939E-01
    0.12090442228885361908E-01
    0.12065326453937581450E-01
    0.12063279162573218445E-01
    0.12039147066180401480E-01
    0.12032234629820342739E-01
    0.12013515005782956363E-01
    0.12012257884791353174E-01
    0.12029362947183283236E-01
    0.12032240276617764754E-01
    0.12045344467638363292E-01
    0.12046287904125202797E-01
    0.12141604881084854667E-01
    0.12156447508827184292E-01
    0.12202152247602840104E-01
    0.12209202555562174985E-01
    0.12167712017219179874E-01
    0.12167293374773721637E-01
    0.12125468316355955678E-01
    0.12111297355382907165E-01
    0.12078731556247361209E-01
    0.12075008023939983598E-01
    0.12102563808565072745E-01
    0.12104412758276407100E-01
    0.12130786133580597277E-01
    0.12133713057573176225E-01
    0.12182905660943783160E-01
    0.12205931393786680073E-01
    0.12263696024537010590E-01
    0.12275570074166469378E-01
    0.12225543919566162973E-01
    0.12227961222191585308E-01
    0.12177057045759468942E-01
    0.12156699515678095688E-01
    0.12116221353994552357E-01
    0.12109159856743817799E-01
    0.12140724635061534917E-01
    0.12138651427375427017E-01
    0.12176898891174115641E-01
    0.12182108204802170534E-01
    0.12389196254372285277E-01
    0.12431225708537571237E-01
    0.12536891668509709055E-01
    0.12557260357312834478E-01
    0.12464703458785749562E-01
    0.12465986361709107191E-01
    0.12374023762888182801E-01
    0.12339600095966395468E-01
    0.12267185652469135906E-01
    0.12255215692469893785E-01
    0.12312446293151625698E-01
    0.12308801258153544839E-01
    0.12377747868619060068E-01
    0.12386626264472212766E-01
    0.12298653878874271639E-01
    0.12330027317361030165E-01
    0.12412629122480126412E-01
    0.12429339746011191375E-01
    0.12356439007653484061E-01
    0.12358719882383776070E-01
    0.12283304960618570897E-01
    0.12255761997569971505E-01
    0.12197169889975415305E-01
    0.12188731404281557408E-01
    0.12235629709928442024E-01
    0.12234764784207846633E-01
    0.12287205121886760062E-01
    0.12294021128567729842E-01
    0.12592822546656799731E-01
    0.12655690727220170189E-01
    0.12809955382087668402E-01
    0.12843821079265032095E-01
    0.12708708965451448805E-01
    0.12713069864336340800E-01
    0.12573485966091878935E-01
    0.12522618855181740644E-01
    0.12414913705032171176E-01
    0.12398364852386691004E-01
    0.12482739656047446911E-01
    0.12477229211654597765E-01
    0.12578762830873321810E-01
    0.12592371687716551881E-01
    0.11983644502062533801E-01
    0.11979228214772151204E-01
    0.11984989251546000755E-01
    0.11981100643118757637E-01
    0.11971843145019582522E-01
    0.11966248376167077164E-01
    0.11959726431277855827E-01
    0.11962364466423342294E-01
    0.11958706079616070184E-01
    0.11962067580899390928E-01
    0.11969335550412154440E-01
    0.11976355273983163574E-01
    0.11971173156410674226E-01
    0.11969071179131417562E-01
    0.11993826291298704742E-01
    0.11991743861492425161E-01
    0.12001915854591300656E-01
    0.11998798915790602829E-01
    0.11986096686231113503E-01
    0.11980659297616210596E-01
    0.11970843978321155099E-01
    0.11971892745792247006E-01
    0.11965274340939540190E-01
    0.11967666798604462142E-01
    0.11976975275388154069E-01
    0.11982980638216548033E-01
    0.11981785445637826992E-01
    0.11980214857407396264E-01
    0.12032326368513123968E-01
    0.12024812802023499003E-01
    0.12034871002211205981E-01
    0.12028161504451606242E-01
    0.12012053530546431407E-01
    0.12002276211306183579E-01
    0.11990972273519986957E-01
    0.11995620616427433644E-01
    0.11989320485556551055E-01
    0.11995136288823475545E-01
    0.12007701649721522208E-01
    0.12019782667288746517E-01
    0.12010892948627017660E-01
    0.12007253972438687584E-01
    0.12050333956265904881E-01
    0.12046612597062973660E-01
    0.12064339585739403474E-01
    0.12058596937372377186E-01
    0.12036287522772378886E-01
    0.12026247097880599785E-01
    0.12009349084098638535E-01
    0.12011645815065736739E-01
    0.12000347738898969538E-01
    0.12004678075889308256E-01
    0.12020878592142261038E-01
    0.12031440315908666430E-01
    0.12029122463849082139E-01
    0.12026259884431291305E-01
    0.12019050904223652423E-01
    0.12018836432525707714E-01
    0.12035027953460298786E-01
    0.12032238694725897257E-01
    0.12014083750394508737E-01
    0.12008066442413803041E-01
    0.11993245319827710790E-01
    0.11992739533260576845E-01
    0.11981974518228251381E-01
    0.11983773628144855222E-01
    0.11996726203342491374E-01
    0.12002837653067744556E-01
    0.12005311459057324552E-01
    0.12004033944328761779E-01
    0.12063279162783931836E-01
    0.12065326454109350299E-01
    0.12090442229074106761E-01
    0.12088259012745650525E-01
    0.12061750126010855819E-01
    0.12055078805429171596E-01
    0.12032240276641447199E-01
    0.12029362947250574895E-01
    0.12012257884858922388E-01
    0.12013515005880834666E-01
    0.12032234629957382424E-01
    0.12039147066369102965E-01
    0.12046287904254554188E-01
    0.12045344467747224129E-01
    0.12093900540957889037E-01
    0.12092552877063924427E-01
    0.12120408311977946131E-01
    0.12114249056118183562E-01
    0.12082254530039582274E-01
    0.12070214329692042013E-01
    0.12045100459439227539E-01
    0.12045605289137933241E-01
    0.12027566031565208732E-01
    0.12031338859312895942E-01
    0.12054075314228033383E-01
    0.12065473386147870793E-01
    0.12068451815596613688E-01
    0.12065704556393556240E-01
    0.12167293375351996912E-01
    0.12167712017743713415E-01
    0.12209202556155778277E-01
    0.12202152248132218729E-01
    0.12156447509235956267E-01
    0.12141604881398407670E-01
    0.12104412758498012820E-01
    0.12102563808855557395E-01
    0.12075008024198176371E-01
    0.12078731556559765825E-01
    0.12111297355790128297E-01
    0.12125468316860302243E-01
    0.12133713057993884832E-01
    0.12130786133967320917E-01
    0.12114908173034955041E-01
    0.12102637816088612777E-01
    0.12120174227106402312E-01
    0.12109150520877128704E-01
    0.12081439190449311943E-01
    0.12064819410219800033E-01
    0.12045192699147680426E-01
    0.12052998631999429016E-01
    0.12042067657211864840E-01
    0.12051972406851196168E-01
    0.12073341918979603807E-01
    0.12093695898534794972E-01
    0.12078981613576553200E-01
    0.12072897903606978273E-01
    0.12148195354124037906E-01
    0.12142600972075371507E-01
    0.12174384576396465180E-01
    0.12164626540495411880E-01
    0.12125074170077807315E-01
    0.12107311186891856966E-01
    0.12077489303440745033E-01
    0.12081547292904566693E-01
    0.12061698958097256951E-01
    0.12069104548449137437E-01
    0.12097299130074011184E-01
    0.12115161636888426705E-01
    0.12112069368397843094E-01
    0.12107195585378902752E-01
    0.12251076699579080062E-01
    0.12232138149719549297E-01
    0.12262536119207639515E-01
    0.12245530009295102145E-01
    0.12198644155034611691E-01
    0.12171608085290398435E-01
    0.12137640459918179817E-01
    0.12150025932295390255E-01
    0.12131208703031423971E-01
    0.12147530559863827307E-01
    0.12183024166203829108E-01
    0.12216240022734340190E-01
    0.12193022379467129135E-01
    0.12183284744522153084E-01
    0.12314290776195922078E-01
    0.12307845306593399523E-01
    0.12365448673363584747E-01
    0.12350525826933321516E-01
    0.12280660401081656269E-01
    0.12250696234623794506E-01
    0.12197427189179443213E-01
    0.12203250399402976525E-01
    0.12167709071488652314E-01
    0.12179607090717498030E-01
    0.12228169992424762699E-01
    0.12256891173358383865E-01
    0.12255340896490154665E-01
    0.12247710625934217846E-01
    0.12227961223185573186E-01
    0.12225543920541235426E-01
    0.12275570075318353522E-01
    0.12263696025631119768E-01
    0.12205931394659547823E-01
    0.12182905661705590444E-01
    0.12138651427949800898E-01
    0.12140724635685830671E-01
    0.12109159857264125554E-01
    0.12116221354561359375E-01
    0.12156699516411588816E-01
    0.12177057046605361743E-01
    0.12182108205611089438E-01
    0.12176898891951937892E-01
    0.12358719883733259096E-01
    0.12356439008922309383E-01
    0.12429339747475672689E-01
    0.12412629123825727126E-01
    0.12330027318434256742E-01
    0.12298653879766661967E-01
    0.12234764784884935226E-01
    0.12235629710709206366E-01
    0.12188731404961246352E-01
    0.12197169890744626389E-01
    0.12255761998551120695E-01
    0.12283304961774717257E-01