# vtk DataFile Version 3.0
LAPLACIEN  2D
ASCII
DATASET UNSTRUCTURED_GRID
FIELD FieldData 1
TIME 1 1 double
10.4000
 POINTS        7297  float
   1.5625000000000000E-002  0.96875000000000000        0.0000000000000000     
   3.1250000000000000E-002  0.96875000000000000        0.0000000000000000     
   3.1250000000000000E-002  0.98437500000000000        0.0000000000000000     
   9.3749999999999997E-003  0.97812500000000002        0.0000000000000000     
   2.0312500000000001E-002  0.97968750000000004        0.0000000000000000     
   2.1874999999999999E-002  0.99062499999999998        0.0000000000000000     
   1.0937499999999999E-002  0.98906249999999996        0.0000000000000000     
   4.6875000000000000E-002  0.96875000000000000        0.0000000000000000     
   6.2500000000000000E-002  0.96875000000000000        0.0000000000000000     
   6.2500000000000000E-002  0.98437500000000000        0.0000000000000000     
   4.0625000000000001E-002  0.97812500000000002        0.0000000000000000     
   5.1562499999999997E-002  0.97968750000000004        0.0000000000000000     
   5.3124999999999999E-002  0.99062499999999998        0.0000000000000000     
   4.2187500000000003E-002  0.98906249999999996        0.0000000000000000     
   1.5625000000000000E-002  0.93750000000000000        0.0000000000000000     
   3.1250000000000000E-002  0.93750000000000000        0.0000000000000000     
   3.1250000000000000E-002  0.95312500000000000        0.0000000000000000     
   9.3749999999999997E-003  0.94687500000000002        0.0000000000000000     
   2.0312500000000001E-002  0.94843750000000004        0.0000000000000000     
   2.1874999999999999E-002  0.95937499999999998        0.0000000000000000     
   1.0937499999999999E-002  0.95781249999999996        0.0000000000000000     
   4.6875000000000000E-002  0.93750000000000000        0.0000000000000000     
   6.2500000000000000E-002  0.93750000000000000        0.0000000000000000     
   6.2500000000000000E-002  0.95312500000000000        0.0000000000000000     
   4.0625000000000001E-002  0.94687500000000002        0.0000000000000000     
   5.1562499999999997E-002  0.94843750000000004        0.0000000000000000     
   5.3124999999999999E-002  0.95937499999999998        0.0000000000000000     
   4.2187500000000003E-002  0.95781249999999996        0.0000000000000000     
   7.8125000000000000E-002  0.96875000000000000        0.0000000000000000     
   9.3750000000000000E-002  0.96875000000000000        0.0000000000000000     
   9.3750000000000000E-002  0.98437500000000000        0.0000000000000000     
   7.1874999999999994E-002  0.97812500000000002        0.0000000000000000     
   8.2812499999999997E-002  0.97968750000000004        0.0000000000000000     
   8.4375000000000006E-002  0.99062499999999998        0.0000000000000000     
   7.3437500000000003E-002  0.98906249999999996        0.0000000000000000     
  0.10937500000000000       0.96875000000000000        0.0000000000000000     
  0.12500000000000000       0.96875000000000000        0.0000000000000000     
  0.12500000000000000       0.98437500000000000        0.0000000000000000     
  0.10312499999999999       0.97812500000000002        0.0000000000000000     
  0.11406250000000000       0.97968750000000004        0.0000000000000000     
  0.11562500000000001       0.99062499999999998        0.0000000000000000     
  0.10468750000000000       0.98906249999999996        0.0000000000000000     
   7.8125000000000000E-002  0.93750000000000000        0.0000000000000000     
   9.3750000000000000E-002  0.93750000000000000        0.0000000000000000     
   9.3750000000000000E-002  0.95312500000000000        0.0000000000000000     
   7.1874999999999994E-002  0.94687500000000002        0.0000000000000000     
   8.2812499999999997E-002  0.94843750000000004        0.0000000000000000     
   8.4375000000000006E-002  0.95937499999999998        0.0000000000000000     
   7.3437500000000003E-002  0.95781249999999996        0.0000000000000000     
  0.10937500000000000       0.93750000000000000        0.0000000000000000     
  0.12500000000000000       0.93750000000000000        0.0000000000000000     
  0.12500000000000000       0.95312500000000000        0.0000000000000000     
  0.10312499999999999       0.94687500000000002        0.0000000000000000     
  0.11406250000000000       0.94843750000000004        0.0000000000000000     
  0.11562500000000001       0.95937499999999998        0.0000000000000000     
  0.10468750000000000       0.95781249999999996        0.0000000000000000     
   1.5625000000000000E-002  0.90625000000000000        0.0000000000000000     
   3.1250000000000000E-002  0.90625000000000000        0.0000000000000000     
   3.1250000000000000E-002  0.92187500000000000        0.0000000000000000     
   9.3749999999999997E-003  0.91562500000000002        0.0000000000000000     
   2.0312500000000001E-002  0.91718750000000004        0.0000000000000000     
   2.1874999999999999E-002  0.92812499999999998        0.0000000000000000     
   1.0937499999999999E-002  0.92656249999999996        0.0000000000000000     
   4.6875000000000000E-002  0.90625000000000000        0.0000000000000000     
   6.2500000000000000E-002  0.90625000000000000        0.0000000000000000     
   6.2500000000000000E-002  0.92187500000000000        0.0000000000000000     
   4.0625000000000001E-002  0.91562500000000002        0.0000000000000000     
   5.1562499999999997E-002  0.91718750000000004        0.0000000000000000     
   5.3124999999999999E-002  0.92812499999999998        0.0000000000000000     
   4.2187500000000003E-002  0.92656249999999996        0.0000000000000000     
   1.5625000000000000E-002  0.87500000000000000        0.0000000000000000     
   3.1250000000000000E-002  0.87500000000000000        0.0000000000000000     
   3.1250000000000000E-002  0.89062500000000000        0.0000000000000000     
   9.3749999999999997E-003  0.88437500000000002        0.0000000000000000     
   2.0312500000000001E-002  0.88593750000000004        0.0000000000000000     
   2.1874999999999999E-002  0.89687499999999998        0.0000000000000000     
   1.0937499999999999E-002  0.89531249999999996        0.0000000000000000     
   4.6875000000000000E-002  0.87500000000000000        0.0000000000000000     
   6.2500000000000000E-002  0.87500000000000000        0.0000000000000000     
   6.2500000000000000E-002  0.89062500000000000        0.0000000000000000     
   4.0625000000000001E-002  0.88437500000000002        0.0000000000000000     
   5.1562499999999997E-002  0.88593750000000004        0.0000000000000000     
   5.3124999999999999E-002  0.89687499999999998        0.0000000000000000     
   4.2187500000000003E-002  0.89531249999999996        0.0000000000000000     
   7.8125000000000000E-002  0.90625000000000000        0.0000000000000000     
   9.3750000000000000E-002  0.90625000000000000        0.0000000000000000     
   9.3750000000000000E-002  0.92187500000000000        0.0000000000000000     
   7.1874999999999994E-002  0.91562500000000002        0.0000000000000000     
   8.2812499999999997E-002  0.91718750000000004        0.0000000000000000     
   8.4375000000000006E-002  0.92812499999999998        0.0000000000000000     
   7.3437500000000003E-002  0.92656249999999996        0.0000000000000000     
  0.10937500000000000       0.90625000000000000        0.0000000000000000     
  0.12500000000000000       0.90625000000000000        0.0000000000000000     
  0.12500000000000000       0.92187500000000000        0.0000000000000000     
  0.10312499999999999       0.91562500000000002        0.0000000000000000     
  0.11406250000000000       0.91718750000000004        0.0000000000000000     
  0.11562500000000001       0.92812499999999998        0.0000000000000000     
  0.10468750000000000       0.92656249999999996        0.0000000000000000     
   7.8125000000000000E-002  0.87500000000000000        0.0000000000000000     
   9.3750000000000000E-002  0.87500000000000000        0.0000000000000000     
   9.3750000000000000E-002  0.89062500000000000        0.0000000000000000     
   7.1874999999999994E-002  0.88437500000000002        0.0000000000000000     
   8.2812499999999997E-002  0.88593750000000004        0.0000000000000000     
   8.4375000000000006E-002  0.89687499999999998        0.0000000000000000     
   7.3437500000000003E-002  0.89531249999999996        0.0000000000000000     
  0.10937500000000000       0.87500000000000000        0.0000000000000000     
  0.12500000000000000       0.87500000000000000        0.0000000000000000     
  0.12500000000000000       0.89062500000000000        0.0000000000000000     
  0.10312499999999999       0.88437500000000002        0.0000000000000000     
  0.11406250000000000       0.88593750000000004        0.0000000000000000     
  0.11562500000000001       0.89687499999999998        0.0000000000000000     
  0.10468750000000000       0.89531249999999996        0.0000000000000000     
  0.14062500000000000       0.96875000000000000        0.0000000000000000     
  0.15625000000000000       0.96875000000000000        0.0000000000000000     
  0.15625000000000000       0.98437500000000000        0.0000000000000000     
  0.13437499999999999       0.97812500000000002        0.0000000000000000     
  0.14531250000000001       0.97968750000000004        0.0000000000000000     
  0.14687500000000001       0.99062499999999998        0.0000000000000000     
  0.13593749999999999       0.98906249999999996        0.0000000000000000     
  0.17187500000000000       0.96875000000000000        0.0000000000000000     
  0.18750000000000000       0.96875000000000000        0.0000000000000000     
  0.18750000000000000       0.98437500000000000        0.0000000000000000     
  0.16562499999999999       0.97812500000000002        0.0000000000000000     
  0.17656250000000001       0.97968750000000004        0.0000000000000000     
[...]
 CELL_DATA       14336
 SCALARS Nutrient float
 LOOKUP_TABLE default
    0.58060730067158198772E-02
    0.58059890691289327280E-02
    0.58066407778218217736E-02
    0.58066407777448945937E-02
    0.58059890694367533373E-02
    0.58060730064489153232E-02
    0.58055559582991271214E-02
    0.58052503663091614694E-02
    0.58049203689253979152E-02
    0.58049203671580659747E-02
    0.58052503672192164869E-02
    0.58055559579216209354E-02
    0.58055080612181434244E-02
    0.58055080609308463285E-02
    0.58082137879393149274E-02
    0.58087841624091954632E-02
    0.58103323626448981354E-02
    0.58107609584379694978E-02
    0.58096003058884793102E-02
    0.58101566601643202595E-02
    0.58089399683102383581E-02
    0.58079278586452894734E-02
    0.58068595588628077464E-02
    0.58064765154227006988E-02
    0.58071425542823513002E-02
    0.58070601585549202345E-02
    0.58081032810823425214E-02
    0.58083324940193309036E-02
    0.58101566602140166176E-02
    0.58096003058424102589E-02
    0.58107609584584496432E-02
    0.58103323626256062756E-02
    0.58087841624850635944E-02
    0.58082137878451142385E-02
    0.58070601587436945779E-02
    0.58071425540989832226E-02
    0.58064765156614515582E-02
    0.58068595586370057304E-02
    0.58079278587644684456E-02
    0.58089399682724396010E-02
    0.58083324940785743123E-02
    0.58081032810555401763E-02
    0.58130288376685825338E-02
    0.58132779952228897172E-02
    0.58156978241273773328E-02
    0.58156978241203274166E-02
    0.58132779952436855822E-02
    0.58130288376426883165E-02
    0.58108835823806265566E-02
    0.58102719866960873471E-02
    0.58086764229175096366E-02
    0.58086764228253177575E-02
    0.58102719867543090038E-02
    0.58108835823428815759E-02
    0.58115881465536055328E-02
    0.58115881465369625958E-02
    0.58139347096893114267E-02
    0.58154758349674593940E-02
    0.58184945193171556943E-02
    0.58196186900823622737E-02
    0.58176216730213906048E-02
    0.58189728033394188048E-02
    0.58165882498506975631E-02
    0.58143751639752197860E-02
    0.58120863045304001909E-02
    0.58111185874447149335E-02
    0.58123403873045972889E-02
    0.58117530616962074022E-02
    0.58144216174293257213E-02
    0.58150301156027796312E-02
    0.58253747868972057325E-02
    0.58284798470904924939E-02
    0.58338125319222665019E-02
    0.58359797681354283472E-02
    0.58326133452097517901E-02
    0.58351102546073561547E-02
    0.58308956521095226325E-02
    0.58268877590735065203E-02
    0.58227206424185428205E-02
    0.58208272484212755099E-02
    0.58229683848551793898E-02
    0.58215543579475011182E-02
    0.58268075186949427197E-02
    0.58279864551803737052E-02
    0.58205283564388057144E-02
    0.58217324104444714145E-02
    0.58259760001260233950E-02
    0.58265415853240533003E-02
    0.58227688420489018273E-02
    0.58229848582610826621E-02
    0.58192640102918613207E-02
    0.58176212135251448646E-02
    0.58145766589861600307E-02
    0.58141181527813588087E-02
    0.58166678033920570651E-02
    0.58169532901936700162E-02
    0.58192860536552372744E-02
    0.58195770125449445068E-02
    0.58347268341538399000E-02
    0.58374963010359394097E-02
    0.58447999773012125277E-02
    0.58463102917972516875E-02
    0.58402720431346534860E-02
    0.58412349292318380134E-02
    0.58349566352406930306E-02
    0.58316521165241710575E-02
    0.58262841037508153810E-02
    0.58250692694533324698E-02
    0.58291068885215511705E-02
    0.58288804016234808253E-02
    0.58338305438605546002E-02
    0.58346087180864902519E-02
    0.58189728033691354853E-02
    0.58176216730304076974E-02
    0.58196186901026836918E-02
    0.58184945193275250039E-02
    0.58154758349937283116E-02
    0.58139347096749964885E-02
    0.58117530617408964810E-02
    0.58123403872811577053E-02
    0.58111185874930530032E-02
    0.58120863045092192173E-02
    0.58143751640087337762E-02
    0.58165882498663811981E-02
    0.58150301156257265534E-02
    0.58144216174391919610E-02
    0.58229848582802617649E-02
    0.58227688420560358776E-02
    0.58265415853400656654E-02
    0.58259760001362253037E-02
    0.58217324104580950653E-02
    0.58205283564334254695E-02
    0.58169532902076458158E-02
    0.58166678033798957861E-02
    0.58141181528091143843E-02
    0.58145766589748366232E-02
    0.58176212135457507774E-02
    0.58192640102969562035E-02
    0.58195770125591050545E-02
    0.58192860536601196536E-02
    0.58351102546686820990E-02
    0.58326133452593163092E-02
    0.58359797681901111679E-02
    0.58338125319688056633E-02
    0.58284798471306712916E-02
    0.58253747869197207085E-02
    0.58215543579739582533E-02
    0.58229683848781861599E-02
    0.58208272484514917908E-02
    0.58227206424461084439E-02
    0.58268877591195165910E-02
    0.58308956521665629424E-02
    0.58279864552239889902E-02
    0.58268075187312496147E-02
    0.58412349292878730511E-02
    0.58402720431838190188E-02
    0.58463102918571933225E-02
    0.58447999773547582372E-02
    0.58374963010761242790E-02
    0.58347268341776108158E-02
    0.58288804016434388189E-02
    0.58291068885419289672E-02
    0.58250692694786724429E-02
    0.58262841037739323061E-02
    0.58316521165631719781E-02
    0.58349566352856683388E-02
    0.58346087181266898664E-02
    0.58338305438957321902E-02
    0.58334358921627426503E-02
    0.58343715206579200780E-02
    0.58406646461366925130E-02
    0.58406646461329836742E-02
    0.58343715206554003921E-02
    0.58334358921503896844E-02
    0.58276998495888935811E-02
    0.58263706858256818222E-02
    0.58219684902403442614E-02
    0.58219684902345329378E-02
    0.58263706858354327028E-02
    0.58276998495980919524E-02
    0.58300068792107098692E-02
    0.58300068792079750776E-02
    0.58528794859997786831E-02
    0.58556492892654675789E-02
    0.58662425880660375166E-02
    0.58672293285585794959E-02
    0.58573677558949877042E-02
    0.58568429033330317648E-02
    0.58473461406241744251E-02
    0.58442788619251732213E-02
    0.58367652650600137035E-02
    0.58360953309735570660E-02
    0.58428025247793911878E-02
    0.58438174067921401858E-02
    0.58492285026827363012E-02
    0.58496961423231789989E-02
    0.58568429033973197495E-02
    0.58573677559486661201E-02
    0.58672293286207172908E-02
    0.58662425881158388255E-02
    0.58556492893005376160E-02
    0.58528794860175127612E-02
    0.58438174067993462271E-02
    0.58428025247973620557E-02
    0.58360953309927882104E-02
    0.58367652650837421185E-02
    0.58442788619668057173E-02
    0.58473461406812312149E-02
    0.58496961423634800947E-02
    0.58492285027163517727E-02
    0.58852736499327915065E-02
    0.58879032326309439088E-02
    0.59038747604023287044E-02
    0.59038747603909723372E-02
    0.58879032326111463772E-02
    0.58852736498864492362E-02
    0.58707624683757685807E-02
    0.58676404533624677146E-02
    0.58565698279429380044E-02
    0.58565698279514849869E-02
    0.58676404533833607241E-02
    0.58707624684244058902E-02
    0.58769000100531371480E-02
    0.58769000100471263312E-02
    0.58459073141134288570E-02
    0.58514898935606001612E-02
    0.58607288120676066800E-02
    0.58646085534224861105E-02
    0.58588591638983264498E-02
    0.58632665015972314226E-02
    0.58559922129670302637E-02
    0.58489873821248742139E-02
    0.58417346690692395841E-02
    0.58383807759041297936E-02
    0.58420309411098686470E-02
    0.58393992594391805340E-02
    0.58487236245582030145E-02
    0.58508208300214799985E-02
    0.58818614873823310552E-02
    0.58916195115685660033E-02
    0.59076969667101620481E-02
    0.59143924487074558266E-02
    0.59043533738942881317E-02
    0.59118525396368130920E-02
    0.58993324073378346564E-02
    0.58872754673282593971E-02
    0.58747347956157984494E-02
    0.58689311695401570612E-02
    0.58752182870504742959E-02
    0.58705803690923177157E-02
    0.58868289563641477968E-02
    0.58904602856096844807E-02
    0.58602888704870929534E-02
    0.58657152241564343778E-02
    0.58783927439117304725E-02
    0.58815026118021543344E-02
    0.58713509888066858430E-02
    0.58734291941089644684E-02
    0.58626044585021620109E-02
    0.58566121941426288119E-02
    0.58473227458736305034E-02
    0.58449358235872677161E-02
    0.58515400115701247594E-02
    0.58504938251183703432E-02
    0.58598451443129034519E-02
    0.58614121963328222678E-02
    0.59057877828353104802E-02
    0.59158088727382374117E-02
    0.59380777432253978310E-02
    0.59438091154317904130E-02
    0.59261142829591020170E-02
    0.59298283761451339724E-02
    0.59109691939723220042E-02
    0.59004283772233663552E-02
    0.58842588707936792011E-02
    0.58799378311346949325E-02
    0.58912136222293264021E-02
    0.58889222757057589977E-02
    0.59057999737738876844E-02
    0.59086566407598409972E-02
    0.59442859781641361680E-02
    0.59608750038729566706E-02
    0.59885365877524326939E-02
    0.59995403032477813074E-02
    0.59820339702056652548E-02
    0.59942820897285579995E-02
    0.59731074633795960480E-02
    0.59527909836394297949E-02
    0.59314607614250570641E-02
    0.59215754841152046239E-02
    0.59324857219922103035E-02
    0.59246957205414327308E-02
    0.59523486005106044511E-02
    0.59584206780874358900E-02
    0.60508858701500542118E-02
    0.60778751473145363818E-02
    0.61246836413997021373E-02
    0.61416608189397113582E-02
    0.61113102891016349988E-02
    0.61302161375626921039E-02
    0.60954369622120870009E-02
    0.60622788963660325517E-02
    0.60268459432806596038E-02
    0.60105535720473982422E-02
    0.60293385099191064772E-02
    0.60169762853986459572E-02
    0.60625402288369224443E-02
    0.60722607551981465368E-02
    0.59867048235207895659E-02
    0.60044369116709290016E-02
    0.60439220407698711693E-02
    0.60536636559263574259E-02
    0.60219319516972933531E-02
    0.60275155454613052464E-02
    0.59945376910217852348E-02
    0.59767081753884006984E-02
    0.59485635302920451123E-02
    0.59411724475061725159E-02
    0.59609853779657743719E-02
    0.59569358918701202990E-02
    0.59865881952246092004E-02
    0.59914529742990732530E-02
    0.61298516737716838079E-02
    0.61597671503120076525E-02
    0.62295238568690529737E-02
    0.62444230775769203959E-02
    0.61869054616631646501E-02
    0.61933380352401151345E-02
    0.61360277899686717015E-02
    0.61073554963325732067E-02
    0.60588725078332171872E-02
    0.60469962212230266713E-02
    0.60824796479845106775E-02
    0.60766677679863819600E-02
    0.61268671819603263973E-02
    0.61344843325750395002E-02
    0.58876418767442552024E-02
    0.58936474139935531025E-02
    0.59117684908870943988E-02
    0.59145519128508926288E-02
    0.58983912192698507646E-02
    0.58986054672694413631E-02
    0.58824229940557144769E-02
    0.58763238650008089645E-02
    0.58633967857041960348E-02
    0.58616017147172117668E-02
    0.58723449170492957039E-02
    0.58728500284662768505E-02
    0.58836173062863546257E-02
    0.58848920396556729170E-02
    0.59496739423487371781E-02
    0.59616929059935486190E-02
    0.59936312337858536556E-02
    0.59997796306473227812E-02
    0.59719730456206827907E-02
    0.59733183298035508191E-02
    0.59449411646945145640E-02
    0.59335646551143417932E-02
    0.59108699135609179057E-02
    0.59071045899699459875E-02
    0.59251099952759749348E-02
    0.59246065135577594823E-02
    0.59451725153866910936E-02
    0.59479145386268535145E-02
    0.59345637508034024266E-02
    0.59412230268640706804E-02
    0.59676837780093996283E-02
    0.59698630998740532042E-02
    0.59447936929895844188E-02
    0.59427508300352281656E-02
    0.59186630007926604308E-02
    0.59117637088358593669E-02
    0.58930796432041026786E-02
    0.58918247494134769540E-02
    0.59088965280479598119E-02
    0.59117681896657158294E-02
    0.59248479552814073759E-02
    0.59257897261003264489E-02
    0.60209357379478588984E-02
    0.60357534777857879682E-02
    0.60813817890996582985E-02
    0.60884209996089769593E-02
    0.60470010167593029118E-02
    0.60465844893148636141E-02
    0.60048305986231424389E-02
    0.59906837115392148202E-02
    0.59581756496215549160E-02
    0.59544585055592421860E-02
    0.59819639616076024369E-02
    0.59838094370986937010E-02
    0.60101372608426587019E-02
    0.60130594773865992872E-02
    0.60621719593051586264E-02
    0.60851599847022075016E-02
    0.61428319376000206989E-02
    0.61546877347277151316E-02
    0.61047408999762237461E-02
    0.61071543389670836233E-02
    0.60563328096135760417E-02
    0.60360093727604017047E-02
    0.59955999359945586630E-02
    0.59885511707722036134E-02
    0.60200614422131031034E-02
    0.60179921742622953518E-02
    0.60561751116578856416E-02
    0.60613757821768822140E-02
    0.62681397393503038989E-02
    0.63101073681661422332E-02
    0.64156193688250521059E-02
    0.64359596243564239776E-02
    0.63435352116435151856E-02
    0.63448154086594875031E-02
    0.62529878758697428343E-02
    0.62186179196234824679E-02
    0.61463152908080498013E-02
    0.61343652475033573490E-02
    0.61915066783089431346E-02
    0.61878672241245736077E-02
    0.62567086800098190014E-02
    0.62655735125027164564E-02
    0.61777277163196494744E-02
    0.62090542416038197251E-02
    0.62915291341099927741E-02
    0.63082171659234308886E-02
    0.62354285122718112327E-02
    0.62377080307083523220E-02
    0.61624097799113540172E-02
    0.61349096706377745022E-02
    0.60764119335708017058E-02
    0.60679869725120006568E-02
    0.61148075001682998877E-02
    0.61139420202090130965E-02
    0.61663008213366640384E-02
    0.61731066960229096993E-02
    0.64714609172366469383E-02
    0.65342452915262668259E-02
    0.66882970968825655039E-02
    0.67221216670074407720E-02
    0.65871943474500082097E-02
    0.65915525720144059821E-02
    0.64521621565524116607E-02
    0.64013668467752232044E-02
    0.62938186713791446220E-02
    0.62772933858082601011E-02
    0.63615421402266501480E-02
    0.63560371272628713932E-02
    0.64574275870203524247E-02
    0.64710184508637112050E-02
    0.58632665017432925372E-02
    0.58588591640262198054E-02
    0.58646085535610844447E-02
    0.58607288121910669498E-02
    0.58514898936616191807E-02
    0.58459073141913092675E-02
    0.58393992595015108832E-02
    0.58420309411856595830E-02
    0.58383807759755049910E-02
    0.58417346691515097123E-02
    0.58489873822333187173E-02
    0.58559922131045999069E-02
    0.58508208301284144251E-02
    0.58487236246560414185E-02
    0.58734291942572416922E-02
    0.58713509889467482838E-02
    0.58815026119672861316E-02
    0.58783927440665241851E-02
    0.58657152242747173654E-02
    0.58602888705789838580E-02
    0.58504938251860219567E-02
    0.58515400116500096428E-02
    0.58449358236561544527E-02
    0.58473227459529481323E-02
    0.58566121942483211765E-02
    0.58626044586273491979E-02
    0.58614121964466218626E-02
    0.58598451444194692497E-02
    0.59118525399559597108E-02
    0.59043533741803050016E-02
    0.59143924490186227175E-02
    0.59076969669927953399E-02
    0.58916195118022618785E-02
    0.58818614875741498382E-02
    0.58705803692458520190E-02
    0.58752182872325135754E-02
    0.58689311697076836441E-02
    0.58747347958076042221E-02
    0.58872754675697806098E-02
    0.58993324076364378125E-02
    0.58904602858515977409E-02
    0.58868289565893331186E-02
    0.59298283764859533590E-02
    0.59261142832889865742E-02
    0.59438091158180873103E-02
    0.59380777435949815349E-02
    0.59158088730274522443E-02
    0.59057877830763520419E-02
    0.58889222758891929949E-02
    0.58912136224350828209E-02
    0.58799378313093494941E-02
    0.58842588709898070373E-02
    0.59004283774740330301E-02
    0.59109691942622263894E-02
    0.59086566410324233012E-02
    0.59057999740338689570E-02
    0.58986054674604795206E-02
    0.58983912194470067974E-02
    0.59145519130578295269E-02
    0.59117684910737740636E-02
    0.58936474141356772621E-02
    0.58876418768537405399E-02
    0.58728500285402697456E-02
    0.58723449171439179306E-02
    0.58616017147978104890E-02
    0.58633967857990125505E-02
    0.58763238651334823506E-02
    0.58824229942210986763E-02
    0.58848920397964448598E-02
    0.58836173064163339863E-02
    0.59427508302498889201E-02
    0.59447936931645555675E-02
    0.59698631000652249354E-02
    0.59676837781585416118E-02
    0.59412230269704942309E-02
    0.59345637508567651228E-02
    0.59117681896900539998E-02
    0.59088965281170763993E-02
    0.58918247494823732316E-02
    0.58930796433048805716E-02
    0.59117637089754837901E-02
    0.59186630009851522866E-02
    0.59257897262320778295E-02
    0.59248479553923750346E-02
    0.59733183302655232932E-02
    0.59719730460634024363E-02
    0.59997796311699082283E-02
    0.59936312342702179404E-02
    0.59616929063762858637E-02
    0.59496739426695005593E-02
    0.59246065137939533593E-02
    0.59251099955445283435E-02
    0.59071045901951833509E-02
    0.59108699138126193431E-02
    0.59335646554476368167E-02
    0.59449411650888822622E-02
    0.59479145389896353677E-02
    0.59451725157306763506E-02
    0.60465844898997334403E-02
    0.60470010172897509931E-02
    0.60884210002074296703E-02
    0.60813817896342462974E-02
    0.60357534781985159797E-02
    0.60209357382646037926E-02
    0.59838094373234271273E-02
    0.59819639619023623131E-02
    0.59544585058213216067E-02
    0.59581756499393597262E-02
    0.59906837119516999704E-02
    0.60048305991340141657E-02
    0.60130594778123385921E-02
    0.60101372612340617577E-02
    0.59942820903811097968E-02
    0.59820339707999164655E-02
    0.59995403038942277454E-02
    0.59885365883508116791E-02
    0.59608750043701015306E-02
    0.59442859785850919729E-02
    0.59246957208825912558E-02
    0.59324857223852422647E-02
    0.59215754844756758254E-02
    0.59314607618323961571E-02
    0.59527909841412237138E-02
    0.59731074639879392849E-02
    0.59584206785942483639E-02
    0.59523486009870089572E-02
    0.60275155461854117850E-02
    0.60219319524044681233E-02
    0.60536636567580775353E-02
    0.60439220415677919265E-02
    0.60044369123080061981E-02
    0.59867048240682839075E-02
    0.59569358922968327838E-02
    0.59609853784283479278E-02
    0.59411724478997127510E-02
    0.59485635307232479288E-02
    0.59767081759302060143E-02
    0.59945376916359606120E-02
    0.59914529748916183632E-02
    0.59865881957947729083E-02
    0.61302161388259229433E-02
    0.61113102902759066162E-02
    0.61416608202359817409E-02
    0.61246836426015619295E-02
    0.60778751483178137041E-02
    0.60508858710129637820E-02
    0.60169762861069248788E-02
    0.60293385107164981437E-02
    0.60105535727779249924E-02
    0.60268459440965234733E-02
    0.60622788973551519284E-02
    0.60954369633891471864E-02
    0.60722607562060954695E-02
    0.60625402297912718910E-02
    0.61933380366801437863E-02
    0.61869054631008800482E-02
    0.62444230792791490317E-02
    0.62295238585102679155E-02
    0.61597671516293271698E-02
    0.61298516749290444736E-02
    0.60766677688949130229E-02
    0.60824796489522253012E-02
    0.60469962220437755221E-02
    0.60588725087235726849E-02
    0.61073554974361695877E-02
    0.61360277912023706084E-02
    0.61344843337883632126E-02
    0.61268671831359857935E-02
    0.61071543399724807777E-02
    0.61047409009621356191E-02
    0.61546877358894967400E-02
    0.61428319387042415803E-02
    0.60851599855839743833E-02
    0.60621719600751104370E-02
    0.60179921748445483476E-02
    0.60200614428464341646E-02
    0.59885511713010878415E-02
    0.59955999365714097299E-02
    0.60360093735039250032E-02
    0.60563328104708546995E-02
    0.60613757829957063891E-02
    0.60561751124452341266E-02
    0.62377080320674448480E-02
    0.62354285135491818032E-02
    0.63082171673958329500E-02
    0.62915291354630363194E-02
    0.62090542426838368772E-02
    0.61777277172176446943E-02
    0.61139420208921385277E-02
    0.61148075009559892459E-02
    0.60679869731985339523E-02
    0.60764119343480228752E-02
    0.61349096716270569429E-02
    0.61624097810766475733E-02