# vtk DataFile Version 3.0
LAPLACIEN  2D
ASCII
DATASET UNSTRUCTURED_GRID
FIELD FieldData 1
TIME 1 1 double
16.5000
 POINTS        7297  float
   1.5625000000000000E-002  0.96875000000000000        0.0000000000000000     
   3.1250000000000000E-002  0.96875000000000000        0.0000000000000000     
   3.1250000000000000E-002  0.98437500000000000        0.0000000000000000     
   9.3749999999999997E-003  0.97812500000000002        0.0000000000000000     
   2.0312500000000001E-002  0.97968750000000004        0.0000000000000000     
   2.1874999999999999E-002  0.99062499999999998        0.0000000000000000     
   1.0937499999999999E-002  0.98906249999999996        0.0000000000000000     
   4.6875000000000000E-002  0.96875000000000000        0.0000000000000000     
   6.2500000000000000E-002  0.96875000000000000        0.0000000000000000     
   6.2500000000000000E-002  0.98437500000000000        0.0000000000000000     
   4.0625000000000001E-002  0.97812500000000002        0.0000000000000000     
   5.1562499999999997E-002  0.97968750000000004        0.0000000000000000     
   5.3124999999999999E-002  0.99062499999999998        0.0000000000000000     
   4.2187500000000003E-002  0.98906249999999996        0.0000000000000000     
   1.5625000000000000E-002  0.93750000000000000        0.0000000000000000     
   3.1250000000000000E-002  0.93750000000000000        0.0000000000000000     
   3.1250000000000000E-002  0.95312500000000000        0.0000000000000000     
   9.3749999999999997E-003  0.94687500000000002        0.0000000000000000     
   2.0312500000000001E-002  0.94843750000000004        0.0000000000000000     
   2.1874999999999999E-002  0.95937499999999998        0.0000000000000000     
   1.0937499999999999E-002  0.95781249999999996        0.0000000000000000     
   4.6875000000000000E-002  0.93750000000000000        0.0000000000000000     
   6.2500000000000000E-002  0.93750000000000000        0.0000000000000000     
   6.2500000000000000E-002  0.95312500000000000        0.0000000000000000     
   4.0625000000000001E-002  0.94687500000000002        0.0000000000000000     
   5.1562499999999997E-002  0.94843750000000004        0.0000000000000000     
   5.3124999999999999E-002  0.95937499999999998        0.0000000000000000     
   4.2187500000000003E-002  0.95781249999999996        0.0000000000000000     
   7.8125000000000000E-002  0.96875000000000000        0.0000000000000000     
   9.3750000000000000E-002  0.96875000000000000        0.0000000000000000     
   9.3750000000000000E-002  0.98437500000000000        0.0000000000000000     
   7.1874999999999994E-002  0.97812500000000002        0.0000000000000000     
   8.2812499999999997E-002  0.97968750000000004        0.0000000000000000     
   8.4375000000000006E-002  0.99062499999999998        0.0000000000000000     
   7.3437500000000003E-002  0.98906249999999996        0.0000000000000000     
  0.10937500000000000       0.96875000000000000        0.0000000000000000     
  0.12500000000000000       0.96875000000000000        0.0000000000000000     
  0.12500000000000000       0.98437500000000000        0.0000000000000000     
  0.10312499999999999       0.97812500000000002        0.0000000000000000     
  0.11406250000000000       0.97968750000000004        0.0000000000000000     
  0.11562500000000001       0.99062499999999998        0.0000000000000000     
  0.10468750000000000       0.98906249999999996        0.0000000000000000     
   7.8125000000000000E-002  0.93750000000000000        0.0000000000000000     
   9.3750000000000000E-002  0.93750000000000000        0.0000000000000000     
   9.3750000000000000E-002  0.95312500000000000        0.0000000000000000     
   7.1874999999999994E-002  0.94687500000000002        0.0000000000000000     
   8.2812499999999997E-002  0.94843750000000004        0.0000000000000000     
   8.4375000000000006E-002  0.95937499999999998        0.0000000000000000     
   7.3437500000000003E-002  0.95781249999999996        0.0000000000000000     
  0.10937500000000000       0.93750000000000000        0.0000000000000000     
  0.12500000000000000       0.93750000000000000        0.0000000000000000     
  0.12500000000000000       0.95312500000000000        0.0000000000000000     
  0.10312499999999999       0.94687500000000002        0.0000000000000000     
  0.11406250000000000       0.94843750000000004        0.0000000000000000     
  0.11562500000000001       0.95937499999999998        0.0000000000000000     
  0.10468750000000000       0.95781249999999996        0.0000000000000000     
   1.5625000000000000E-002  0.90625000000000000        0.0000000000000000     
   3.1250000000000000E-002  0.90625000000000000        0.0000000000000000     
   3.1250000000000000E-002  0.92187500000000000        0.0000000000000000     
   9.3749999999999997E-003  0.91562500000000002        0.0000000000000000     
   2.0312500000000001E-002  0.91718750000000004        0.0000000000000000     
   2.1874999999999999E-002  0.92812499999999998        0.0000000000000000     
   1.0937499999999999E-002  0.92656249999999996        0.0000000000000000     
   4.6875000000000000E-002  0.90625000000000000        0.0000000000000000     
   6.2500000000000000E-002  0.90625000000000000        0.0000000000000000     
   6.2500000000000000E-002  0.92187500000000000        0.0000000000000000     
   4.0625000000000001E-002  0.91562500000000002        0.0000000000000000     
   5.1562499999999997E-002  0.91718750000000004        0.0000000000000000     
   5.3124999999999999E-002  0.92812499999999998        0.0000000000000000     
   4.2187500000000003E-002  0.92656249999999996        0.0000000000000000     
   1.5625000000000000E-002  0.87500000000000000        0.0000000000000000     
   3.1250000000000000E-002  0.87500000000000000        0.0000000000000000     
   3.1250000000000000E-002  0.89062500000000000        0.0000000000000000     
   9.3749999999999997E-003  0.88437500000000002        0.0000000000000000     
   2.0312500000000001E-002  0.88593750000000004        0.0000000000000000     
   2.1874999999999999E-002  0.89687499999999998        0.0000000000000000     
   1.0937499999999999E-002  0.89531249999999996        0.0000000000000000     
   4.6875000000000000E-002  0.87500000000000000        0.0000000000000000     
   6.2500000000000000E-002  0.87500000000000000        0.0000000000000000     
   6.2500000000000000E-002  0.89062500000000000        0.0000000000000000     
   4.0625000000000001E-002  0.88437500000000002        0.0000000000000000     
   5.1562499999999997E-002  0.88593750000000004        0.0000000000000000     
   5.3124999999999999E-002  0.89687499999999998        0.0000000000000000     
   4.2187500000000003E-002  0.89531249999999996        0.0000000000000000     
   7.8125000000000000E-002  0.90625000000000000        0.0000000000000000     
   9.3750000000000000E-002  0.90625000000000000        0.0000000000000000     
   9.3750000000000000E-002  0.92187500000000000        0.0000000000000000     
   7.1874999999999994E-002  0.91562500000000002        0.0000000000000000     
   8.2812499999999997E-002  0.91718750000000004        0.0000000000000000     
   8.4375000000000006E-002  0.92812499999999998        0.0000000000000000     
   7.3437500000000003E-002  0.92656249999999996        0.0000000000000000     
  0.10937500000000000       0.90625000000000000        0.0000000000000000     
  0.12500000000000000       0.90625000000000000        0.0000000000000000     
  0.12500000000000000       0.92187500000000000        0.0000000000000000     
  0.10312499999999999       0.91562500000000002        0.0000000000000000     
  0.11406250000000000       0.91718750000000004        0.0000000000000000     
  0.11562500000000001       0.92812499999999998        0.0000000000000000     
  0.10468750000000000       0.92656249999999996        0.0000000000000000     
   7.8125000000000000E-002  0.87500000000000000        0.0000000000000000     
   9.3750000000000000E-002  0.87500000000000000        0.0000000000000000     
   9.3750000000000000E-002  0.89062500000000000        0.0000000000000000     
   7.1874999999999994E-002  0.88437500000000002        0.0000000000000000     
   8.2812499999999997E-002  0.88593750000000004        0.0000000000000000     
   8.4375000000000006E-002  0.89687499999999998        0.0000000000000000     
   7.3437500000000003E-002  0.89531249999999996        0.0000000000000000     
  0.10937500000000000       0.87500000000000000        0.0000000000000000     
  0.12500000000000000       0.87500000000000000        0.0000000000000000     
  0.12500000000000000       0.89062500000000000        0.0000000000000000     
  0.10312499999999999       0.88437500000000002        0.0000000000000000     
  0.11406250000000000       0.88593750000000004        0.0000000000000000     
  0.11562500000000001       0.89687499999999998        0.0000000000000000     
  0.10468750000000000       0.89531249999999996        0.0000000000000000     
  0.14062500000000000       0.96875000000000000        0.0000000000000000     
  0.15625000000000000       0.96875000000000000        0.0000000000000000     
  0.15625000000000000       0.98437500000000000        0.0000000000000000     
  0.13437499999999999       0.97812500000000002        0.0000000000000000     
  0.14531250000000001       0.97968750000000004        0.0000000000000000     
  0.14687500000000001       0.99062499999999998        0.0000000000000000     
  0.13593749999999999       0.98906249999999996        0.0000000000000000     
  0.17187500000000000       0.96875000000000000        0.0000000000000000     
  0.18750000000000000       0.96875000000000000        0.0000000000000000     
  0.18750000000000000       0.98437500000000000        0.0000000000000000     
  0.16562499999999999       0.97812500000000002        0.0000000000000000     
  0.17656250000000001       0.97968750000000004        0.0000000000000000     
[...]
 CELL_DATA       14336
 SCALARS Nutrient float
 LOOKUP_TABLE default
    0.10676128162459002854E-01
    0.10676045666520502311E-01
    0.10676698413915811439E-01
    0.10676698413771112950E-01
    0.10676045667099938116E-01
    0.10676128161963577973E-01
    0.10675611159227139935E-01
    0.10675304717254894410E-01
    0.10674973716384764805E-01
    0.10674973713065524089E-01
    0.10675304718962131192E-01
    0.10675611158513979501E-01
    0.10675563253055247656E-01
    0.10675563252516485913E-01
    0.10678275703848860365E-01
    0.10678847660493749963E-01
    0.10680399497420889343E-01
    0.10680829462043605824E-01
    0.10679665994575163190E-01
    0.10680223071052763473E-01
    0.10679003687664515021E-01
    0.10677989294705947723E-01
    0.10676917455599092485E-01
    0.10676535297307080882E-01
    0.10677201288290168527E-01
    0.10677119405717054243E-01
    0.10678165570087352204E-01
    0.10678394446871986370E-01
    0.10680223071136848989E-01
    0.10679665994481281691E-01
    0.10680829462076211686E-01
    0.10680399497380709678E-01
    0.10678847660632300592E-01
    0.10678275703670204663E-01
    0.10677119406069465052E-01
    0.10677201287941572375E-01
    0.10676535297753612583E-01
    0.10676917455168698917E-01
    0.10677989294922585195E-01
    0.10679003687581777385E-01
    0.10678394446976454887E-01
    0.10678165570032798620E-01
    0.10683102721102724283E-01
    0.10683352658130598756E-01
    0.10685778237048909958E-01
    0.10685778237035930757E-01
    0.10683352658171198224E-01
    0.10683102721058251178E-01
    0.10680952419693134914E-01
    0.10680339264440326039E-01
    0.10678739789355606513E-01
    0.10678739789182318046E-01
    0.10680339264547963896E-01
    0.10680952419618347515E-01
    0.10681658853074349133E-01
    0.10681658853043313195E-01
    0.10684010912202189514E-01
    0.10685555932400545021E-01
    0.10688581738774655117E-01
    0.10689708610461343824E-01
    0.10687707092870760844E-01
    0.10689061040652651086E-01
    0.10686670991481394058E-01
    0.10684452644360752788E-01
    0.10682157897442329936E-01
    0.10681188120883177914E-01
    0.10682412676557681910E-01
    0.10681823793031227504E-01
    0.10684499286438201363E-01
    0.10685109134287728433E-01
    0.10695477996843661544E-01
    0.10698590226274366441E-01
    0.10703934813477538820E-01
    0.10706107203827520263E-01
    0.10702733443858462870E-01
    0.10705235766228291330E-01
    0.10701011776633519504E-01
    0.10696994758259997793E-01
    0.10692817981425009263E-01
    0.10690920079651508937E-01
    0.10693066298192756280E-01
    0.10691648749953678796E-01
    0.10696914267075119040E-01
    0.10698096016786900683E-01
    0.10690620055334226421E-01
    0.10691827120885387739E-01
    0.10696080422912800437E-01
    0.10696647372357351649E-01
    0.10692866031339254632E-01
    0.10693082403437749808E-01
    0.10689353081137987350E-01
    0.10687706331512171823E-01
    0.10684654531521819640E-01
    0.10684194578623611854E-01
    0.10686750597761350903E-01
    0.10687036628075833114E-01
    0.10689375105273247676E-01
    0.10689666905228089114E-01
    0.10704850930164783868E-01
    0.10707626798675470847E-01
    0.10714946122463398295E-01
    0.10716460017904085034E-01
    0.10710408719142796782E-01
    0.10711373508849583724E-01
    0.10705081592466626078E-01
    0.10701769564279688812E-01
    0.10696389495905542916E-01
    0.10695171543327833957E-01
    0.10699218646629442622E-01
    0.10698991484177793054E-01
    0.10703952966636235550E-01
    0.10704733035223429338E-01
    0.10689061040685652465E-01
    0.10687707092869817155E-01
    0.10689708610481891624E-01
    0.10688581738779125499E-01
    0.10685555932437888413E-01
    0.10684010912167361471E-01
    0.10681823793109137405E-01
    0.10682412676503754562E-01
    0.10681188120960770360E-01
    0.10682157897389878837E-01
    0.10684452644406544283E-01
    0.10686670991488284380E-01
    0.10685109134316164020E-01
    0.10684499286442777563E-01
    0.10693082403458658430E-01
    0.10692866031340016175E-01
    0.10696647372373458557E-01
    0.10696080422919994335E-01
    0.10691827120903430598E-01
    0.10690620055321790188E-01
    0.10687036628102070807E-01
    0.10686750597733904108E-01
    0.10684194578670555206E-01
    0.10684654531492858431E-01
    0.10687706331540734045E-01
    0.10689353081134021772E-01
    0.10689666905245172671E-01
    0.10689375105274569536E-01
    0.10705235766286284871E-01
    0.10702733443902569949E-01
    0.10706107203878621748E-01
    0.10703934813519453209E-01
    0.10698590226313716908E-01
    0.10695477996859477018E-01
    0.10691648749983595837E-01
    0.10693066298207990622E-01
    0.10690920079683642954E-01
    0.10692817981444812866E-01
    0.10696994758304819578E-01
    0.10701011776685361715E-01
    0.10698096016828043120E-01
    0.10696914267107461224E-01
    0.10711373508902386972E-01
    0.10710408719187365298E-01
    0.10716460017961117537E-01
    0.10714946122513372209E-01
    0.10707626798714382430E-01
    0.10704850930184816454E-01
    0.10698991484199124949E-01
    0.10699218646644009095E-01
    0.10695171543355147178E-01
    0.10696389495922989030E-01
    0.10701769564317186595E-01
    0.10705081592506493493E-01
    0.10704733035261608867E-01
    0.10703952966668300179E-01
    0.10703556940138844733E-01
    0.10704494802159670447E-01
    0.10710801521497595803E-01
    0.10710801521493371752E-01
    0.10704494802159375544E-01
    0.10703556940125780531E-01
    0.10697808149600323072E-01
    0.10696475916359611882E-01
    0.10692063494633505943E-01
    0.10692063494621062772E-01
    0.10696475916373108031E-01
    0.10697808149605284381E-01
    0.10700120490172840282E-01
    0.10700120490169082871E-01
    0.10723042728467897453E-01
    0.10725818454482937206E-01
    0.10736433897263062548E-01
    0.10737422907549689852E-01
    0.10727540658968812495E-01
    0.10727014715508241191E-01
    0.10717498017472747857E-01
    0.10714423875629756899E-01
    0.10706893888610046969E-01
    0.10706222212927571022E-01
    0.10712944127852029597E-01
    0.10713961168619497849E-01
    0.10719384062145403610E-01
    0.10719852879948763361E-01
    0.10727014715570023368E-01
    0.10727540659019639893E-01
    0.10737422907610143230E-01
    0.10736433897310878466E-01
    0.10725818454517385345E-01
    0.10723042728484510899E-01
    0.10713961168627291962E-01
    0.10712944127867506799E-01
    0.10706222212947416259E-01
    0.10706893888630305070E-01
    0.10714423875670300856E-01
    0.10717498017526274484E-01
    0.10719852879987605554E-01
    0.10719384062177220174E-01
    0.10755504273033915721E-01
    0.10758139651133504650E-01
    0.10774142946804479010E-01
    0.10774142946793054121E-01
    0.10758139651114590959E-01
    0.10755504272988774747E-01
    0.10740963466630460907E-01
    0.10737835143689472908E-01
    0.10726741104078764411E-01
    0.10726741104086317397E-01
    0.10737835143710294794E-01
    0.10740963466677513546E-01
    0.10747114080314498427E-01
    0.10747114080308546591E-01
    0.10716056311460808378E-01
    0.10721651340891896753E-01
    0.10730909455452535342E-01
    0.10734798158511109009E-01
    0.10729036762136181377E-01
    0.10733453388979239881E-01
    0.10726163697094181354E-01
    0.10719143593728462649E-01
    0.10711875198290136957E-01
    0.10708513522371584589E-01
    0.10712172082955887659E-01
    0.10709534000911213533E-01
    0.10718879193422471349E-01
    0.10720981261532265549E-01
    0.10752086146647073933E-01
    0.10761864022937668584E-01
    0.10777972948407514228E-01
    0.10784682666532511772E-01
    0.10774623940233232083E-01
    0.10782138026669958047E-01
    0.10769593513788262851E-01
    0.10757511878334685348E-01
    0.10744945789339155340E-01
    0.10739129689886472638E-01
    0.10745430119088246468E-01
    0.10740781660599265854E-01
    0.10757064173932306267E-01
    0.10760703302587115021E-01
    0.10730468035954386988E-01
    0.10735905725790155854E-01
    0.10748608751090838603E-01
    0.10751725738290368248E-01
    0.10741553231736786916E-01
    0.10743635832960988022E-01
    0.10732789443184585776E-01
    0.10726783840696705111E-01
    0.10717474801615176419E-01
    0.10715082278379696804E-01
    0.10721700958570517040E-01
    0.10720652188083181627E-01
    0.10730023554309174941E-01
    0.10731594183550081933E-01
    0.10776058382464828722E-01
    0.10786099280676446008E-01
    0.10808409963155683406E-01
    0.10814152834202225145E-01
    0.10796424920677257300E-01
    0.10800146547524232601E-01
    0.10781251811449938868E-01
    0.10770689574330910912E-01
    0.10754488145856859124E-01
    0.10750157666746338464E-01
    0.10761456246610635532E-01
    0.10759159506328455636E-01
    0.10776071141501194356E-01
    0.10778933818813724380E-01
    0.10814632735151359297E-01
    0.10831253400982442450E-01
    0.10858966109021660901E-01
    0.10869990421269295003E-01
    0.10852453062471871179E-01
    0.10864724187171789435E-01
    0.10843510734280645616E-01
    0.10823155698192211613E-01
    0.10801785023210776562E-01
    0.10791879826637890832E-01
    0.10802811302758869028E-01
    0.10795005076712993475E-01
    0.10822711677488024498E-01
    0.10828795681252622457E-01
    0.10921426766856154669E-01
    0.10948464204148956186E-01
    0.10995352312785252463E-01
    0.11012359346165994517E-01
    0.10981959792517084415E-01
    0.11000899407415777945E-01
    0.10966060931829451838E-01
    0.10932843560721869358E-01
    0.10897348110335134536E-01
    0.10881025486895576707E-01
    0.10899843615927235635E-01
    0.10887457589762958646E-01
    0.10933104085017455662E-01
    0.10942842221471143008E-01
    0.10857126607556154621E-01
    0.10874890511442891414E-01
    0.10914444786548961955E-01
    0.10924203398343544300E-01
    0.10892418154227336696E-01
    0.10898012911770494499E-01
    0.10864977468001845232E-01
    0.10847114133376557776E-01
    0.10818918055291927571E-01
    0.10811512155385515771E-01
    0.10831361432806694417E-01
    0.10827303330738596160E-01
    0.10857011003738576901E-01
    0.10861885016680086075E-01
    0.11000518585469671803E-01
    0.11030484144581102421E-01
    0.11100352631907639891E-01
    0.11115276330967515869E-01
    0.11057670279669676652E-01
    0.11064116242229101936E-01
    0.11006713934479188041E-01
    0.10977991360190456765E-01
    0.10929426163302759234E-01
    0.10917527632945721663E-01
    0.10953070528802455463E-01
    0.10947247049158758889E-01
    0.10997532797257503906E-01
    0.11005163440838711120E-01
    0.10757876773513905255E-01
    0.10763894348335816334E-01
    0.10782050406279329244E-01
    0.10784839694570672736E-01
    0.10768647290461513463E-01
    0.10768861816217242464E-01
    0.10752647612768237786E-01
    0.10746535856897146757E-01
    0.10733582521348360508E-01
    0.10731783369055671387E-01
    0.10742548937498848718E-01
    0.10743054827763772602E-01
    0.10753844002159907919E-01
    0.10755121536657931067E-01
    0.10820027976191652977E-01
    0.10832068755198454371E-01
    0.10864064939210630809E-01
    0.10870224402937767733E-01
    0.10842367564762141890E-01
    0.10843715326508480273E-01
    0.10815286642709549120E-01
    0.10803888077035455478E-01
    0.10781150399842719459E-01
    0.10777377428177066163E-01
    0.10795417581838467891E-01
    0.10794912844056104781E-01
    0.10815517873791421349E-01
    0.10818265220295731829E-01
    0.10804891591082435229E-01
    0.10811563266853776652E-01
    0.10838073597648462121E-01
    0.10840256875026751948E-01
    0.10815139843546629772E-01
    0.10813092486491026126E-01
    0.10788959032628674811E-01
    0.10782046280692174356E-01
    0.10763325624393974694E-01
    0.10762068422365171985E-01
    0.10779174345709512106E-01
    0.10782051846706539044E-01
    0.10795156721343936168E-01
    0.10796100204534307340E-01
    0.10891422154230787425E-01
    0.10906265428406088439E-01
    0.10951972545067478054E-01
    0.10959023072274545751E-01
    0.10917530530385547924E-01
    0.10917111886588155498E-01
    0.10875284724004563586E-01
    0.10861113078460524900E-01
    0.10828545661805662539E-01
    0.10824821961106836574E-01
    0.10852379030964530091E-01
    0.10854228195135274745E-01
    0.10880602805405363565E-01
    0.10883529859117236846E-01
    0.10932724851805960403E-01
    0.10955751538508065948E-01
    0.11013518899534011433E-01
    0.11025393481589316688E-01
    0.10975364957636925961E-01
    0.10977782485639292834E-01
    0.10926875925396394018E-01
    0.10906517341083719549E-01
    0.10866037234660275851E-01
    0.10858975439390839562E-01
    0.10890541650935406381E-01
    0.10888468474558621671E-01
    0.10926717635442163151E-01
    0.10931927187538886467E-01
    0.11139024663681039787E-01
    0.11181055879993014729E-01
    0.11286726265762176552E-01
    0.11307095864974329655E-01
    0.11214535035297566387E-01
    0.11215818199803931007E-01
    0.11123851608255182905E-01
    0.11089426371824672932E-01
    0.11017008690768248166E-01
    0.11005038223948897594E-01
    0.11062271287428551703E-01
    0.11058626110568162484E-01
    0.11127575718107239264E-01
    0.11136454503609947639E-01
    0.11048478597244672586E-01
    0.11079853360707020427E-01
    0.11162458854119062038E-01
    0.11179170169748991331E-01
    0.11106266132933490659E-01
    0.11108547099273840750E-01
    0.11033128743488133591E-01
    0.11005584584938601575E-01
    0.10946989728548288390E-01
    0.10938550931645078801E-01
    0.10985451419131663647E-01
    0.10984586516259709638E-01
    0.11037029184312747640E-01
    0.11043845441073646407E-01
    0.11342659832777605283E-01
    0.11405530563046283737E-01
    0.11559801344201609680E-01
    0.11593668384466886828E-01
    0.11458550677859474787E-01
    0.11462911855849579681E-01
    0.11323322144919696283E-01
    0.11272453007545819859E-01
    0.11164743313380144293E-01
    0.11148193785721592641E-01
    0.11232572191732492425E-01
    0.11227061733312032610E-01
    0.11328599346780045612E-01
    0.11342208735775169415E-01
    0.10733453389118874713E-01
    0.10729036762257311913E-01
    0.10734798158643438920E-01
    0.10730909455569571931E-01
    0.10721651340987986556E-01
    0.10716056311533012774E-01
    0.10709534000970041476E-01
    0.10712172083025816097E-01
    0.10708513522438997678E-01
    0.10711875198366376319E-01
    0.10719143593831753289E-01
    0.10726163697225083588E-01
    0.10720981261633592482E-01
    0.10718879193514649351E-01
    0.10743635833103115651E-01
    0.10741553231870712773E-01
    0.10751725738450026992E-01
    0.10748608751240069925E-01
    0.10735905725904104635E-01
    0.10730468036041825725E-01
    0.10720652188147765382E-01
    0.10721700958645191681E-01
    0.10715082278445217309E-01
    0.10717474801689070435E-01
    0.10726783840797468259E-01
    0.10732789443303414334E-01
    0.10731594183658904607E-01
    0.10730023554410782899E-01
    0.10782138026979781395E-01
    0.10774623940509923947E-01
    0.10784682666834551415E-01
    0.10777972948681184204E-01
    0.10761864023163500090E-01
    0.10752086146831277280E-01
    0.10740781660746089379E-01
    0.10745430119262553217E-01
    0.10739129690047023030E-01
    0.10744945789523003069E-01
    0.10757511878568160046E-01
    0.10769593514077654625E-01
    0.10760703302820692068E-01
    0.10757064174149356603E-01
    0.10800146547856088672E-01
    0.10796424920998453495E-01
    0.10814152834580394863E-01
    0.10808409963517074878E-01
    0.10786099280958602251E-01
    0.10776058382699269661E-01
    0.10759159506505867540E-01
    0.10761456246809287390E-01
    0.10750157666914540722E-01
    0.10754488146045430505E-01
    0.10770689574573895364E-01
    0.10781251811730948459E-01
    0.10778933819078592368E-01
    0.10776071141753693766E-01
    0.10768861816403112880E-01
    0.10768647290633885996E-01
    0.10784839694773574667E-01
    0.10782050406461874195E-01
    0.10763894348474854420E-01
    0.10757876773620701771E-01
    0.10743054827835597093E-01
    0.10742548937589897415E-01
    0.10731783369133581288E-01
    0.10733582521438850624E-01
    0.10746535857025877117E-01
    0.10752647612928396131E-01
    0.10755121536794825035E-01
    0.10753844002286157625E-01
    0.10813092486702001460E-01
    0.10815139843718650156E-01
    0.10840256875215623436E-01
    0.10838073597795485140E-01
    0.10811563266958860996E-01
    0.10804891591135193374E-01
    0.10782051846730266592E-01
    0.10779174345776966829E-01
    0.10762068422432755077E-01
    0.10763325624492094124E-01
    0.10782046280829344145E-01
    0.10788959032817648648E-01
    0.10796100204663806182E-01
    0.10795156721452942722E-01
    0.10843715326962512918E-01
    0.10842367565197606055E-01
    0.10870224403453592962E-01
    0.10864064939688498554E-01
    0.10832068755575532948E-01
    0.10820027976507532244E-01
    0.10794912844287523832E-01
    0.10795417582101266354E-01
    0.10777377428396921547E-01
    0.10781150400087867111E-01
    0.10803888077362133399E-01
    0.10815286643096274494E-01
    0.10818265220652026684E-01
    0.10815517874129258746E-01
    0.10917111887166913026E-01
    0.10917530530910539432E-01
    0.10959023072868449150E-01
    0.10951972545597325054E-01
    0.10906265428815122356E-01
    0.10891422154544585024E-01
    0.10854228195357104245E-01
    0.10852379031255361685E-01
    0.10824821961365242717E-01
    0.10828545662118486959E-01
    0.10861113078868086038E-01
    0.10875284724509378526E-01
    0.10883529859538314949E-01
    0.10880602805792427210E-01
    0.10864724187811994338E-01
    0.10852453063053813659E-01
    0.10869990421903650418E-01
    0.10858966109608039069E-01
    0.10831253401468754829E-01
    0.10814632735561893750E-01
    0.10795005077044573724E-01
    0.10802811303141405044E-01
    0.10791879826988481916E-01
    0.10801785023607379452E-01
    0.10823155698682994375E-01
    0.10843510734876830176E-01
    0.10828795681748116728E-01
    0.10822711677953365805E-01
    0.10898012912482605424E-01
    0.10892418154922976423E-01
    0.10924203399164061565E-01
    0.10914444787336064976E-01
    0.10874890512070009563E-01
    0.10857126608094454928E-01
    0.10827303331156407779E-01
    0.10831361433259472857E-01
    0.10811512155769642529E-01
    0.10818918055712858223E-01
    0.10847114133907750921E-01
    0.10864977468604257449E-01
    0.10861885017261999065E-01
    0.10857011004298429413E-01
    0.11000899408663555867E-01
    0.10981959793675980311E-01
    0.11012359347447089539E-01
    0.10995352313972153735E-01
    0.10948464205138333169E-01
    0.10921426767705700797E-01
    0.10887457590458556739E-01
    0.10899843616711075642E-01
    0.10881025487613124256E-01
    0.10897348111137220364E-01
    0.10932843561696893239E-01
    0.10966060932991269009E-01
    0.10942842222464705879E-01
    0.10933104085957684459E-01
    0.11064116243654179006E-01
    0.11057670281092933998E-01
    0.11115276332655884065E-01
    0.11100352633535095007E-01
    0.11030484145885654373E-01
    0.11000518586614837363E-01
    0.10947247050055590109E-01
    0.10953070529757436349E-01
    0.10917527633754130559E-01
    0.10929426164179769504E-01
    0.10977991361280451180E-01
    0.11006713935698042919E-01
    0.11005163442038463223E-01
    0.10997532798419909147E-01
    0.10977782486634109910E-01
    0.10975364958612817204E-01
    0.11025393482741886048E-01
    0.11013518900628920319E-01
    0.10955751539381573811E-01
    0.10932724852568388718E-01
    0.10888468475133533317E-01
    0.10890541651560349187E-01
    0.10858975439911707633E-01
    0.10866037235227830535E-01
    0.10906517341817906566E-01
    0.10926875926243102138E-01
    0.10931927188348507934E-01
    0.10926717636220674087E-01
    0.11108547100624088788E-01
    0.11106266134203002932E-01
    0.11179170171214095411E-01
    0.11162458855465315008E-01
    0.11079853361780786503E-01
    0.11048478598137500065E-01
    0.10984586516937261402E-01
    0.10985451419912964019E-01
    0.10938550932325218773E-01
    0.10946989729318118770E-01
    0.11005584585920350979E-01
    0.11033128744644973840E-01