# vtk DataFile Version 3.0
LAPLACIEN  2D
ASCII
DATASET UNSTRUCTURED_GRID
FIELD FieldData 1
TIME 1 1 double
6.3000
 POINTS        7297  float
   1.5625000000000000E-002  0.96875000000000000        0.0000000000000000     
   3.1250000000000000E-002  0.96875000000000000        0.0000000000000000     
   3.1250000000000000E-002  0.98437500000000000        0.0000000000000000     
   9.3749999999999997E-003  0.97812500000000002        0.0000000000000000     
   2.0312500000000001E-002  0.97968750000000004        0.0000000000000000     
   2.1874999999999999E-002  0.99062499999999998        0.0000000000000000     
   1.0937499999999999E-002  0.98906249999999996        0.0000000000000000     
   4.6875000000000000E-002  0.96875000000000000        0.0000000000000000     
   6.2500000000000000E-002  0.96875000000000000        0.0000000000000000     
   6.2500000000000000E-002  0.98437500000000000        0.0000000000000000     
   4.0625000000000001E-002  0.97812500000000002        0.0000000000000000     
   5.1562499999999997E-002  0.97968750000000004        0.0000000000000000     
   5.3124999999999999E-002  0.99062499999999998        0.0000000000000000     
   4.2187500000000003E-002  0.98906249999999996        0.0000000000000000     
   1.5625000000000000E-002  0.93750000000000000        0.0000000000000000     
   3.1250000000000000E-002  0.93750000000000000        0.0000000000000000     
   3.1250000000000000E-002  0.95312500000000000        0.0000000000000000     
   9.3749999999999997E-003  0.94687500000000002        0.0000000000000000     
   2.0312500000000001E-002  0.94843750000000004        0.0000000000000000     
   2.1874999999999999E-002  0.95937499999999998        0.0000000000000000     
   1.0937499999999999E-002  0.95781249999999996        0.0000000000000000     
   4.6875000000000000E-002  0.93750000000000000        0.0000000000000000     
   6.2500000000000000E-002  0.93750000000000000        0.0000000000000000     
   6.2500000000000000E-002  0.95312500000000000        0.0000000000000000     
   4.0625000000000001E-002  0.94687500000000002        0.0000000000000000     
   5.1562499999999997E-002  0.94843750000000004        0.0000000000000000     
   5.3124999999999999E-002  0.95937499999999998        0.0000000000000000     
   4.2187500000000003E-002  0.95781249999999996        0.0000000000000000     
   7.8125000000000000E-002  0.96875000000000000        0.0000000000000000     
   9.3750000000000000E-002  0.96875000000000000        0.0000000000000000     
   9.3750000000000000E-002  0.98437500000000000        0.0000000000000000     
   7.1874999999999994E-002  0.97812500000000002        0.0000000000000000     
   8.2812499999999997E-002  0.97968750000000004        0.0000000000000000     
   8.4375000000000006E-002  0.99062499999999998        0.0000000000000000     
   7.3437500000000003E-002  0.98906249999999996        0.0000000000000000     
  0.10937500000000000       0.96875000000000000        0.0000000000000000     
  0.12500000000000000       0.96875000000000000        0.0000000000000000     
  0.12500000000000000       0.98437500000000000        0.0000000000000000     
  0.10312499999999999       0.97812500000000002        0.0000000000000000     
  0.11406250000000000       0.97968750000000004        0.0000000000000000     
  0.11562500000000001       0.99062499999999998        0.0000000000000000     
  0.10468750000000000       0.98906249999999996        0.0000000000000000     
   7.8125000000000000E-002  0.93750000000000000        0.0000000000000000     
   9.3750000000000000E-002  0.93750000000000000        0.0000000000000000     
   9.3750000000000000E-002  0.95312500000000000        0.0000000000000000     
   7.1874999999999994E-002  0.94687500000000002        0.0000000000000000     
   8.2812499999999997E-002  0.94843750000000004        0.0000000000000000     
   8.4375000000000006E-002  0.95937499999999998        0.0000000000000000     
   7.3437500000000003E-002  0.95781249999999996        0.0000000000000000     
  0.10937500000000000       0.93750000000000000        0.0000000000000000     
  0.12500000000000000       0.93750000000000000        0.0000000000000000     
  0.12500000000000000       0.95312500000000000        0.0000000000000000     
  0.10312499999999999       0.94687500000000002        0.0000000000000000     
  0.11406250000000000       0.94843750000000004        0.0000000000000000     
  0.11562500000000001       0.95937499999999998        0.0000000000000000     
  0.10468750000000000       0.95781249999999996        0.0000000000000000     
   1.5625000000000000E-002  0.90625000000000000        0.0000000000000000     
   3.1250000000000000E-002  0.90625000000000000        0.0000000000000000     
   3.1250000000000000E-002  0.92187500000000000        0.0000000000000000     
   9.3749999999999997E-003  0.91562500000000002        0.0000000000000000     
   2.0312500000000001E-002  0.91718750000000004        0.0000000000000000     
   2.1874999999999999E-002  0.92812499999999998        0.0000000000000000     
   1.0937499999999999E-002  0.92656249999999996        0.0000000000000000     
   4.6875000000000000E-002  0.90625000000000000        0.0000000000000000     
   6.2500000000000000E-002  0.90625000000000000        0.0000000000000000     
   6.2500000000000000E-002  0.92187500000000000        0.0000000000000000     
   4.0625000000000001E-002  0.91562500000000002        0.0000000000000000     
   5.1562499999999997E-002  0.91718750000000004        0.0000000000000000     
   5.3124999999999999E-002  0.92812499999999998        0.0000000000000000     
   4.2187500000000003E-002  0.92656249999999996        0.0000000000000000     
   1.5625000000000000E-002  0.87500000000000000        0.0000000000000000     
   3.1250000000000000E-002  0.87500000000000000        0.0000000000000000     
   3.1250000000000000E-002  0.89062500000000000        0.0000000000000000     
   9.3749999999999997E-003  0.88437500000000002        0.0000000000000000     
   2.0312500000000001E-002  0.88593750000000004        0.0000000000000000     
   2.1874999999999999E-002  0.89687499999999998        0.0000000000000000     
   1.0937499999999999E-002  0.89531249999999996        0.0000000000000000     
   4.6875000000000000E-002  0.87500000000000000        0.0000000000000000     
   6.2500000000000000E-002  0.87500000000000000        0.0000000000000000     
   6.2500000000000000E-002  0.89062500000000000        0.0000000000000000     
   4.0625000000000001E-002  0.88437500000000002        0.0000000000000000     
   5.1562499999999997E-002  0.88593750000000004        0.0000000000000000     
   5.3124999999999999E-002  0.89687499999999998        0.0000000000000000     
   4.2187500000000003E-002  0.89531249999999996        0.0000000000000000     
   7.8125000000000000E-002  0.90625000000000000        0.0000000000000000     
   9.3750000000000000E-002  0.90625000000000000        0.0000000000000000     
   9.3750000000000000E-002  0.92187500000000000        0.0000000000000000     
   7.1874999999999994E-002  0.91562500000000002        0.0000000000000000     
   8.2812499999999997E-002  0.91718750000000004        0.0000000000000000     
   8.4375000000000006E-002  0.92812499999999998        0.0000000000000000     
   7.3437500000000003E-002  0.92656249999999996        0.0000000000000000     
  0.10937500000000000       0.90625000000000000        0.0000000000000000     
  0.12500000000000000       0.90625000000000000        0.0000000000000000     
  0.12500000000000000       0.92187500000000000        0.0000000000000000     
  0.10312499999999999       0.91562500000000002        0.0000000000000000     
  0.11406250000000000       0.91718750000000004        0.0000000000000000     
  0.11562500000000001       0.92812499999999998        0.0000000000000000     
  0.10468750000000000       0.92656249999999996        0.0000000000000000     
   7.8125000000000000E-002  0.87500000000000000        0.0000000000000000     
   9.3750000000000000E-002  0.87500000000000000        0.0000000000000000     
   9.3750000000000000E-002  0.89062500000000000        0.0000000000000000     
   7.1874999999999994E-002  0.88437500000000002        0.0000000000000000     
   8.2812499999999997E-002  0.88593750000000004        0.0000000000000000     
   8.4375000000000006E-002  0.89687499999999998        0.0000000000000000     
   7.3437500000000003E-002  0.89531249999999996        0.0000000000000000     
  0.10937500000000000       0.87500000000000000        0.0000000000000000     
  0.12500000000000000       0.87500000000000000        0.0000000000000000     
  0.12500000000000000       0.89062500000000000        0.0000000000000000     
  0.10312499999999999       0.88437500000000002        0.0000000000000000     
  0.11406250000000000       0.88593750000000004        0.0000000000000000     
  0.11562500000000001       0.89687499999999998        0.0000000000000000     
  0.10468750000000000       0.89531249999999996        0.0000000000000000     
  0.14062500000000000       0.96875000000000000        0.0000000000000000     
  0.15625000000000000       0.96875000000000000        0.0000000000000000     
  0.15625000000000000       0.98437500000000000        0.0000000000000000     
  0.13437499999999999       0.97812500000000002        0.0000000000000000     
  0.14531250000000001       0.97968750000000004        0.0000000000000000     
  0.14687500000000001       0.99062499999999998        0.0000000000000000     
  0.13593749999999999       0.98906249999999996        0.0000000000000000     
  0.17187500000000000       0.96875000000000000        0.0000000000000000     
  0.18750000000000000       0.96875000000000000        0.0000000000000000     
  0.18750000000000000       0.98437500000000000        0.0000000000000000     
  0.16562499999999999       0.97812500000000002        0.0000000000000000     
  0.17656250000000001       0.97968750000000004        0.0000000000000000     
[...]
 CELL_DATA       14336
 SCALARS Nutrient float
 LOOKUP_TABLE default
    0.37714005279930237075E-02
    0.37713140499922824522E-02
    0.37719662063549026440E-02
    0.37719662063051646525E-02
    0.37713140501886423077E-02
    0.37714005278189702275E-02
    0.37708814554322073707E-02
    0.37705764498501331480E-02
    0.37702467091401694298E-02
    0.37702467080070124934E-02
    0.37705764504346920250E-02
    0.37708814551925535878E-02
    0.37708338943069361418E-02
    0.37708338941223489872E-02
    0.37735378068783731291E-02
    0.37741074338548557567E-02
    0.37756549841193834567E-02
    0.37760824012748870661E-02
    0.37749226617739208185E-02
    0.37754800222126374404E-02
    0.37742631148795788634E-02
    0.37732515455617416517E-02
    0.37721853308234675264E-02
    0.37717991444524675074E-02
    0.37724679751589712019E-02
    0.37723842343812797294E-02
    0.37734262077416726860E-02
    0.37736569879102425593E-02
    0.37754800222527802427E-02
    0.37749226617507136879E-02
    0.37760824012938146339E-02
    0.37756549841112467363E-02
    0.37741074339068766443E-02
    0.37735378068193808215E-02
    0.37723842345037000325E-02
    0.37724679750443575882E-02
    0.37717991446081550362E-02
    0.37721853306828100755E-02
    0.37732515456436990960E-02
    0.37742631148635348397E-02
    0.37736569879533131411E-02
    0.37734262077284410827E-02
    0.37783487523865484127E-02
    0.37785975913553039932E-02
    0.37810154485734335898E-02
    0.37810154485682103374E-02
    0.37785975913669331457E-02
    0.37783487523657265268E-02
    0.37762047628122526188E-02
    0.37755941242123814382E-02
    0.37739995288954106441E-02
    0.37739995288368802066E-02
    0.37755941242512969236E-02
    0.37762047627917989280E-02
    0.37769090246226391661E-02
    0.37769090246115347674E-02
    0.37792539974622354169E-02
    0.37807937309475578638E-02
    0.37838100415792212672E-02
    0.37849331435039013441E-02
    0.37829376606733663806E-02
    0.37842880267425532854E-02
    0.37819052664755806528E-02
    0.37796937987515520814E-02
    0.37774074621723221015E-02
    0.37764388600904407259E-02
    0.37776611798704027266E-02
    0.37770741273825958473E-02
    0.37797399701900561732E-02
    0.37803487132412284463E-02
    0.37906846070550103203E-02
    0.37937870892833930325E-02
    0.37991153782310441850E-02
    0.38012807815212606641E-02
    0.37979170906902674082E-02
    0.38004118906908679158E-02
    0.37962008914894720957E-02
    0.37921962476874311772E-02
    0.37880326162589533605E-02
    0.37861406763126533546E-02
    0.37882801143720242106E-02
    0.37868673271947124806E-02
    0.37921160834937317832E-02
    0.37932940242254163839E-02
    0.37858420426962369372E-02
    0.37870450354794481067E-02
    0.37912851201330039462E-02
    0.37918502946646731253E-02
    0.37880806729078246066E-02
    0.37882966024569654159E-02
    0.37845786774373360757E-02
    0.37829373869895351404E-02
    0.37798950064821261637E-02
    0.37794373480784016796E-02
    0.37819845896861063218E-02
    0.37822699499689871501E-02
    0.37846008231149775962E-02
    0.37848912925265488540E-02
    0.38000287595084058200E-02
    0.38027958597178063670E-02
    0.38100936415606631753E-02
    0.38116026051565935449E-02
    0.38055693920815707350E-02
    0.38065316421382554800E-02
    0.38002585141750765824E-02
    0.37969567018633931278E-02
    0.37915930142056321166E-02
    0.37903793971284962909E-02
    0.37944134410353076194E-02
    0.37941871462929604650E-02
    0.37991332065379144860E-02
    0.37999106641959622122E-02
    0.37842880267804114569E-02
    0.37829376606949255239E-02
    0.37849331435329471203E-02
    0.37838100415995439864E-02
    0.37807937309756178834E-02
    0.37792539974610120032E-02
    0.37770741274178055297E-02
    0.37776611798647345176E-02
    0.37764388601313641537E-02
    0.37774074621697499403E-02
    0.37796937987870237070E-02
    0.37819052665034155920E-02
    0.37803487132690824675E-02
    0.37797399702084190885E-02
    0.37882966024834398983E-02
    0.37880806729237988077E-02
    0.37918502946866364592E-02
    0.37912851201488757986E-02
    0.37870450354946442843E-02
    0.37858420426951666128E-02
    0.37822699499792471721E-02
    0.37819845896831121891E-02
    0.37794373481015446255E-02
    0.37798950064823044065E-02
    0.37829373870123211669E-02
    0.37845786774534273707E-02
    0.37848912925443878828E-02
    0.37846008231254314735E-02
    0.38004118907708863730E-02
    0.37979170907578513675E-02
    0.38012807815937725391E-02
    0.37991153782942648810E-02
    0.37937870893368524396E-02
    0.37906846070910721856E-02
    0.37868673272295934329E-02
    0.37882801144093936237E-02
    0.37861406763530832537E-02
    0.37880326163014228606E-02
    0.37921962477476933023E-02
    0.37962008915643709502E-02
    0.37932940242837494965E-02
    0.37921160835447916340E-02
    0.38065316422112908078E-02
    0.38055693921461570921E-02
    0.38116026052312469360E-02
    0.38100936416273381395E-02
    0.38027958597685478960E-02
    0.38000287595412623499E-02
    0.37941871463193456090E-02
    0.37944134410670508906E-02
    0.37903793971620341335E-02
    0.37915930142415621429E-02
    0.37969567019151308218E-02
    0.38002585142366328112E-02
    0.37999106642486674482E-02
    0.37991332065850486575E-02
    0.37987389196206516190E-02
    0.37996736910072643686E-02
    0.38059617171224977353E-02
    0.38059617171180655168E-02
    0.37996736910020684382E-02
    0.37987389196045282316E-02
    0.37930075989161694122E-02
    0.37916795073322834449E-02
    0.37872810172315820275E-02
    0.37872810172292132626E-02
    0.37916795073420807294E-02
    0.37930075989308659895E-02
    0.37953126361269296819E-02
    0.37953126361241307056E-02
    0.38181663897884077219E-02
    0.38209339014362965828E-02
    0.38315185009656924434E-02
    0.38325043283626244496E-02
    0.38226509482454976672E-02
    0.38221265639649154751E-02
    0.38126375376834821702E-02
    0.38095728579008547414E-02
    0.38020654948535269509E-02
    0.38013961816703318447E-02
    0.38080977975559365291E-02
    0.38091118450525093125E-02
    0.38145184201553955332E-02
    0.38149856198666917337E-02
    0.38221265640419632183E-02
    0.38226509483094109516E-02
    0.38325043284339476053E-02
    0.38315185010225926744E-02
    0.38209339014765326265E-02
    0.38181663898086662563E-02
    0.38091118450614149492E-02
    0.38080977975794073377E-02
    0.38013961816943885562E-02
    0.38020654948855508136E-02
    0.38095728579512059576E-02
    0.38126375377529704222E-02
    0.38149856199148702088E-02
    0.38145184201958458152E-02
    0.38505337760504311159E-02
    0.38531609719436991403E-02
    0.38691196000669356679E-02
    0.38691196000543498154E-02
    0.38531609719211368931E-02
    0.38505337759980108082E-02
    0.38360344811164538530E-02
    0.38329149566072051071E-02
    0.38218535869951964293E-02
    0.38218535870052161921E-02
    0.38329149566303558593E-02
    0.38360344811710239167E-02
    0.38421667688858995512E-02
    0.38421667688792026513E-02
    0.38112001779794860146E-02
    0.38167780214595535895E-02
    0.38260095098587793352E-02
    0.38298857959311472660E-02
    0.38241411616608458196E-02
    0.38285447808147675744E-02
    0.38212766098057637972E-02
    0.38142776426469894753E-02
    0.38070307741835300933E-02
    0.38036800538124187522E-02
    0.38073267907911731954E-02
    0.38046975542899638678E-02
    0.38140141414328668397E-02
    0.38161093522491849363E-02
    0.38471247916785351710E-02
    0.38568749473904167038E-02
    0.38729396318941153136E-02
    0.38796293675950818680E-02
    0.38695984210437395050E-02
    0.38770914381644995192E-02
    0.38645813130796483233E-02
    0.38525343007854745588E-02
    0.38400036829663790165E-02
    0.38342051778185600418E-02
    0.38404867884941620501E-02
    0.38358530570573928439E-02
    0.38520882588085380085E-02
    0.38557163597000561166E-02
    0.38255697540673814713E-02
    0.38309917267917866467E-02
    0.38436591545358443286E-02
    0.38467661545842448713E-02
    0.38366230020173189806E-02
    0.38386995632629940765E-02
    0.38278834277822725192E-02
    0.38218962883440261470E-02
    0.38126144186095578016E-02
    0.38102295946649323601E-02
    0.38168281206908899819E-02
    0.38157828579723634954E-02
    0.38251264875547477499E-02
    0.38266921792652632515E-02
    0.38710321003538493076E-02
    0.38810451503207385633E-02
    0.39032968021944342528E-02
    0.39090234408697670937E-02
    0.38913424446782697921E-02
    0.38950535754244922267E-02
    0.38762091050776469221E-02
    0.38656768762273187486E-02
    0.38495202961307717522E-02
    0.38452029746874880935E-02
    0.38564694733014938735E-02
    0.38541802210464389845E-02
    0.38710442712920657693E-02
    0.38738985406675916119E-02
    0.39094995549503689519E-02
    0.39260755434420754190E-02
    0.39537156594059404482E-02
    0.39647108925652228828E-02
    0.39472176990163693536E-02
    0.39594561164056196051E-02
    0.39382978885396883323E-02
    0.39179974255762325605E-02
    0.38966838553601309929E-02
    0.38868069652220065165E-02
    0.38977082021497753798E-02
    0.38899248502863468732E-02
    0.39175556949356069719E-02
    0.39236227415527132056E-02
    0.40160179010799018640E-02
    0.40429868279796129724E-02
    0.40897612097004296811E-02
    0.41067258040922557591E-02
    0.40763963980006163307E-02
    0.40952877618825114792E-02
    0.40605340895547813174E-02
    0.40274012758868367109E-02
    0.39919947567997248958E-02
    0.39757153242931369402E-02
    0.39944859746302947487E-02
    0.39821337208444064146E-02
    0.40276628679885954909E-02
    0.40373758558535869506E-02
    0.39518864115426861547E-02
    0.39696052339462748609E-02
    0.40090610057481098488E-02
    0.40187955367037659846E-02
    0.39870867329626575107E-02
    0.39926657904851463668E-02
    0.39597124228149451625E-02
    0.39418969336532105885E-02
    0.39137738112544409597E-02
    0.39063887723925624570E-02
    0.39261864234265194534E-02
    0.39221403953729272809E-02
    0.39517696532093259804E-02
    0.39566306400444072738E-02
    0.40949290037269039585E-02
    0.41248230864687537162E-02
    0.41945314558705830768E-02
    0.42094202806622149984E-02
    0.41519411198698633059E-02
    0.41583681913977630501E-02
    0.41010977901534068427E-02
    0.40724468045481862846E-02
    0.40239990368006409854E-02
    0.40121320653027309558E-02
    0.40475899238956360854E-02
    0.40417827584979578587E-02
    0.40919454256496731043E-02
    0.40995569113059168731E-02
    0.38529003408483333132E-02
    0.38589010199199312405E-02
    0.38770078934921505150E-02
    0.38797888814979591618E-02
    0.38636412231214832189E-02
    0.38638554456537407139E-02
    0.38476858231095501309E-02
    0.38415917047077501566E-02
    0.38286750313357756879E-02
    0.38268815468733528851E-02
    0.38376158232732602779E-02
    0.38381206020634221071E-02
    0.38488791769550933022E-02
    0.38501527889520967100E-02
    0.39148834728548837988E-02
    0.39268933727881587259E-02
    0.39588073991758589848E-02
    0.39649511270408131780E-02
    0.39371658005736033525E-02
    0.39385101442716233949E-02
    0.39101545686059217821E-02
    0.38987871510133349957E-02
    0.38761101044085147053E-02
    0.38723478714640453997E-02
    0.38903388927760441940E-02
    0.38898358922425328027E-02
    0.39103857746739740034E-02
    0.39131255984826592009E-02
    0.38997840238874240462E-02
    0.39064381687582173941E-02
    0.39328782594320980948E-02
    0.39350559007391757577E-02
    0.39100064269995413527E-02
    0.39079654612774157932E-02
    0.38838965052743670142E-02
    0.38770027365680375178E-02
    0.38583335906240529521E-02
    0.38570796165685772468E-02
    0.38741374371965638275E-02
    0.38770066785247820490E-02
    0.38900761556805133097E-02
    0.38910172230865497540E-02
    0.39860894953014959496E-02
    0.40008963673094479277E-02
    0.40464911570054842849E-02
    0.40535254591316065287E-02
    0.40121364654242160086E-02
    0.40117208505088125525E-02
    0.39699980886728743548E-02
    0.39558616110978161995E-02
    0.39233784931429448173E-02
    0.39196640730118402843E-02
    0.39471478321107776599E-02
    0.39489917737491487398E-02
    0.39752998655293355496E-02
    0.39782200360281199172E-02
    0.40272975083144833819E-02
    0.40502690228368404962E-02
    0.41079000247359175740E-02
    0.41197477755778215761E-02
    0.40698361790659706716E-02
    0.40722480249291053214E-02
    0.40214629981357424143E-02
    0.40011543583125990312E-02
    0.39607749113955495468E-02
    0.39537315602657958219E-02
    0.39852180289861698081E-02
    0.39831503575187936217E-02
    0.40213052131666945574E-02
    0.40265021466343621503E-02
    0.42331222080019834456E-02
    0.42750622523783062337E-02
    0.43805052301278575577E-02
    0.44008327504018425816E-02
    0.43084680043485425530E-02
    0.43097471350130043058E-02
    0.42179801883380522651E-02
    0.41836339697799186654E-02
    0.41113810814868371329E-02
    0.40994397073960677988E-02
    0.41565414508345490882E-02
    0.41529043169386305190E-02
    0.42216991118937795963E-02
    0.42305579644376419685E-02
    0.41427682362758797355E-02
    0.41740738549325253140E-02
    0.42564921767905385466E-02
    0.42731700286239848730E-02
    0.42004314392466816919E-02
    0.42027103098491759570E-02
    0.41274640364290429012E-02
    0.40999828542227535755E-02
    0.40415268021127548348E-02
    0.40331077570274929608E-02
    0.40798940112929697396E-02
    0.40790282878724656163E-02
    0.41313509909346231991E-02
    0.41381523734079061344E-02
    0.44363065944829282658E-02
    0.44990531076797967563E-02
    0.46530089254026938544E-02
    0.46868147952117654442E-02
    0.45519709718823816655E-02
    0.45563279251365279218E-02
    0.44170248004772845810E-02
    0.43662616453735919944E-02
    0.42587838708356097125E-02
    0.42422690747996993216E-02
    0.43264614277163278289E-02
    0.43209588298623374455E-02
    0.44222850192466153438E-02
    0.44358677837782302736E-02
    0.38285447809905896049E-02
    0.38241411618167068208E-02
    0.38298857960982995823E-02
    0.38260095100090289397E-02
    0.38167780215843491627E-02
    0.38112001780787984999E-02
    0.38046975543713818131E-02
    0.38073267908888316219E-02
    0.38036800539041045258E-02
    0.38070307742883932600E-02
    0.38142776427801216958E-02
    0.38212766099711211083E-02
    0.38161093523811366775E-02
    0.38140141415547923129E-02
    0.38386995634392051188E-02
    0.38366230021828445600E-02
    0.38467661547747829948E-02
    0.38436591547139154282E-02
    0.38309917269306755470E-02
    0.38255697541769374988E-02
    0.38157828580561276542E-02
    0.38168281207901105269E-02
    0.38102295947521681342E-02
    0.38126144187098751255E-02
    0.38218962884726910209E-02
    0.38278834279338743406E-02
    0.38266921794016814720E-02
    0.38251264876827629699E-02
    0.38770914385263060241E-02
    0.38695984213702053559E-02
    0.38796293679476292864E-02
    0.38729396322159329730E-02
    0.38568749476599229094E-02
    0.38471247919029524440E-02
    0.38358530572412978185E-02
    0.38404867887091272485E-02
    0.38342051780176668319E-02
    0.38400036831919429417E-02
    0.38525343010637220359E-02
    0.38645813134184445886E-02
    0.38557163599790816172E-02
    0.38520882590695939424E-02
    0.38950535758061361619E-02
    0.38913424450460918844E-02
    0.39090234412942166317E-02
    0.39032968025997198669E-02
    0.38810451506425249976E-02
    0.38710321006237870256E-02
    0.38541802212571484726E-02
    0.38564694735376331067E-02
    0.38452029748918281106E-02
    0.38495202963591142707E-02
    0.38656768765129760970E-02
    0.38762091054063718167E-02
    0.38738985409748497371E-02
    0.38710442715853055941E-02
    0.38638554458683615697E-02
    0.38636412233190777638E-02
    0.38797888817246684381E-02
    0.38770078936961479242E-02
    0.38589010200770082828E-02
    0.38529003409692743308E-02
    0.38381206021481182461E-02
    0.38376158233820326440E-02
    0.38268815469681069508E-02
    0.38286750314475257069E-02
    0.38415917048591503163E-02
    0.38476858232973803510E-02
    0.38501527891106322211E-02
    0.38488791771014315389E-02
    0.39079654615089033654E-02
    0.39100064271875394073E-02
    0.39350559009421887113E-02
    0.39328782595901756389E-02
    0.39064381688715867774E-02
    0.38997840239437375071E-02
    0.38770066785519556249E-02
    0.38741374372723439215E-02
    0.38570796166449094165E-02
    0.38583335907352673752E-02
    0.38770027367197191365E-02
    0.38838965054829063632E-02
    0.38910172232288009822E-02
    0.38900761558003193845E-02
    0.39385101447700736343E-02
    0.39371658010491934060E-02
    0.39649511275959324966E-02
    0.39588073996898462750E-02
    0.39268933731977668372E-02
    0.39148834731983512408E-02
    0.38898358925004367440E-02
    0.38903388930699163255E-02
    0.38723478717145776336E-02
    0.38761101046884236139E-02
    0.38987871513773172776E-02
    0.39101545690350862985E-02
    0.39131255988752115110E-02
    0.39103857750460713216E-02
    0.40117208511232542098E-02
    0.40121364659801402389E-02
    0.40535254597544433802E-02
    0.40464911575614501485E-02
    0.40008963677409109527E-02
    0.39860894956325184854E-02
    0.39489917739875960226E-02
    0.39471478324234043206E-02
    0.39196640732923598155E-02
    0.39233784934825143356E-02
    0.39558616115342448705E-02
    0.39699980892121851384E-02
    0.39782200364762970030E-02
    0.39752998659413184973E-02
    0.39594561171157295273E-02
    0.39472176996656165027E-02
    0.39647108932677789517E-02
    0.39537156600580073904E-02
    0.39260755439890155163E-02
    0.39094995554173877367E-02
    0.38899248506709801707E-02
    0.38977082025891101463E-02
    0.38868069656272951663E-02
    0.38966838558146766822E-02
    0.39179974261287853557E-02
    0.39382978892026901038E-02
    0.39236227421107060936E-02
    0.39175556954617902355E-02
    0.39926657912649297227E-02
    0.39870867337222573590E-02
    0.40187955375884315892E-02
    0.40090610065960548269E-02
    0.39696052346298782085E-02
    0.39518864121324661157E-02
    0.39221403958400371387E-02
    0.39261864239328184492E-02
    0.39063887728290318940E-02
    0.39137738117312973612E-02
    0.39418969342440157710E-02
    0.39597124234823652747E-02
    0.39566306406856989811E-02
    0.39517696538266030432E-02
    0.40952877632196710289E-02
    0.40763963992462752886E-02
    0.41067258054612622298E-02
    0.40897612109721190321E-02
    0.40429868290485469762E-02
    0.40160179020042475334E-02
    0.39821337216112469987E-02
    0.39944859754893272119E-02
    0.39757153250836200706E-02
    0.39919947576781958029E-02
    0.40274012769425954900E-02
    0.40605340908028307242E-02
    0.40373758569286488651E-02
    0.40276628690085062093E-02
    0.41583681929100568125E-02
    0.41519411213763136523E-02
    0.42094202824337423677E-02
    0.41945314575780792005E-02
    0.41248230878483393980E-02
    0.40949290049419355061E-02
    0.40417827594618231310E-02
    0.40475899249223764101E-02
    0.40121320661815349298E-02
    0.40239990377520656883E-02
    0.40724468057166136187E-02
    0.41010977914567089270E-02
    0.40995569125838772495E-02
    0.40919454268881728584E-02
    0.40722480259856750837E-02
    0.40698361800992127399E-02
    0.41197477767866540893E-02
    0.41079000258841874213E-02
    0.40502690237592927150E-02
    0.40272975091205477985E-02
    0.39831503581357315460E-02
    0.39852180296581314264E-02
    0.39537315608330955014E-02
    0.39607749120140730084E-02
    0.40011543591007368154E-02
    0.40214629990422811473E-02
    0.40265021474969299800E-02
    0.40213052139959574310E-02
    0.42027103112525837289E-02
    0.42004314405638181959E-02
    0.42731700301354589785E-02
    0.42564921781790103494E-02
    0.41740738560451006237E-02
    0.41427682372013477710E-02
    0.40790282885823448203E-02
    0.40798940121117687613E-02
    0.40331077577456077646E-02
    0.40415268029250234899E-02
    0.40999828552498555900E-02
    0.41274640376370080527E-02