# vtk DataFile Version 3.0
LAPLACIEN  2D
ASCII
DATASET UNSTRUCTURED_GRID
FIELD FieldData 1
TIME 1 1 double
17.8000
 POINTS        7297  float
   1.5625000000000000E-002  0.96875000000000000        0.0000000000000000     
   3.1250000000000000E-002  0.96875000000000000        0.0000000000000000     
   3.1250000000000000E-002  0.98437500000000000        0.0000000000000000     
   9.3749999999999997E-003  0.97812500000000002        0.0000000000000000     
   2.0312500000000001E-002  0.97968750000000004        0.0000000000000000     
   2.1874999999999999E-002  0.99062499999999998        0.0000000000000000     
   1.0937499999999999E-002  0.98906249999999996        0.0000000000000000     
   4.6875000000000000E-002  0.96875000000000000        0.0000000000000000     
   6.2500000000000000E-002  0.96875000000000000        0.0000000000000000     
   6.2500000000000000E-002  0.98437500000000000        0.0000000000000000     
   4.0625000000000001E-002  0.97812500000000002        0.0000000000000000     
   5.1562499999999997E-002  0.97968750000000004        0.0000000000000000     
   5.3124999999999999E-002  0.99062499999999998        0.0000000000000000     
   4.2187500000000003E-002  0.98906249999999996        0.0000000000000000     
   1.5625000000000000E-002  0.93750000000000000        0.0000000000000000     
   3.1250000000000000E-002  0.93750000000000000        0.0000000000000000     
   3.1250000000000000E-002  0.95312500000000000        0.0000000000000000     
   9.3749999999999997E-003  0.94687500000000002        0.0000000000000000     
   2.0312500000000001E-002  0.94843750000000004        0.0000000000000000     
   2.1874999999999999E-002  0.95937499999999998        0.0000000000000000     
   1.0937499999999999E-002  0.95781249999999996        0.0000000000000000     
   4.6875000000000000E-002  0.93750000000000000        0.0000000000000000     
   6.2500000000000000E-002  0.93750000000000000        0.0000000000000000     
   6.2500000000000000E-002  0.95312500000000000        0.0000000000000000     
   4.0625000000000001E-002  0.94687500000000002        0.0000000000000000     
   5.1562499999999997E-002  0.94843750000000004        0.0000000000000000     
   5.3124999999999999E-002  0.95937499999999998        0.0000000000000000     
   4.2187500000000003E-002  0.95781249999999996        0.0000000000000000     
   7.8125000000000000E-002  0.96875000000000000        0.0000000000000000     
   9.3750000000000000E-002  0.96875000000000000        0.0000000000000000     
   9.3750000000000000E-002  0.98437500000000000        0.0000000000000000     
   7.1874999999999994E-002  0.97812500000000002        0.0000000000000000     
   8.2812499999999997E-002  0.97968750000000004        0.0000000000000000     
   8.4375000000000006E-002  0.99062499999999998        0.0000000000000000     
   7.3437500000000003E-002  0.98906249999999996        0.0000000000000000     
  0.10937500000000000       0.96875000000000000        0.0000000000000000     
  0.12500000000000000       0.96875000000000000        0.0000000000000000     
  0.12500000000000000       0.98437500000000000        0.0000000000000000     
  0.10312499999999999       0.97812500000000002        0.0000000000000000     
  0.11406250000000000       0.97968750000000004        0.0000000000000000     
  0.11562500000000001       0.99062499999999998        0.0000000000000000     
  0.10468750000000000       0.98906249999999996        0.0000000000000000     
   7.8125000000000000E-002  0.93750000000000000        0.0000000000000000     
   9.3750000000000000E-002  0.93750000000000000        0.0000000000000000     
   9.3750000000000000E-002  0.95312500000000000        0.0000000000000000     
   7.1874999999999994E-002  0.94687500000000002        0.0000000000000000     
   8.2812499999999997E-002  0.94843750000000004        0.0000000000000000     
   8.4375000000000006E-002  0.95937499999999998        0.0000000000000000     
   7.3437500000000003E-002  0.95781249999999996        0.0000000000000000     
  0.10937500000000000       0.93750000000000000        0.0000000000000000     
  0.12500000000000000       0.93750000000000000        0.0000000000000000     
  0.12500000000000000       0.95312500000000000        0.0000000000000000     
  0.10312499999999999       0.94687500000000002        0.0000000000000000     
  0.11406250000000000       0.94843750000000004        0.0000000000000000     
  0.11562500000000001       0.95937499999999998        0.0000000000000000     
  0.10468750000000000       0.95781249999999996        0.0000000000000000     
   1.5625000000000000E-002  0.90625000000000000        0.0000000000000000     
   3.1250000000000000E-002  0.90625000000000000        0.0000000000000000     
   3.1250000000000000E-002  0.92187500000000000        0.0000000000000000     
   9.3749999999999997E-003  0.91562500000000002        0.0000000000000000     
   2.0312500000000001E-002  0.91718750000000004        0.0000000000000000     
   2.1874999999999999E-002  0.92812499999999998        0.0000000000000000     
   1.0937499999999999E-002  0.92656249999999996        0.0000000000000000     
   4.6875000000000000E-002  0.90625000000000000        0.0000000000000000     
   6.2500000000000000E-002  0.90625000000000000        0.0000000000000000     
   6.2500000000000000E-002  0.92187500000000000        0.0000000000000000     
   4.0625000000000001E-002  0.91562500000000002        0.0000000000000000     
   5.1562499999999997E-002  0.91718750000000004        0.0000000000000000     
   5.3124999999999999E-002  0.92812499999999998        0.0000000000000000     
   4.2187500000000003E-002  0.92656249999999996        0.0000000000000000     
   1.5625000000000000E-002  0.87500000000000000        0.0000000000000000     
   3.1250000000000000E-002  0.87500000000000000        0.0000000000000000     
   3.1250000000000000E-002  0.89062500000000000        0.0000000000000000     
   9.3749999999999997E-003  0.88437500000000002        0.0000000000000000     
   2.0312500000000001E-002  0.88593750000000004        0.0000000000000000     
   2.1874999999999999E-002  0.89687499999999998        0.0000000000000000     
   1.0937499999999999E-002  0.89531249999999996        0.0000000000000000     
   4.6875000000000000E-002  0.87500000000000000        0.0000000000000000     
   6.2500000000000000E-002  0.87500000000000000        0.0000000000000000     
   6.2500000000000000E-002  0.89062500000000000        0.0000000000000000     
   4.0625000000000001E-002  0.88437500000000002        0.0000000000000000     
   5.1562499999999997E-002  0.88593750000000004        0.0000000000000000     
   5.3124999999999999E-002  0.89687499999999998        0.0000000000000000     
   4.2187500000000003E-002  0.89531249999999996        0.0000000000000000     
   7.8125000000000000E-002  0.90625000000000000        0.0000000000000000     
   9.3750000000000000E-002  0.90625000000000000        0.0000000000000000     
   9.3750000000000000E-002  0.92187500000000000        0.0000000000000000     
   7.1874999999999994E-002  0.91562500000000002        0.0000000000000000     
   8.2812499999999997E-002  0.91718750000000004        0.0000000000000000     
   8.4375000000000006E-002  0.92812499999999998        0.0000000000000000     
   7.3437500000000003E-002  0.92656249999999996        0.0000000000000000     
  0.10937500000000000       0.90625000000000000        0.0000000000000000     
  0.12500000000000000       0.90625000000000000        0.0000000000000000     
  0.12500000000000000       0.92187500000000000        0.0000000000000000     
  0.10312499999999999       0.91562500000000002        0.0000000000000000     
  0.11406250000000000       0.91718750000000004        0.0000000000000000     
  0.11562500000000001       0.92812499999999998        0.0000000000000000     
  0.10468750000000000       0.92656249999999996        0.0000000000000000     
   7.8125000000000000E-002  0.87500000000000000        0.0000000000000000     
   9.3750000000000000E-002  0.87500000000000000        0.0000000000000000     
   9.3750000000000000E-002  0.89062500000000000        0.0000000000000000     
   7.1874999999999994E-002  0.88437500000000002        0.0000000000000000     
   8.2812499999999997E-002  0.88593750000000004        0.0000000000000000     
   8.4375000000000006E-002  0.89687499999999998        0.0000000000000000     
   7.3437500000000003E-002  0.89531249999999996        0.0000000000000000     
  0.10937500000000000       0.87500000000000000        0.0000000000000000     
  0.12500000000000000       0.87500000000000000        0.0000000000000000     
  0.12500000000000000       0.89062500000000000        0.0000000000000000     
  0.10312499999999999       0.88437500000000002        0.0000000000000000     
  0.11406250000000000       0.88593750000000004        0.0000000000000000     
  0.11562500000000001       0.89687499999999998        0.0000000000000000     
  0.10468750000000000       0.89531249999999996        0.0000000000000000     
  0.14062500000000000       0.96875000000000000        0.0000000000000000     
  0.15625000000000000       0.96875000000000000        0.0000000000000000     
  0.15625000000000000       0.98437500000000000        0.0000000000000000     
  0.13437499999999999       0.97812500000000002        0.0000000000000000     
  0.14531250000000001       0.97968750000000004        0.0000000000000000     
  0.14687500000000001       0.99062499999999998        0.0000000000000000     
  0.13593749999999999       0.98906249999999996        0.0000000000000000     
  0.17187500000000000       0.96875000000000000        0.0000000000000000     
  0.18750000000000000       0.96875000000000000        0.0000000000000000     
  0.18750000000000000       0.98437500000000000        0.0000000000000000     
  0.16562499999999999       0.97812500000000002        0.0000000000000000     
  0.17656250000000001       0.97968750000000004        0.0000000000000000     
[...]
 CELL_DATA       14336
 SCALARS Nutrient float
 LOOKUP_TABLE default
    0.11541145325687672193E-01
    0.11541062832920199327E-01
    0.11541715632840092096E-01
    0.11541715632683299114E-01
    0.11541062833547919425E-01
    0.11541145325151653048E-01
    0.11540628241971473064E-01
    0.11540321809349845042E-01
    0.11539990740116230425E-01
    0.11539990736521028164E-01
    0.11540321811198862509E-01
    0.11540628241198669368E-01
    0.11540580405988789398E-01
    0.11540580405405296074E-01
    0.11543293112998504260E-01
    0.11543865109798172666E-01
    0.11545417132899133197E-01
    0.11545847073033854713E-01
    0.11544683502616505735E-01
    0.11545240700993539273E-01
    0.11544021089010283315E-01
    0.11543006639369024491E-01
    0.11541934692661386802E-01
    0.11541552436004402782E-01
    0.11542218565358891569E-01
    0.11542136639731696152E-01
    0.11543182942185101561E-01
    0.11543411880214323254E-01
    0.11545240701083918367E-01
    0.11544683502514242052E-01
    0.11545847073068707042E-01
    0.11545417132855336634E-01
    0.11543865109947917466E-01
    0.11543293112804843201E-01
    0.11542136640113198273E-01
    0.11542218564980936957E-01
    0.11541552436488010727E-01
    0.11541934692194638634E-01
    0.11543006639603087260E-01
    0.11544021088919656157E-01
    0.11543411880326894664E-01
    0.11543182942125702894E-01
    0.11548120583819087084E-01
    0.11548370582154948022E-01
    0.11550796395838778749E-01
    0.11550796395824718815E-01
    0.11548370582199015202E-01
    0.11548120583771213921E-01
    0.11545970037505680003E-01
    0.11545356892508691626E-01
    0.11543757228652432034E-01
    0.11543757228464731485E-01
    0.11545356892625141879E-01
    0.11545970037424363105E-01
    0.11546676629765632513E-01
    0.11546676629732008368E-01
    0.11549028888537019380E-01
    0.11550574071353606267E-01
    0.11553600175381118290E-01
    0.11554727137617874441E-01
    0.11552725457376764734E-01
    0.11554079499779578918E-01
    0.11551689230037484254E-01
    0.11549470649068421454E-01
    0.11547175706103566042E-01
    0.11546205637173101097E-01
    0.11547430506880158527E-01
    0.11546841511825951809E-01
    0.11549517273476138032E-01
    0.11550127275667475268E-01
    0.11560497088516780151E-01
    0.11563609618081276131E-01
    0.11568954676212835075E-01
    0.11571127311516403446E-01
    0.11567753279796427410E-01
    0.11570255762678732445E-01
    0.11566031424461805169E-01
    0.11562014030932923556E-01
    0.11557836850678187765E-01
    0.11555938729825417088E-01
    0.11558085193040744040E-01
    0.11556667471352413332E-01
    0.11561933527389427201E-01
    0.11563115407727121708E-01
    0.11555638674945733005E-01
    0.11556845886587549521E-01
    0.11561099574966140699E-01
    0.11561666589060867749E-01
    0.11557884894248750610E-01
    0.11558101240378869032E-01
    0.11554371573285582980E-01
    0.11552724690590390755E-01
    0.11549672541019967084E-01
    0.11549212549801637917E-01
    0.11551768850867963345E-01
    0.11552054908300628255E-01
    0.11554393651308832863E-01
    0.11554685467683680281E-01
    0.11569870885540433844E-01
    0.11572647041408709936E-01
    0.11579966971322826555E-01
    0.11581481032124777905E-01
    0.11575429214663007782E-01
    0.11576394036692314385E-01
    0.11570101590871089206E-01
    0.11566789251685383536E-01
    0.11561408675487896969E-01
    0.11560190578905255032E-01
    0.11564238111058885300E-01
    0.11564010911753805702E-01
    0.11568972885570681305E-01
    0.11569753039586893120E-01
    0.11554079499813447660E-01
    0.11552725457374346529E-01
    0.11554727137638774390E-01
    0.11553600175384797638E-01
    0.11550574071393147554E-01
    0.11549028888498709747E-01
    0.11546841511909905487E-01
    0.11547430506821020069E-01
    0.11546205637256005266E-01
    0.11547175706045765056E-01
    0.11549470649116629420E-01
    0.11551689230043096085E-01
    0.11550127275697144244E-01
    0.11549517273479973506E-01
    0.11558101240400360521E-01
    0.11557884894248594485E-01
    0.11561666589077201905E-01
    0.11561099574972935611E-01
    0.11556845886606490967E-01
    0.11555638674932078996E-01
    0.11552054908329077720E-01
    0.11551768850837888444E-01
    0.11549212549852094084E-01
    0.11549672540988027356E-01
    0.11552724690620533310E-01
    0.11554371573280255645E-01
    0.11554685467701435175E-01
    0.11554393651309667265E-01
    0.11570255762736738128E-01
    0.11567753279840125094E-01
    0.11571127311567442481E-01
    0.11568954676254435479E-01
    0.11563609618120919767E-01
    0.11560497088531759488E-01
    0.11556667471383279266E-01
    0.11558085193054986120E-01
    0.11555938729858312650E-01
    0.11557836850696995637E-01
    0.11562014030978024631E-01
    0.11566031424513267475E-01
    0.11563115407768284962E-01
    0.11561933527421528259E-01
    0.11576394036745075999E-01
    0.11575429214707225883E-01
    0.11581481032181753163E-01
    0.11579966971372550669E-01
    0.11572647041447727337E-01
    0.11569870885560070914E-01
    0.11564010911775637197E-01
    0.11564238111072733597E-01
    0.11560190578933239591E-01
    0.11561408675504706439E-01
    0.11566789251723039178E-01
    0.11570101590910529879E-01
    0.11569753039625119487E-01
    0.11568972885602565523E-01
    0.11568576759479337612E-01
    0.11569514739007040818E-01
    0.11575821971736397972E-01
    0.11575821971732064633E-01
    0.11569514739007091125E-01
    0.11568576759465990650E-01
    0.11562827468560139821E-01
    0.11561495107892113404E-01
    0.11557082249594230472E-01
    0.11557082249580625036E-01
    0.11561495107906315585E-01
    0.11562827468564457548E-01
    0.11565140047153990577E-01
    0.11565140047150028468E-01
    0.11588064244526815813E-01
    0.11590840230085240614E-01
    0.11601456557840226710E-01
    0.11602445684657078720E-01
    0.11592562609436923501E-01
    0.11592036609509566089E-01
    0.11582519125710762434E-01
    0.11579444693693321036E-01
    0.11571914035786848296E-01
    0.11571242260212000197E-01
    0.11577964784855501387E-01
    0.11578981902503620791E-01
    0.11584405300630193358E-01
    0.11584874188228084374E-01
    0.11592036609571284081E-01
    0.11592562609487553141E-01
    0.11602445684717488730E-01
    0.11601456557887896912E-01
    0.11590840230119749468E-01
    0.11588064244543293951E-01
    0.11578981902511584906E-01
    0.11577964784870685422E-01
    0.11571242260232117785E-01
    0.11571914035806723023E-01
    0.11579444693733972546E-01
    0.11582519125764035792E-01
    0.11584874188266912690E-01
    0.11584405300661876348E-01
    0.11620528549924118156E-01
    0.11623164207308842033E-01
    0.11639168762577112651E-01
    0.11639168762565644394E-01
    0.11623164207290009875E-01
    0.11620528549879015345E-01
    0.11605986546781844188E-01
    0.11602857983113805049E-01
    0.11591762964826564375E-01
    0.11591762964833985522E-01
    0.11602857983134672037E-01
    0.11605986546828787540E-01
    0.11612137732650741964E-01
    0.11612137732644777985E-01
    0.11581077277108947285E-01
    0.11586672845364085274E-01
    0.11595931697274361807E-01
    0.11599820828668611430E-01
    0.11594058965230455427E-01
    0.11598475917311269062E-01
    0.11591185629059516660E-01
    0.11584164891877028053E-01
    0.11576895855210158140E-01
    0.11573533859698260928E-01
    0.11577192775717044457E-01
    0.11574554378507739827E-01
    0.11583900475121443330E-01
    0.11586002751697599758E-01
    0.11617110204993820466E-01
    0.11626888879951504177E-01
    0.11642999038927267022E-01
    0.11649709405862539169E-01
    0.11639649886041365454E-01
    0.11647164513433614849E-01
    0.11634619085922542209E-01
    0.11622536425662251258E-01
    0.11609969318843669714E-01
    0.11604152703868025887E-01
    0.11610453694558929214E-01
    0.11605804733455241801E-01
    0.11622088675215519818E-01
    0.11625728140889912687E-01
    0.11595490233166243221E-01
    0.11600928387267533948E-01
    0.11613632403172997193E-01
    0.11616749737881605642E-01
    0.11606576365712316726E-01
    0.11608659117353896037E-01
    0.11597811917461790104E-01
    0.11591805719577038744E-01
    0.11582495898437336623E-01
    0.11580103108935608375E-01
    0.11586722432109205008E-01
    0.11585673525225468478E-01
    0.11595045733841869220E-01
    0.11596616533376988972E-01
    0.11641084261926419249E-01
    0.11651125992384138430E-01
    0.11673438314632762075E-01
    0.11679181686638128584E-01
    0.11661452446842544839E-01
    0.11665174346125189650E-01
    0.11646278229246763425E-01
    0.11635715092450147831E-01
    0.11619512388023976041E-01
    0.11615181474387155022E-01
    0.11626481032738606239E-01
    0.11624184012458743318E-01
    0.11641097065946213324E-01
    0.11643960016204111044E-01
    0.11679661714346929735E-01
    0.11696283651922149971E-01
    0.11723998437138090714E-01
    0.11735023565778357132E-01
    0.11717484999742703786E-01
    0.11729756980636451419E-01
    0.11708542016635414135E-01
    0.11688185421333879485E-01
    0.11666813130097167250E-01
    0.11656907093251863902E-01
    0.11667839457747620352E-01
    0.11660032508778369123E-01
    0.11687741321468750680E-01
    0.11693825817331160791E-01
    0.11786463582608232986E-01
    0.11813502947276347671E-01
    0.11860394243732991920E-01
    0.11877402440698743569E-01
    0.11847001013442005554E-01
    0.11865941918910933098E-01
    0.11831101130540536831E-01
    0.11797881312184500119E-01
    0.11762383389637590808E-01
    0.11746059521823998609E-01
    0.11764878992640873459E-01
    0.11752491958701320046E-01
    0.11798141821975841395E-01
    0.11807880658158671425E-01
    0.11722158605081202040E-01
    0.11739923776680460596E-01
    0.11779480842803774845E-01
    0.11789240093055401368E-01
    0.11757452762007739727E-01
    0.11763047934046892348E-01
    0.11730010231771623511E-01
    0.11712145483244654556E-01
    0.11683947362249621008E-01
    0.11676540818698186511E-01
    0.11696391594045915316E-01
    0.11692333088188112261E-01
    0.11722043059368291232E-01
    0.11726917457135825618E-01
    0.11865560406188271209E-01
    0.11895527980690115410E-01
    0.11965400988929614581E-01
    0.11980325596932005563E-01
    0.11922716087834591900E-01
    0.11929162529902087586E-01
    0.11871756584883883315E-01
    0.11843031980434631442E-01
    0.11794463477879511826E-01
    0.11782564002330650141E-01
    0.11818109335287745737E-01
    0.11812285360920207408E-01
    0.11862574629248074515E-01
    0.11870205819398873398E-01
    0.11622901197882389013E-01
    0.11628919288479840424E-01
    0.11647076695771025126E-01
    0.11649866275158935608E-01
    0.11633672598023777484E-01
    0.11633887110824284519E-01
    0.11617671659325581532E-01
    0.11611559377687345404E-01
    0.11598604994671513763E-01
    0.11596805647247698107E-01
    0.11607572149124089841E-01
    0.11608078033962767467E-01
    0.11618868120190549431E-01
    0.11620145792621694100E-01
    0.11685057198757713842E-01
    0.11697098871087427407E-01
    0.11729097363225107070E-01
    0.11735257313262891996E-01
    0.11707398457938562875E-01
    0.11708746301053184896E-01
    0.11680315585910440099E-01
    0.11668916081335124063E-01
    0.11646176684436435750E-01
    0.11642403375343602506E-01
    0.11660444961913284112E-01
    0.11659940117536873178E-01
    0.11680546788836940197E-01
    0.11683294375674191726E-01
    0.11669919817855195845E-01
    0.11676591991021339698E-01
    0.11703104288754290208E-01
    0.11705287744956997115E-01
    0.11680168769207650153E-01
    0.11678121201680189550E-01
    0.11653985948412787926E-01
    0.11647072630705175220E-01
    0.11628350503819643094E-01
    0.11627093217164529218E-01
    0.11644200557750089553E-01
    0.11647078286447147197E-01
    0.11660184184479484293E-01
    0.11661127736380305989E-01
    0.11756456735741264985E-01
    0.11771301067517730629E-01
    0.11817011277744563988E-01
    0.11824062298502571386E-01
    0.11782566831012678335E-01
    0.11782148072357695456E-01
    0.11740317989743611835E-01
    0.11726145345866141600E-01
    0.11693575522196044542E-01
    0.11689851551866230900E-01
    0.11717410769326627729E-01
    0.11719260031265764724E-01
    0.11745636558999508411E-01
    0.11748563808951161327E-01
    0.11797762077882408688E-01
    0.11820790374709993359E-01
    0.11878561544315123510E-01
    0.11890436875447307416E-01
    0.11840405109017662980E-01
    0.11842822746575021667E-01
    0.11791912774029607650E-01
    0.11771552807443215818E-01
    0.11731069845206370389E-01
    0.11724007496751008214E-01
    0.11755576017234368666E-01
    0.11753502621803664854E-01
    0.11791754515274434009E-01
    0.11796964429141465480E-01
    0.12004075265727394417E-01
    0.12046109041924159613E-01
    0.12151785795120330705E-01
    0.12172156529664404298E-01
    0.12079590275989125076E-01
    0.12080873474974777176E-01
    0.11988901344724457038E-01
    0.11954473894739602036E-01
    0.11882051597952998992E-01
    0.11870080281458857824E-01
    0.11927317075914206992E-01
    0.11923671657550991357E-01
    0.11992625628125943432E-01
    0.12001504975381127940E-01
    0.11913523791579999980E-01
    0.11944900503576553336E-01
    0.12027511231209006212E-01
    0.12044223460127753342E-01
    0.11971314822090534796E-01
    0.11973595816415634821E-01
    0.11898172669978463595E-01
    0.11870626724330984522E-01
    0.11812027976758000120E-01
    0.11803588591756212015E-01
    0.11850492321295548123E-01
    0.11849627436026230476E-01
    0.11902073485144642334E-01
    0.11908890176258721261E-01
    0.12207723016992685222E-01
    0.12270597154278261448E-01
    0.12424876731764008392E-01
    0.12458745406883370982E-01
    0.12323620172761671696E-01
    0.12327981376207594599E-01
    0.12188383768387236333E-01
    0.12137511643699496616E-01
    0.12029795473139356932E-01
    0.12013244968070374910E-01
    0.12097628601745746141E-01
    0.12092117860218968423E-01
    0.12193661442171769421E-01
    0.12207271569047571658E-01
    0.11598475917450669706E-01
    0.11594058965351228610E-01
    0.11599820828800688072E-01
    0.11595931697391084411E-01
    0.11586672845460027625E-01
    0.11581077277180790858E-01
    0.11574554378566562565E-01
    0.11577192775786619011E-01
    0.11573533859765606363E-01
    0.11576895855286007189E-01
    0.11584164891980186854E-01
    0.11591185629190097969E-01
    0.11586002751798711585E-01
    0.11583900475213376735E-01
    0.11608659117495799887E-01
    0.11606576365845939006E-01
    0.11616749738041071832E-01
    0.11613632403321933612E-01
    0.11600928387381324869E-01
    0.11595490233253442566E-01
    0.11585673525290003660E-01
    0.11586722432183541379E-01
    0.11580103109001115003E-01
    0.11582495898510902776E-01
    0.11591805719677638828E-01
    0.11597811917580290800E-01
    0.11596616533485638173E-01
    0.11595045733943251665E-01
    0.11647164513743046149E-01
    0.11639649886317590677E-01
    0.11649709406164185030E-01
    0.11642999039200505051E-01
    0.11626888880177011290E-01
    0.11617110205177657786E-01
    0.11605804733601820730E-01
    0.11610453694732862998E-01
    0.11604152704028291784E-01
    0.11609969319027118456E-01
    0.11622536425895406767E-01
    0.11634619086211491629E-01
    0.11625728141123109829E-01
    0.11622088675432214536E-01
    0.11665174346456671020E-01
    0.11661452447163331639E-01
    0.11679181687015968705E-01
    0.11673438314993752826E-01
    0.11651125992665999770E-01
    0.11641084262160560081E-01
    0.11624184012635915830E-01
    0.11626481032936879928E-01
    0.11615181474555121358E-01
    0.11619512388212174456E-01
    0.11635715092692806155E-01
    0.11646278229527358417E-01
    0.11643960016468633822E-01
    0.11641097066198362320E-01
    0.11633887111009936360E-01
    0.11633672598195888073E-01
    0.11649866275361707435E-01
    0.11647076695953346298E-01
    0.11628919288618776162E-01
    0.11622901197989057159E-01
    0.11608078034034519099E-01
    0.11607572149214909554E-01
    0.11596805647325550762E-01
    0.11598604994761741935E-01
    0.11611559377815936986E-01
    0.11617671659485495281E-01
    0.11620145792758423270E-01
    0.11618868120316627399E-01
    0.11678121201890998351E-01
    0.11680168769379505739E-01
    0.11705287745145802683E-01
    0.11703104288901183122E-01
    0.11676591991126380674E-01
    0.11669919817907910622E-01
    0.11647078286470843519E-01
    0.11644200557817450600E-01
    0.11627093217232079350E-01
    0.11628350503917604664E-01
    0.11647072630842263477E-01
    0.11653985948601610842E-01
    0.11661127736509707686E-01
    0.11660184184588419723E-01
    0.11708746301506872331E-01
    0.11707398458373674890E-01
    0.11735257313778455282E-01
    0.11729097363702653892E-01
    0.11697098871464268327E-01
    0.11685057199073372800E-01
    0.11659940117768085796E-01
    0.11660444962175803285E-01
    0.11642403375563251458E-01
    0.11646176684681265948E-01
    0.11668916081661546980E-01
    0.11680315586296821997E-01
    0.11683294376030205555E-01
    0.11680546789174506978E-01
    0.11782148072936175429E-01
    0.11782566831537411370E-01
    0.11824062299096323864E-01
    0.11817011278274143840E-01
    0.11771301067926618830E-01
    0.11756456736054923806E-01
    0.11719260031487469323E-01
    0.11717410769617273708E-01
    0.11689851552124520817E-01
    0.11693575522508608752E-01
    0.11726145346273496306E-01
    0.11740317990248144014E-01
    0.11748563809372024325E-01
    0.11745636559386365624E-01
    0.11729756981276142844E-01
    0.11717485000324082481E-01
    0.11735023566412192131E-01
    0.11723998437723896424E-01
    0.11696283652408000914E-01
    0.11679661714756994079E-01
    0.11660032509109531304E-01
    0.11667839458129661973E-01
    0.11656907093602028244E-01
    0.11666813130493272274E-01
    0.11688185421824181728E-01
    0.11708542017231015828E-01
    0.11693825817826158930E-01
    0.11687741321933599326E-01
    0.11763047934758460306E-01
    0.11757452762702846893E-01
    0.11789240093875443319E-01
    0.11779480843590357450E-01
    0.11739923777307160677E-01
    0.11722158605619084279E-01
    0.11692333088605524893E-01
    0.11696391594498237523E-01
    0.11676540819081898670E-01
    0.11683947362670060732E-01
    0.11712145483775379326E-01
    0.11730010232373480616E-01
    0.11726917457717268498E-01
    0.11722043059927690981E-01
    0.11865941920158011927E-01
    0.11847001014600179805E-01
    0.11877402441979155109E-01
    0.11860394244919178486E-01
    0.11813502948265093215E-01
    0.11786463583457152879E-01
    0.11752491959396356089E-01
    0.11764878993424108047E-01
    0.11746059522540980638E-01
    0.11762383390439007033E-01
    0.11797881313158901234E-01
    0.11831101131701642765E-01
    0.11807880659151585509E-01
    0.11798141822915414467E-01
    0.11929162531326486379E-01
    0.11922716089257157090E-01
    0.11980325598619777014E-01
    0.11965400990556386215E-01
    0.11895527981994089700E-01
    0.11865560407332876453E-01
    0.11812285361816519946E-01
    0.11818109336242119470E-01
    0.11782564003138514333E-01
    0.11794463478755883717E-01
    0.11843031981524015234E-01
    0.11871756586102056447E-01
    0.11870205820598002736E-01
    0.11862574630409863929E-01
    0.11842822747569354755E-01
    0.11840405109993082378E-01
    0.11890436876599502075E-01
    0.11878561545409572694E-01
    0.11820790375583143869E-01
    0.11797762078644488323E-01
    0.11753502622378271189E-01
    0.11755576017858919424E-01
    0.11724007497271551892E-01
    0.11731069845773458432E-01
    0.11771552808176991706E-01
    0.11791912774875838721E-01
    0.11796964429950674083E-01
    0.11791754516052535551E-01
    0.11973595817765489077E-01
    0.11971314823359677573E-01
    0.12044223461592560784E-01
    0.12027511232554926116E-01
    0.11944900504650059203E-01
    0.11913523792472601945E-01
    0.11849627436703515093E-01
    0.11850492322076565735E-01
    0.11803588592436114330E-01
    0.11812027977527476616E-01
    0.11870626725312402594E-01
    0.11898172671134925674E-01