# vtk DataFile Version 3.0
LAPLACIEN  2D
ASCII
DATASET UNSTRUCTURED_GRID
FIELD FieldData 1
TIME 1 1 double
0.9000
 POINTS        7297  float
   1.5625000000000000E-002  0.96875000000000000        0.0000000000000000     
   3.1250000000000000E-002  0.96875000000000000        0.0000000000000000     
   3.1250000000000000E-002  0.98437500000000000        0.0000000000000000     
   9.3749999999999997E-003  0.97812500000000002        0.0000000000000000     
   2.0312500000000001E-002  0.97968750000000004        0.0000000000000000     
   2.1874999999999999E-002  0.99062499999999998        0.0000000000000000     
   1.0937499999999999E-002  0.98906249999999996        0.0000000000000000     
   4.6875000000000000E-002  0.96875000000000000        0.0000000000000000     
   6.2500000000000000E-002  0.96875000000000000        0.0000000000000000     
   6.2500000000000000E-002  0.98437500000000000        0.0000000000000000     
   4.0625000000000001E-002  0.97812500000000002        0.0000000000000000     
   5.1562499999999997E-002  0.97968750000000004        0.0000000000000000     
   5.3124999999999999E-002  0.99062499999999998        0.0000000000000000     
   4.2187500000000003E-002  0.98906249999999996        0.0000000000000000     
   1.5625000000000000E-002  0.93750000000000000        0.0000000000000000     
   3.1250000000000000E-002  0.93750000000000000        0.0000000000000000     
   3.1250000000000000E-002  0.95312500000000000        0.0000000000000000     
   9.3749999999999997E-003  0.94687500000000002        0.0000000000000000     
   2.0312500000000001E-002  0.94843750000000004        0.0000000000000000     
   2.1874999999999999E-002  0.95937499999999998        0.0000000000000000     
   1.0937499999999999E-002  0.95781249999999996        0.0000000000000000     
   4.6875000000000000E-002  0.93750000000000000        0.0000000000000000     
   6.2500000000000000E-002  0.93750000000000000        0.0000000000000000     
   6.2500000000000000E-002  0.95312500000000000        0.0000000000000000     
   4.0625000000000001E-002  0.94687500000000002        0.0000000000000000     
   5.1562499999999997E-002  0.94843750000000004        0.0000000000000000     
   5.3124999999999999E-002  0.95937499999999998        0.0000000000000000     
   4.2187500000000003E-002  0.95781249999999996        0.0000000000000000     
   7.8125000000000000E-002  0.96875000000000000        0.0000000000000000     
   9.3750000000000000E-002  0.96875000000000000        0.0000000000000000     
   9.3750000000000000E-002  0.98437500000000000        0.0000000000000000     
   7.1874999999999994E-002  0.97812500000000002        0.0000000000000000     
   8.2812499999999997E-002  0.97968750000000004        0.0000000000000000     
   8.4375000000000006E-002  0.99062499999999998        0.0000000000000000     
   7.3437500000000003E-002  0.98906249999999996        0.0000000000000000     
  0.10937500000000000       0.96875000000000000        0.0000000000000000     
  0.12500000000000000       0.96875000000000000        0.0000000000000000     
  0.12500000000000000       0.98437500000000000        0.0000000000000000     
  0.10312499999999999       0.97812500000000002        0.0000000000000000     
  0.11406250000000000       0.97968750000000004        0.0000000000000000     
  0.11562500000000001       0.99062499999999998        0.0000000000000000     
  0.10468750000000000       0.98906249999999996        0.0000000000000000     
   7.8125000000000000E-002  0.93750000000000000        0.0000000000000000     
   9.3750000000000000E-002  0.93750000000000000        0.0000000000000000     
   9.3750000000000000E-002  0.95312500000000000        0.0000000000000000     
   7.1874999999999994E-002  0.94687500000000002        0.0000000000000000     
   8.2812499999999997E-002  0.94843750000000004        0.0000000000000000     
   8.4375000000000006E-002  0.95937499999999998        0.0000000000000000     
   7.3437500000000003E-002  0.95781249999999996        0.0000000000000000     
  0.10937500000000000       0.93750000000000000        0.0000000000000000     
  0.12500000000000000       0.93750000000000000        0.0000000000000000     
  0.12500000000000000       0.95312500000000000        0.0000000000000000     
  0.10312499999999999       0.94687500000000002        0.0000000000000000     
  0.11406250000000000       0.94843750000000004        0.0000000000000000     
  0.11562500000000001       0.95937499999999998        0.0000000000000000     
  0.10468750000000000       0.95781249999999996        0.0000000000000000     
   1.5625000000000000E-002  0.90625000000000000        0.0000000000000000     
   3.1250000000000000E-002  0.90625000000000000        0.0000000000000000     
   3.1250000000000000E-002  0.92187500000000000        0.0000000000000000     
   9.3749999999999997E-003  0.91562500000000002        0.0000000000000000     
   2.0312500000000001E-002  0.91718750000000004        0.0000000000000000     
   2.1874999999999999E-002  0.92812499999999998        0.0000000000000000     
   1.0937499999999999E-002  0.92656249999999996        0.0000000000000000     
   4.6875000000000000E-002  0.90625000000000000        0.0000000000000000     
   6.2500000000000000E-002  0.90625000000000000        0.0000000000000000     
   6.2500000000000000E-002  0.92187500000000000        0.0000000000000000     
   4.0625000000000001E-002  0.91562500000000002        0.0000000000000000     
   5.1562499999999997E-002  0.91718750000000004        0.0000000000000000     
   5.3124999999999999E-002  0.92812499999999998        0.0000000000000000     
   4.2187500000000003E-002  0.92656249999999996        0.0000000000000000     
   1.5625000000000000E-002  0.87500000000000000        0.0000000000000000     
   3.1250000000000000E-002  0.87500000000000000        0.0000000000000000     
   3.1250000000000000E-002  0.89062500000000000        0.0000000000000000     
   9.3749999999999997E-003  0.88437500000000002        0.0000000000000000     
   2.0312500000000001E-002  0.88593750000000004        0.0000000000000000     
   2.1874999999999999E-002  0.89687499999999998        0.0000000000000000     
   1.0937499999999999E-002  0.89531249999999996        0.0000000000000000     
   4.6875000000000000E-002  0.87500000000000000        0.0000000000000000     
   6.2500000000000000E-002  0.87500000000000000        0.0000000000000000     
   6.2500000000000000E-002  0.89062500000000000        0.0000000000000000     
   4.0625000000000001E-002  0.88437500000000002        0.0000000000000000     
   5.1562499999999997E-002  0.88593750000000004        0.0000000000000000     
   5.3124999999999999E-002  0.89687499999999998        0.0000000000000000     
   4.2187500000000003E-002  0.89531249999999996        0.0000000000000000     
   7.8125000000000000E-002  0.90625000000000000        0.0000000000000000     
   9.3750000000000000E-002  0.90625000000000000        0.0000000000000000     
   9.3750000000000000E-002  0.92187500000000000        0.0000000000000000     
   7.1874999999999994E-002  0.91562500000000002        0.0000000000000000     
   8.2812499999999997E-002  0.91718750000000004        0.0000000000000000     
   8.4375000000000006E-002  0.92812499999999998        0.0000000000000000     
   7.3437500000000003E-002  0.92656249999999996        0.0000000000000000     
  0.10937500000000000       0.90625000000000000        0.0000000000000000     
  0.12500000000000000       0.90625000000000000        0.0000000000000000     
  0.12500000000000000       0.92187500000000000        0.0000000000000000     
  0.10312499999999999       0.91562500000000002        0.0000000000000000     
  0.11406250000000000       0.91718750000000004        0.0000000000000000     
  0.11562500000000001       0.92812499999999998        0.0000000000000000     
  0.10468750000000000       0.92656249999999996        0.0000000000000000     
   7.8125000000000000E-002  0.87500000000000000        0.0000000000000000     
   9.3750000000000000E-002  0.87500000000000000        0.0000000000000000     
   9.3750000000000000E-002  0.89062500000000000        0.0000000000000000     
   7.1874999999999994E-002  0.88437500000000002        0.0000000000000000     
   8.2812499999999997E-002  0.88593750000000004        0.0000000000000000     
   8.4375000000000006E-002  0.89687499999999998        0.0000000000000000     
   7.3437500000000003E-002  0.89531249999999996        0.0000000000000000     
  0.10937500000000000       0.87500000000000000        0.0000000000000000     
  0.12500000000000000       0.87500000000000000        0.0000000000000000     
  0.12500000000000000       0.89062500000000000        0.0000000000000000     
  0.10312499999999999       0.88437500000000002        0.0000000000000000     
  0.11406250000000000       0.88593750000000004        0.0000000000000000     
  0.11562500000000001       0.89687499999999998        0.0000000000000000     
  0.10468750000000000       0.89531249999999996        0.0000000000000000     
  0.14062500000000000       0.96875000000000000        0.0000000000000000     
  0.15625000000000000       0.96875000000000000        0.0000000000000000     
  0.15625000000000000       0.98437500000000000        0.0000000000000000     
  0.13437499999999999       0.97812500000000002        0.0000000000000000     
  0.14531250000000001       0.97968750000000004        0.0000000000000000     
  0.14687500000000001       0.99062499999999998        0.0000000000000000     
  0.13593749999999999       0.98906249999999996        0.0000000000000000     
  0.17187500000000000       0.96875000000000000        0.0000000000000000     
  0.18750000000000000       0.96875000000000000        0.0000000000000000     
  0.18750000000000000       0.98437500000000000        0.0000000000000000     
  0.16562499999999999       0.97812500000000002        0.0000000000000000     
  0.17656250000000001       0.97968750000000004        0.0000000000000000     
[...]
 CELL_DATA       14336
 SCALARS Nutrient float
 LOOKUP_TABLE default
    0.10910494837034808834E-02
    0.10902438983145697204E-02
    0.10952490974347193261E-02
    0.10952490974185759894E-02
    0.10902438983588422488E-02
    0.10910494836370546352E-02
    0.10869168638397114050E-02
    0.10844405003351993699E-02
    0.10817743786183276356E-02
    0.10817743783187302661E-02
    0.10844405005024934999E-02
    0.10869168638066239400E-02
    0.10864739889224037279E-02
    0.10864739888702796243E-02
    0.11067657773472404023E-02
    0.11109062535274640427E-02
    0.11214284556875092624E-02
    0.11244373339326402695E-02
    0.11169230676878034135E-02
    0.11209596325211237337E-02
    0.11126373994867304589E-02
    0.11052023066866400666E-02
    0.10972026230949677959E-02
    0.10941223745246618244E-02
    0.10991472270679620606E-02
    0.10983700133437286715E-02
    0.11062590043937709991E-02
    0.11080368688789815276E-02
    0.11209596325582340225E-02
    0.11169230676972437787E-02
    0.11244373339416038025E-02
    0.11214284556892741267E-02
    0.11109062535488007078E-02
    0.11067657773351567523E-02
    0.10983700133816471246E-02
    0.10991472270504326798E-02
    0.10941223745848654026E-02
    0.10972026230792490328E-02
    0.11052023067346793302E-02
    0.11126373995242052565E-02
    0.11080368689076794918E-02
    0.11062590044041034458E-02
    0.11377391081728699916E-02
    0.11388488638908150340E-02
    0.11523834158575832747E-02
    0.11523834158597182856E-02
    0.11388488638946292573E-02
    0.11377391081658504331E-02
    0.11247383979100416315E-02
    0.11205752800729316000E-02
    0.11099534581020045754E-02
    0.11099534580877735545E-02
    0.11205752800847402963E-02
    0.11247383979075039478E-02
    0.11287823040001916056E-02
    0.11287823039971577911E-02
    0.11437027432949224866E-02
    0.11528315643831094691E-02
    0.11692020515143429667E-02
    0.11752796918786101703E-02
    0.11650097285472121953E-02
    0.11723831343377112430E-02
    0.11596292191067886137E-02
    0.11470049719618717436E-02
    0.11334112801369210059E-02
    0.11272030731219095847E-02
    0.11347194382818504444E-02
    0.11307478625620151751E-02
    0.11471327973116946745E-02
    0.11507239277597006415E-02
    0.12028475718260207231E-02
    0.12171469060756712026E-02
    0.12398052281268002930E-02
    0.12489946245058910265E-02
    0.12355939928804424675E-02
    0.12463425394365753793E-02
    0.12288453835710725845E-02
    0.12108440352763597241E-02
    0.11913955074095673118E-02
    0.11819267835655137156E-02
    0.11921786842325266583E-02
    0.11849475374986631962E-02
    0.12101625336617650389E-02
    0.12156108432238375405E-02
    0.11772032734317324811E-02
    0.11832908083067275769E-02
    0.12031918888982422785E-02
    0.12060824122333950199E-02
    0.11890685054232966872E-02
    0.11908431889316166852E-02
    0.11728312570761024233E-02
    0.11637013706670485454E-02
    0.11471494471449290246E-02
    0.11441831580369316371E-02
    0.11578599756737796306E-02
    0.11590663414636651150E-02
    0.11716351130985065525E-02
    0.11733395952056475953E-02
    0.12402491413986179835E-02
    0.12514631652192373477E-02
    0.12785804951003457847E-02
    0.12843944415540150400E-02
    0.12630846497470214155E-02
    0.12676445512926559026E-02
    0.12439455323004983741E-02
    0.12296712487492190286E-02
    0.12066838278590322556E-02
    0.12007106942958868569E-02
    0.12179206659576843376E-02
    0.12163145510804848713E-02
    0.12377041443237461575E-02
    0.12411340631695987492E-02
    0.11723831343774641662E-02
    0.11650097285751152224E-02
    0.11752796919028785181E-02
    0.11692020515320410493E-02
    0.11528315644020689125E-02
    0.11437027432986191823E-02
    0.11307478625703700371E-02
    0.11347194382942014587E-02
    0.11272030731573786082E-02
    0.11334112801625040572E-02
    0.11470049720019865735E-02
    0.11596292191598182430E-02
    0.11507239277885133143E-02
    0.11471327973342228777E-02
    0.11908431889453494068E-02
    0.11890685054352790728E-02
    0.12060824122507789007E-02
    0.12031918889160962693E-02
    0.11832908083164294516E-02
    0.11772032734305389913E-02
    0.11590663414568159930E-02
    0.11578599756719260786E-02
    0.11441831580447372422E-02
    0.11471494471486137941E-02
    0.11637013706790948989E-02
    0.11728312570897772484E-02
    0.11733395952156153164E-02
    0.11716351131051464234E-02
    0.12463425395591253529E-02
    0.12355939929819842894E-02
    0.12489946246108465672E-02
    0.12398052282157723085E-02
    0.12171469061444365085E-02
    0.12028475718682475788E-02
    0.11849475375254779012E-02
    0.11921786842810728948E-02
    0.11819267836140402196E-02
    0.11913955074717625694E-02
    0.12108440353655383886E-02
    0.12288453836963916105E-02
    0.12156108433063472773E-02
    0.12101625337327343111E-02
    0.12676445513932937167E-02
    0.12630846498375102299E-02
    0.12843944416609648623E-02
    0.12785804951982581313E-02
    0.12514631652862371388E-02
    0.12402491414387887582E-02
    0.12163145510992855874E-02
    0.12179206659928632286E-02
    0.12007106943234889095E-02
    0.12066838279000552132E-02
    0.12296712488142505591E-02
    0.12439455323865538858E-02
    0.12411340632378364823E-02
    0.12377041443840056806E-02
    0.12344918242111560264E-02
    0.12379676151555579766E-02
    0.12622709755889332216E-02
    0.12622709755855607023E-02
    0.12379676151505890781E-02
    0.12344918241991215992E-02
    0.12105368524824055339E-02
    0.12043407805232373298E-02
    0.11841503582045494886E-02
    0.11841503582045037352E-02
    0.12043407805322331721E-02
    0.12105368525046407858E-02
    0.12200808341430212714E-02
    0.12200808341408116674E-02
    0.13046650355908067688E-02
    0.13135581783224751021E-02
    0.13465528894781686291E-02
    0.13494730920018092879E-02
    0.13192909656558951797E-02
    0.13181207632968787100E-02
    0.12870163621314981671E-02
    0.12756399777678513463E-02
    0.12480291001667150920E-02
    0.12451555133357783585E-02
    0.12699360808005057642E-02
    0.12735995255860788240E-02
    0.12925215261176763691E-02
    0.12941999593872243954E-02
    0.13181207634085454622E-02
    0.13192909657501288283E-02
    0.13494730921076406472E-02
    0.13465528895651294496E-02
    0.13135581783826734761E-02
    0.13046650356241609476E-02
    0.12735995255930220547E-02
    0.12699360808313888294E-02
    0.12451555133612375939E-02
    0.12480291002075520005E-02
    0.12756399778388134627E-02
    0.12870163622367824380E-02
    0.12941999594565237793E-02
    0.12925215261760281300E-02
    0.13998311734606222034E-02
    0.14067769396794277924E-02
    0.14477414127429372691E-02
    0.14477414127251871448E-02
    0.14067769396461388826E-02
    0.13998311733838606895E-02
    0.13596405350954695202E-02
    0.13504002930761864476E-02
    0.13166989861401598091E-02
    0.13166989861569623407E-02
    0.13504002931118228720E-02
    0.13596405351805147723E-02
    0.13770632598498983110E-02
    0.13770632598398395170E-02
    0.12858186836792499189E-02
    0.13056556410310938415E-02
    0.13356394693290422199E-02
    0.13482291348501313291E-02
    0.13309084968996722376E-02
    0.13453981299843165327E-02
    0.13223905768287010174E-02
    0.12983515391908598182E-02
    0.12723856295221817880E-02
    0.12594215301566953884E-02
    0.12728060468380850839E-02
    0.12622781297948429836E-02
    0.12969477417235711347E-02
    0.13044025682244196358E-02
    0.13966327646969857196E-02
    0.14230423524848674795E-02
    0.14625960893071433128E-02
    0.14792435177350075209E-02
    0.14563804093733513645E-02
    0.14753212379722503364E-02
    0.14451758821713812323E-02
    0.14137029029136476826E-02
    0.13796933798039066194E-02
    0.13626241194146476547E-02
    0.13800129389924798134E-02
    0.13658324440939523508E-02
    0.14117427776096193922E-02
    0.14215786335370333288E-02
    0.13297426017245389789E-02
    0.13465795807472025897E-02
    0.13826829968917619430E-02
    0.13916546941864923418E-02
    0.13643745559565479547E-02
    0.13716295970242807847E-02
    0.13406794455319030399E-02
    0.13208191910742198005E-02
    0.12903198841662966590E-02
    0.12812697897878260953E-02
    0.13029549510597338360E-02
    0.12986481014813839631E-02
    0.13297161414947474434E-02
    0.13349487123573253351E-02
    0.14518874161083808374E-02
    0.14755750530508551788E-02
    0.15241982581776539977E-02
    0.15368689488332518134E-02
    0.15004335124416160688E-02
    0.15103846097038846341E-02
    0.14692272272450548377E-02
    0.14426150345434481364E-02
    0.14023058098082698784E-02
    0.13898344516200748355E-02
    0.14178905890615664444E-02
    0.14109483370630638514E-02
    0.14536913814937866586E-02
    0.14609644690708723479E-02
    0.15435438655891872174E-02
    0.15784220187058418949E-02
    0.16314934108940047208E-02
    0.16531956156822895376E-02
    0.16219466801287915885E-02
    0.16464690083125815400E-02
    0.16064139113454107069E-02
    0.15650541541435316738E-02
    0.15202846656997793737E-02
    0.14979254140213454135E-02
    0.15209924569840463978E-02
    0.15025114759088782721E-02
    0.15629050445816734891E-02
    0.15757525524716826937E-02
    0.17410708812937952632E-02
    0.17871583065792314652E-02
    0.18604310895285567241E-02
    0.18883228825444112534E-02
    0.18436855138433132402E-02
    0.18751343553276230997E-02
    0.18209101780013157469E-02
    0.17659070822529977524E-02
    0.17059326256075122569E-02
    0.16764542691707524924E-02
    0.17080958246475065002E-02
    0.16844399946791626353E-02
    0.17644569013528985362E-02
    0.17812234840736285851E-02
    0.16192985561687015059E-02
    0.16521539845988633330E-02
    0.17201193056215063892E-02
    0.17373525140971623603E-02
    0.16855788751388065504E-02
    0.16978960106008638906E-02
    0.16410668663485628201E-02
    0.16057472865717780600E-02
    0.15513106402464701787E-02
    0.15347579016000893835E-02
    0.15727746123346147446E-02
    0.15632293163439943667E-02
    0.16216020291190144740E-02
    0.16313413656049182126E-02
    0.18555214163204038821E-02
    0.19011532863509265218E-02
    0.20006224713533713420E-02
    0.20230137025579139100E-02
    0.19445205329991998265E-02
    0.19575967620500765026E-02
    0.18755699771802023142E-02
    0.18288341849233430165E-02
    0.17527761598470656488E-02
    0.17312454401312326376E-02
    0.17860204389399433455E-02
    0.17744490627854925084E-02
    0.18548100358891763187E-02
    0.18674469060347327360E-02
    0.14058182365099928818E-02
    0.14208796834962104765E-02
    0.14652510163907347864E-02
    0.14714370252689151341E-02
    0.14327746205318302869E-02
    0.14337186057316521782E-02
    0.13929368510286002387E-02
    0.13757197841092463561E-02
    0.13388991800269156324E-02
    0.13330852211077108289E-02
    0.13641029681824969142E-02
    0.13655240080027420367E-02
    0.13950737112609584798E-02
    0.13985208360564568061E-02
    0.15474379586716397166E-02
    0.15706820289699086144E-02
    0.16320253261525139062E-02
    0.16425237092613908380E-02
    0.15902493565998470498E-02
    0.15931251210471826171E-02
    0.15376713622248360663E-02
    0.15131110143264923928E-02
    0.14633864438521307274E-02
    0.14542445021462292645E-02
    0.14945579092992052495E-02
    0.14937893040204690970E-02
    0.15372035476557150552E-02
    0.15427932520293160222E-02
    0.15188444014576942247E-02
    0.15327828278387575084E-02
    0.15883547952749261459E-02
    0.15919576925126177440E-02
    0.15394000330920562351E-02
    0.15342643509951097401E-02
    0.14812000638741260484E-02
    0.14654028092392782159E-02
    0.14200444272453791299E-02
    0.14170194777380642169E-02
    0.14592154430273435780E-02
    0.14665650175132861465E-02
    0.14962961751138657233E-02
    0.14981731235847283844E-02
    0.16887903005584413256E-02
    0.17130250853860603828E-02
    0.17911683453322891236E-02
    0.18004881804253936375E-02
    0.17292775305381585284E-02
    0.17263601504993674428E-02
    0.16528425446145852701E-02
    0.16278152366375078872E-02
    0.15652611491426737713E-02
    0.15585057583060604822E-02
    0.16134924751800264111E-02
    0.16187903736237332399E-02
    0.16658412429657726544E-02
    0.16703216720268282847E-02
    0.17497382971122382722E-02
    0.17852682782132315437E-02
    0.18746790435268162380E-02
    0.18912706580481713093E-02
    0.18151850269092501943E-02
    0.18193224977199144981E-02
    0.17395632386819411420E-02
    0.17048154124806186045E-02
    0.16350255502674119513E-02
    0.16217540184224892193E-02
    0.16773568034086935950E-02
    0.16744402288775292551E-02
    0.17381695187426316612E-02
    0.17465795647446944253E-02
    0.20523191527469122723E-02
    0.21072361536806820739E-02
    0.22458961528055367170E-02
    0.22707764767804505812E-02
    0.21509111057611998534E-02
    0.21534898682569890600E-02
    0.20315609873774306479E-02
    0.19824088788750063653E-02
    0.18792605885946719185E-02
    0.18607895751194850845E-02
    0.19434853709667050583E-02
    0.19390403788913763376E-02
    0.20346423885292219506E-02
    0.20467478191364503123E-02
    0.19398663823169315281E-02
    0.19818362814179118180E-02
    0.20993735877683815730E-02
    0.21185964143126557319E-02
    0.20140030616650197656E-02
    0.20137156928990381823E-02
    0.19044909032153950566E-02
    0.18650079945723839914E-02
    0.17738994166228794300E-02
    0.17617207667931520168E-02
    0.18381503783405578681E-02
    0.18403665553947234478E-02
    0.19160620464322049294E-02
    0.19247110256070071397E-02
    0.23350049152491138098E-02
    0.24086899060377234619E-02
    0.25993821441339217196E-02
    0.26353759782678002309E-02
    0.24670075296937847217E-02
    0.24680743509977180923E-02
    0.22933161245469761355E-02
    0.22303664043061481419E-02
    0.20885620068461694353E-02
    0.20681514893172974617E-02
    0.21838170705583939864E-02
    0.21816982557774592527E-02
    0.23074629786649638805E-02
    0.23228303299691849086E-02
    0.13453981302824771175E-02
    0.13309084971617252038E-02
    0.13482291351273221428E-02
    0.13356394695761318950E-02
    0.13056556412328838152E-02
    0.12858186838339083231E-02
    0.12622781299133955038E-02
    0.12728060469939042349E-02
    0.12594215303020003804E-02
    0.12723856296951877119E-02
    0.12983515394146931399E-02
    0.13223905771145541728E-02
    0.13044025684438688775E-02
    0.12969477419239911105E-02
    0.13716295973077402386E-02
    0.13643745562199386095E-02
    0.13916546944857648843E-02
    0.13826829971707878773E-02
    0.13465795809627378616E-02
    0.13297426018908681689E-02
    0.12986481016014753999E-02
    0.13029549512100504442E-02
    0.12812697899156264263E-02
    0.12903198843212649281E-02
    0.13208191912781439177E-02
    0.13406794457786310251E-02
    0.13349487125721651998E-02
    0.13297161416946034172E-02
    0.14753212385750660938E-02
    0.14563804099182848205E-02
    0.14792435183143151731E-02
    0.14625960898364336830E-02
    0.14230423529322452914E-02
    0.13966327650676935244E-02
    0.13658324443991086417E-02
    0.13800129393550951331E-02
    0.13626241197529456207E-02
    0.13796933801884948140E-02
    0.14137029033839121350E-02
    0.14451758827407699525E-02
    0.14215786340063785945E-02
    0.14117427780484706045E-02
    0.15103846103108611258E-02
    0.15004335130182958318E-02
    0.15368689494808383984E-02
    0.15241982587919145932E-02
    0.14755750535481431535E-02
    0.14518874165242183407E-02
    0.14109483373927864287E-02
    0.14178905894374185716E-02
    0.13898344519504808939E-02
    0.14023058101821157979E-02
    0.14426150350053700867E-02
    0.14692272277793622451E-02
    0.14609644695583519792E-02
    0.14536913819570367566E-02
    0.14337186060583138360E-02
    0.14327746208298690073E-02
    0.14714370256040329183E-02
    0.14652510166924155588E-02
    0.14208796837314574112E-02
    0.14058182366921828654E-02
    0.13655240081273040727E-02
    0.13641029683460429572E-02
    0.13330852212484606539E-02
    0.13388991801967808394E-02
    0.13757197843414570911E-02
    0.13929368513213144423E-02
    0.13985208362970445208E-02
    0.13950737114823334815E-02
    0.15342643513258659958E-02
    0.15394000333591045544E-02
    0.15919576927928937634E-02
    0.15883547954940518618E-02
    0.15327828279984119161E-02
    0.15188444015374680859E-02
    0.14665650175511508232E-02
    0.14592154431374271782E-02
    0.14170194778506234844E-02
    0.14200444274115858051E-02
    0.14654028094616591404E-02
    0.14812000641801759387E-02
    0.14981731237896467150E-02
    0.14962961752862074648E-02
    0.15931251217721400376E-02
    0.15902493572831661196E-02
    0.16425237100350818450E-02
    0.16320253268680498266E-02
    0.15706820295528756658E-02
    0.15474379591619961700E-02
    0.14937893043980162659E-02
    0.14945579097338788140E-02
    0.14542445025257514160E-02
    0.14633864442788709678E-02
    0.15131110148693320376E-02
    0.15376713628660536141E-02
    0.15427932526024203033E-02
    0.15372035481977493546E-02
    0.17263601513229443266E-02
    0.17292775312764603092E-02
    0.18004881812314639088E-02
    0.17911683460497341072E-02
    0.17130250859558719418E-02
    0.16887903009962922530E-02
    0.16187903739504250385E-02
    0.16134924756103557943E-02
    0.15585057587029012456E-02
    0.15652611496227361587E-02
    0.16278152372389896423E-02
    0.16528425453545092343E-02
    0.16703216726326347054E-02
    0.16658412435219900529E-02
    0.16464690094189597669E-02
    0.16219466811458842486E-02
    0.16531956167649540946E-02
    0.16314934119012762439E-02
    0.15784220195690574270E-02
    0.15435438663319071221E-02
    0.15025114765373466866E-02
    0.15209924576993184234E-02
    0.14979254146901101533E-02
    0.15202846664429715568E-02
    0.15650541550270909586E-02
    0.16064139123862100980E-02
    0.15757525533604077681E-02
    0.15629050454229109421E-02
    0.16978960117602860582E-02
    0.16855788762546273108E-02
    0.17373525153550851627E-02
    0.17201193068221082901E-02
    0.16521539855933653398E-02
    0.16192985570305513769E-02
    0.15632293170503670440E-02
    0.15727746131072100570E-02
    0.15347579022861317522E-02
    0.15513106409979606284E-02
    0.16057472874771048718E-02
    0.16410668673689482022E-02
    0.16313413665651492392E-02
    0.16216020300415278418E-02
    0.18751343572476401964E-02
    0.18436855156405333820E-02
    0.18883228844831247660E-02
    0.18604310913381508653E-02
    0.17871583081382408972E-02
    0.17410708826590235061E-02
    0.16844399958487533183E-02
    0.17080958259466942541E-02
    0.16764542703849860672E-02
    0.17059326269398505764E-02
    0.17659070838132071794E-02
    0.18209101798073435135E-02
    0.17812234856546943756E-02
    0.17644569028602966922E-02
    0.19575967641281663729E-02
    0.19445205350430132957E-02
    0.20230137048874402388E-02
    0.20006224735909178616E-02
    0.19011532882109443039E-02
    0.18555214179681600323E-02
    0.17744490641440657016E-02
    0.17860204403948593942E-02
    0.17312454414189128865E-02
    0.17527761612379233469E-02
    0.18288341865793187203E-02
    0.18755699790182175143E-02
    0.18674469078047886261E-02
    0.18548100376027324820E-02
    0.18193224991518838415E-02
    0.18151850282919497048E-02
    0.18912706596190460330E-02
    0.18746790450140794586E-02
    0.17852682794386716490E-02
    0.17497382981857224557E-02
    0.16744402297296243423E-02
    0.16773568043435451835E-02
    0.16217540192383823622E-02
    0.16350255511582958892E-02
    0.17048154135813284055E-02
    0.17395632399432325605E-02
    0.17465795659214126533E-02
    0.17381695198719418483E-02
    0.20137156946534351572E-02
    0.20140030632995308685E-02
    0.21185964161440379999E-02
    0.20993735894491126481E-02
    0.19818362827927660415E-02
    0.19398663834647297474E-02
    0.18403665563040106333E-02
    0.18381503793940534835E-02
    0.17617207677422992446E-02
    0.17738994176955580513E-02
    0.18650079958922724174E-02
    0.19044909047600197278E-02