# vtk DataFile Version 3.0
LAPLACIEN  2D
ASCII
DATASET UNSTRUCTURED_GRID
FIELD FieldData 1
TIME 1 1 double
18.3000
 POINTS        7297  float
   1.5625000000000000E-002  0.96875000000000000        0.0000000000000000     
   3.1250000000000000E-002  0.96875000000000000        0.0000000000000000     
   3.1250000000000000E-002  0.98437500000000000        0.0000000000000000     
   9.3749999999999997E-003  0.97812500000000002        0.0000000000000000     
   2.0312500000000001E-002  0.97968750000000004        0.0000000000000000     
   2.1874999999999999E-002  0.99062499999999998        0.0000000000000000     
   1.0937499999999999E-002  0.98906249999999996        0.0000000000000000     
   4.6875000000000000E-002  0.96875000000000000        0.0000000000000000     
   6.2500000000000000E-002  0.96875000000000000        0.0000000000000000     
   6.2500000000000000E-002  0.98437500000000000        0.0000000000000000     
   4.0625000000000001E-002  0.97812500000000002        0.0000000000000000     
   5.1562499999999997E-002  0.97968750000000004        0.0000000000000000     
   5.3124999999999999E-002  0.99062499999999998        0.0000000000000000     
   4.2187500000000003E-002  0.98906249999999996        0.0000000000000000     
   1.5625000000000000E-002  0.93750000000000000        0.0000000000000000     
   3.1250000000000000E-002  0.93750000000000000        0.0000000000000000     
   3.1250000000000000E-002  0.95312500000000000        0.0000000000000000     
   9.3749999999999997E-003  0.94687500000000002        0.0000000000000000     
   2.0312500000000001E-002  0.94843750000000004        0.0000000000000000     
   2.1874999999999999E-002  0.95937499999999998        0.0000000000000000     
   1.0937499999999999E-002  0.95781249999999996        0.0000000000000000     
   4.6875000000000000E-002  0.93750000000000000        0.0000000000000000     
   6.2500000000000000E-002  0.93750000000000000        0.0000000000000000     
   6.2500000000000000E-002  0.95312500000000000        0.0000000000000000     
   4.0625000000000001E-002  0.94687500000000002        0.0000000000000000     
   5.1562499999999997E-002  0.94843750000000004        0.0000000000000000     
   5.3124999999999999E-002  0.95937499999999998        0.0000000000000000     
   4.2187500000000003E-002  0.95781249999999996        0.0000000000000000     
   7.8125000000000000E-002  0.96875000000000000        0.0000000000000000     
   9.3750000000000000E-002  0.96875000000000000        0.0000000000000000     
   9.3750000000000000E-002  0.98437500000000000        0.0000000000000000     
   7.1874999999999994E-002  0.97812500000000002        0.0000000000000000     
   8.2812499999999997E-002  0.97968750000000004        0.0000000000000000     
   8.4375000000000006E-002  0.99062499999999998        0.0000000000000000     
   7.3437500000000003E-002  0.98906249999999996        0.0000000000000000     
  0.10937500000000000       0.96875000000000000        0.0000000000000000     
  0.12500000000000000       0.96875000000000000        0.0000000000000000     
  0.12500000000000000       0.98437500000000000        0.0000000000000000     
  0.10312499999999999       0.97812500000000002        0.0000000000000000     
  0.11406250000000000       0.97968750000000004        0.0000000000000000     
  0.11562500000000001       0.99062499999999998        0.0000000000000000     
  0.10468750000000000       0.98906249999999996        0.0000000000000000     
   7.8125000000000000E-002  0.93750000000000000        0.0000000000000000     
   9.3750000000000000E-002  0.93750000000000000        0.0000000000000000     
   9.3750000000000000E-002  0.95312500000000000        0.0000000000000000     
   7.1874999999999994E-002  0.94687500000000002        0.0000000000000000     
   8.2812499999999997E-002  0.94843750000000004        0.0000000000000000     
   8.4375000000000006E-002  0.95937499999999998        0.0000000000000000     
   7.3437500000000003E-002  0.95781249999999996        0.0000000000000000     
  0.10937500000000000       0.93750000000000000        0.0000000000000000     
  0.12500000000000000       0.93750000000000000        0.0000000000000000     
  0.12500000000000000       0.95312500000000000        0.0000000000000000     
  0.10312499999999999       0.94687500000000002        0.0000000000000000     
  0.11406250000000000       0.94843750000000004        0.0000000000000000     
  0.11562500000000001       0.95937499999999998        0.0000000000000000     
  0.10468750000000000       0.95781249999999996        0.0000000000000000     
   1.5625000000000000E-002  0.90625000000000000        0.0000000000000000     
   3.1250000000000000E-002  0.90625000000000000        0.0000000000000000     
   3.1250000000000000E-002  0.92187500000000000        0.0000000000000000     
   9.3749999999999997E-003  0.91562500000000002        0.0000000000000000     
   2.0312500000000001E-002  0.91718750000000004        0.0000000000000000     
   2.1874999999999999E-002  0.92812499999999998        0.0000000000000000     
   1.0937499999999999E-002  0.92656249999999996        0.0000000000000000     
   4.6875000000000000E-002  0.90625000000000000        0.0000000000000000     
   6.2500000000000000E-002  0.90625000000000000        0.0000000000000000     
   6.2500000000000000E-002  0.92187500000000000        0.0000000000000000     
   4.0625000000000001E-002  0.91562500000000002        0.0000000000000000     
   5.1562499999999997E-002  0.91718750000000004        0.0000000000000000     
   5.3124999999999999E-002  0.92812499999999998        0.0000000000000000     
   4.2187500000000003E-002  0.92656249999999996        0.0000000000000000     
   1.5625000000000000E-002  0.87500000000000000        0.0000000000000000     
   3.1250000000000000E-002  0.87500000000000000        0.0000000000000000     
   3.1250000000000000E-002  0.89062500000000000        0.0000000000000000     
   9.3749999999999997E-003  0.88437500000000002        0.0000000000000000     
   2.0312500000000001E-002  0.88593750000000004        0.0000000000000000     
   2.1874999999999999E-002  0.89687499999999998        0.0000000000000000     
   1.0937499999999999E-002  0.89531249999999996        0.0000000000000000     
   4.6875000000000000E-002  0.87500000000000000        0.0000000000000000     
   6.2500000000000000E-002  0.87500000000000000        0.0000000000000000     
   6.2500000000000000E-002  0.89062500000000000        0.0000000000000000     
   4.0625000000000001E-002  0.88437500000000002        0.0000000000000000     
   5.1562499999999997E-002  0.88593750000000004        0.0000000000000000     
   5.3124999999999999E-002  0.89687499999999998        0.0000000000000000     
   4.2187500000000003E-002  0.89531249999999996        0.0000000000000000     
   7.8125000000000000E-002  0.90625000000000000        0.0000000000000000     
   9.3750000000000000E-002  0.90625000000000000        0.0000000000000000     
   9.3750000000000000E-002  0.92187500000000000        0.0000000000000000     
   7.1874999999999994E-002  0.91562500000000002        0.0000000000000000     
   8.2812499999999997E-002  0.91718750000000004        0.0000000000000000     
   8.4375000000000006E-002  0.92812499999999998        0.0000000000000000     
   7.3437500000000003E-002  0.92656249999999996        0.0000000000000000     
  0.10937500000000000       0.90625000000000000        0.0000000000000000     
  0.12500000000000000       0.90625000000000000        0.0000000000000000     
  0.12500000000000000       0.92187500000000000        0.0000000000000000     
  0.10312499999999999       0.91562500000000002        0.0000000000000000     
  0.11406250000000000       0.91718750000000004        0.0000000000000000     
  0.11562500000000001       0.92812499999999998        0.0000000000000000     
  0.10468750000000000       0.92656249999999996        0.0000000000000000     
   7.8125000000000000E-002  0.87500000000000000        0.0000000000000000     
   9.3750000000000000E-002  0.87500000000000000        0.0000000000000000     
   9.3750000000000000E-002  0.89062500000000000        0.0000000000000000     
   7.1874999999999994E-002  0.88437500000000002        0.0000000000000000     
   8.2812499999999997E-002  0.88593750000000004        0.0000000000000000     
   8.4375000000000006E-002  0.89687499999999998        0.0000000000000000     
   7.3437500000000003E-002  0.89531249999999996        0.0000000000000000     
  0.10937500000000000       0.87500000000000000        0.0000000000000000     
  0.12500000000000000       0.87500000000000000        0.0000000000000000     
  0.12500000000000000       0.89062500000000000        0.0000000000000000     
  0.10312499999999999       0.88437500000000002        0.0000000000000000     
  0.11406250000000000       0.88593750000000004        0.0000000000000000     
  0.11562500000000001       0.89687499999999998        0.0000000000000000     
  0.10468750000000000       0.89531249999999996        0.0000000000000000     
  0.14062500000000000       0.96875000000000000        0.0000000000000000     
  0.15625000000000000       0.96875000000000000        0.0000000000000000     
  0.15625000000000000       0.98437500000000000        0.0000000000000000     
  0.13437499999999999       0.97812500000000002        0.0000000000000000     
  0.14531250000000001       0.97968750000000004        0.0000000000000000     
  0.14687500000000001       0.99062499999999998        0.0000000000000000     
  0.13593749999999999       0.98906249999999996        0.0000000000000000     
  0.17187500000000000       0.96875000000000000        0.0000000000000000     
  0.18750000000000000       0.96875000000000000        0.0000000000000000     
  0.18750000000000000       0.98437500000000000        0.0000000000000000     
  0.16562499999999999       0.97812500000000002        0.0000000000000000     
  0.17656250000000001       0.97968750000000004        0.0000000000000000     
[...]
 CELL_DATA       14336
 SCALARS Nutrient float
 LOOKUP_TABLE default
    0.12096575713391512566E-01
    0.12096493183726185136E-01
    0.12097146150782205759E-01
    0.12097146150617649890E-01
    0.12096493184384859640E-01
    0.12096575712829451751E-01
    0.12096058456727639893E-01
    0.12095751972642255004E-01
    0.12095420793922791181E-01
    0.12095420790150667942E-01
    0.12095751974582156368E-01
    0.12096058455916587279E-01
    0.12096010658613558578E-01
    0.12096010658001419766E-01
    0.12098724056577759775E-01
    0.12099296188953591324E-01
    0.12100848628955506586E-01
    0.12101278629839250234E-01
    0.12100114779991020045E-01
    0.12100672178514029764E-01
    0.12099452178317399165E-01
    0.12098437493075847593E-01
    0.12097365276104788887E-01
    0.12096982851432014350E-01
    0.12097649225070141593E-01
    0.12097567240712574915E-01
    0.12098613838217560715E-01
    0.12098842876266543978E-01
    0.12100672178608481988E-01
    0.12100114779883375249E-01
    0.12101278629875577078E-01
    0.12100848628909408045E-01
    0.12099296189110542166E-01
    0.12098724056374497021E-01
    0.12097567241112730518E-01
    0.12097649224673366966E-01
    0.12096982851939419232E-01
    0.12097365275614745117E-01
    0.12098437493321108002E-01
    0.12099452178221743043E-01
    0.12098842876384323028E-01
    0.12098613838155067302E-01
    0.12103552705428757136E-01
    0.12103802780864765520E-01
    0.12106229168531358609E-01
    0.12106229168516601316E-01
    0.12103802780911061820E-01
    0.12103552705378698220E-01
    0.12101401611028085245E-01
    0.12100788360698628426E-01
    0.12099188274227927128E-01
    0.12099188274031020401E-01
    0.12100788360820735612E-01
    0.12101401610942610215E-01
    0.12102108431065424984E-01
    0.12102108431030147648E-01
    0.12104461258485863309E-01
    0.12106006823752998858E-01
    0.12109033647279139959E-01
    0.12110160861405200663E-01
    0.12108158729829145844E-01
    0.12109513067749129792E-01
    0.12107122239744784464E-01
    0.12104903119213437923E-01
    0.12102607647646479450E-01
    0.12101637196840856273E-01
    0.12102862505917416289E-01
    0.12102273324587891484E-01
    0.12104949739649355916E-01
    0.12105559956510962560E-01
    0.12115932156471482736E-01
    0.12119045402508679329E-01
    0.12124391652889277352E-01
    0.12126564806070263755E-01
    0.12123190043455437867E-01
    0.12125693044947353019E-01
    0.12121467783014617040E-01
    0.12117449472594478063E-01
    0.12113271325340129944E-01
    0.12111372738153713957E-01
    0.12113519726728088841E-01
    0.12112101652862852438E-01
    0.12117368947654364592E-01
    0.12118551110726355144E-01
    0.12111072578045873824E-01
    0.12112280095056561155E-01
    0.12116534753764908114E-01
    0.12117101910411530799E-01
    0.12113319356486601519E-01
    0.12113535732395116704E-01
    0.12109805208912515287E-01
    0.12108157950698132665E-01
    0.12105105038506230875E-01
    0.12104644938701515297E-01
    0.12107201860445893082E-01
    0.12107487978348097091E-01
    0.12109827308055451031E-01
    0.12110119187237778152E-01
    0.12125308044621117137E-01
    0.12128084843246744046E-01
    0.12135406351129401220E-01
    0.12136920763767693882E-01
    0.12130867643615620907E-01
    0.12131832651656905900E-01
    0.12125538840366096097E-01
    0.12122225750291147281E-01
    0.12116843949846070258E-01
    0.12115625554289473353E-01
    0.12119674031603633324E-01
    0.12119446761967309426E-01
    0.12124409885035013212E-01
    0.12125190224490985796E-01
    0.12109513067783617829E-01
    0.12108158729825835992E-01
    0.12110160861426359086E-01
    0.12109033647282357871E-01
    0.12106006823793974761E-01
    0.12104461258445343638E-01
    0.12102273324675746555E-01
    0.12102862505854943692E-01
    0.12101637196927186521E-01
    0.12102607647585307896E-01
    0.12104903119263224487E-01
    0.12107122239749641690E-01
    0.12105559956541460734E-01
    0.12104949739652764648E-01
    0.12113535732417021057E-01
    0.12113319356485897221E-01
    0.12117101910428008937E-01
    0.12116534753771486185E-01
    0.12112280095076111489E-01
    0.12111072578031472149E-01
    0.12107487978377988111E-01
    0.12107201860414151112E-01
    0.12104644938754252625E-01
    0.12105105038472395093E-01
    0.12108157950729349014E-01
    0.12109805208906362223E-01
    0.12110119187256023973E-01
    0.12109827308056000938E-01
    0.12125693045005431561E-01
    0.12123190043498949936E-01
    0.12126564806121332279E-01
    0.12124391652930751120E-01
    0.12119045402548557153E-01
    0.12115932156486005841E-01
    0.12112101652894379303E-01
    0.12113519726741728971E-01
    0.12111372738187159426E-01
    0.12113271325358367092E-01
    0.12117449472639830674E-01
    0.12121467783065895465E-01
    0.12118551110767617277E-01
    0.12117368947686385852E-01
    0.12131832651709726495E-01
    0.12130867643659684618E-01
    0.12136920763824698630E-01
    0.12135406351179038598E-01
    0.12128084843285891550E-01
    0.12125308044640535632E-01
    0.12119446761989494804E-01
    0.12119674031617077431E-01
    0.12115625554317931492E-01
    0.12116843949862531049E-01
    0.12122225750328948640E-01
    0.12125538840405365032E-01
    0.12125190224529291960E-01
    0.12124409885066838449E-01
    0.12124013613437786135E-01
    0.12124951823345315668E-01
    0.12131260423746447266E-01
    0.12131260423742018517E-01
    0.12124951823345567203E-01
    0.12124013613424258762E-01
    0.12118263042887640266E-01
    0.12116930372936332572E-01
    0.12112516485506591782E-01
    0.12112516485492243884E-01
    0.12116930372951022210E-01
    0.12118263042891586762E-01
    0.12120576159860911927E-01
    0.12120576159856828388E-01
    0.12143505345219091779E-01
    0.12146281930676801342E-01
    0.12156900485470658463E-01
    0.12157889831292288327E-01
    0.12148004686456432069E-01
    0.12147478567392516399E-01
    0.12137959074655108732E-01
    0.12134883960751855630E-01
    0.12127351651567093438E-01
    0.12126679701078843868E-01
    0.12133403711594244537E-01
    0.12134421047098054025E-01
    0.12139845634846921363E-01
    0.12140314640060928877E-01
    0.12147478567454274290E-01
    0.12148004686506973238E-01
    0.12157889831352764257E-01
    0.12156900485518297439E-01
    0.12146281930711357033E-01
    0.12143505345235502263E-01
    0.12134421047106129163E-01
    0.12133403711609286324E-01
    0.12126679701099181766E-01
    0.12127351651586779080E-01
    0.12134883960792612959E-01
    0.12137959074708290150E-01
    0.12140314640099778010E-01
    0.12139845634878573127E-01
    0.12175976425828896263E-01
    0.12178612662976446429E-01
    0.12194620412987787830E-01
    0.12194620412976276205E-01
    0.12178612662957650700E-01
    0.12175976425783781310E-01
    0.12161431442183326737E-01
    0.12158302247997647763E-01
    0.12147204872859026364E-01
    0.12147204872866353836E-01
    0.12158302248018563324E-01
    0.12161431442230233660E-01
    0.12167583946619571836E-01
    0.12167583946613590509E-01
    0.12136516941355434546E-01
    0.12142113755466121469E-01
    0.12151374546996680098E-01
    0.12155264566039084353E-01
    0.12149501506998169192E-01
    0.12153919366878365368E-01
    0.12146627546448433496E-01
    0.12139605278627434853E-01
    0.12132334652499611460E-01
    0.12128971905048151550E-01
    0.12132631641905264677E-01
    0.12129992609644065296E-01
    0.12139340807650110185E-01
    0.12141443554306113189E-01
    0.12172557473021816676E-01
    0.12182338148957524288E-01
    0.12198451479119258936E-01
    0.12205163259729276057E-01
    0.12195101783232421486E-01
    0.12202617884870288825E-01
    0.12190070015610097315E-01
    0.12177984876200141293E-01
    0.12165415202639849948E-01
    0.12159597357186921820E-01
    0.12165899668561049388E-01
    0.12161249658799829637E-01
    0.12177537017891169879E-01
    0.12181177250952659324E-01
    0.12150932930782513269E-01
    0.12156372228665963259E-01
    0.12169078819979056716E-01
    0.12172196847130787103E-01
    0.12162021392930474906E-01
    0.12164104577271350749E-01
    0.12153255196193873608E-01
    0.12147247665492197713E-01
    0.12137935869477376252E-01
    0.12135542520394598104E-01
    0.12142163300702077042E-01
    0.12141114133052943388E-01
    0.12150488365027571624E-01
    0.12152059521219343505E-01
    0.12196536161086778474E-01
    0.12206579880054206980E-01
    0.12228896420924378202E-01
    0.12234640930005862003E-01
    0.12216908373209834845E-01
    0.12220631020483903664E-01
    0.12201731329684049540E-01
    0.12191166042878854789E-01
    0.12174960121883097661E-01
    0.12170628263692294738E-01
    0.12181930114136957366E-01
    0.12179632558536660630E-01
    0.12196549028629728034E-01
    0.12199412579336951432E-01
    0.12235121266743654786E-01
    0.12251746387308011174E-01
    0.12279466309703930202E-01
    0.12290493515283922726E-01
    0.12272951835691461170E-01
    0.12285226104918877191E-01
    0.12264007250618822950E-01
    0.12243646779457977719E-01
    0.12222270407522177818E-01
    0.12212362394896461928E-01
    0.12223296876102102138E-01
    0.12215488305336237237E-01
    0.12243202528784406791E-01
    0.12249288210612654590E-01
    0.12341942658467067173E-01
    0.12368986870043084669E-01
    0.12415886176518640960E-01
    0.12432897387793157007E-01
    0.12402491023377319040E-01
    0.12421435299714317368E-01
    0.12386588559129678780E-01
    0.12353362786075570631E-01
    0.12317858565958295092E-01
    0.12301531674940701516E-01
    0.12320354472322440215E-01
    0.12307965046493811109E-01
    0.12353623222766712403E-01
    0.12363363821595587180E-01
    0.12277625705051182711E-01
    0.12295394085858935701E-01
    0.12334958100983317228E-01
    0.12344719066951300931E-01
    0.12312926348123936007E-01
    0.12318522630796014533E-01
    0.12285479141811323292E-01
    0.12267610994148220316E-01
    0.12239407692584065510E-01
    0.12231999661144344477E-01
    0.12251854098228581041E-01
    0.12247794731684556041E-01
    0.12277510270417308497E-01
    0.12282385597844386674E-01
    0.12421052174336954729E-01
    0.12451024782836554033E-01
    0.12520909027880991124E-01
    0.12535836107470258241E-01
    0.12478217699294323617E-01
    0.12484665479074636557E-01
    0.12427250280381101077E-01
    0.12398520611432343672E-01
    0.12349943841328307748E-01
    0.12338042130524095458E-01
    0.12373593450457708032E-01
    0.12367768301238016640E-01
    0.12418066259100390622E-01
    0.12425698811963876989E-01
    0.12178349507208445154E-01
    0.12184368807083277922E-01
    0.12202529749275152493E-01
    0.12205319898955230631E-01
    0.12189123042086611598E-01
    0.12189337576372909211E-01
    0.12173118926183307265E-01
    0.12167005384227561060E-01
    0.12154048349024112324E-01
    0.12152248597356083912E-01
    0.12163017350635020944E-01
    0.12163523317296124140E-01
    0.12174315613137743491E-01
    0.12175593562125074099E-01
    0.12240517494281965422E-01
    0.12252561365970700280E-01
    0.12284565679571139707E-01
    0.12290726727192341147E-01
    0.12262862828814113936E-01
    0.12264210908533076244E-01
    0.12235775008009666664E-01
    0.12224373298360138862E-01
    0.12201629572854014519E-01
    0.12197855501171035730E-01
    0.12215900584428351222E-01
    0.12215395621515757682E-01
    0.12236006215515881843E-01
    0.12238754331661326133E-01
    0.12225377470229227897E-01
    0.12232050898354503154E-01
    0.12258568183808707039E-01
    0.12260752029192623774E-01
    0.12235628278655577908E-01
    0.12233580254564110218E-01
    0.12209440403983251588E-01
    0.12202525742265386832E-01
    0.12183799925039489817E-01
    0.12182542407350324676E-01
    0.12199653184158221197E-01
    0.12202531491325356236E-01
    0.12215639929272222031E-01
    0.12216583651631808885E-01
    0.12311930348388852932E-01
    0.12326777247639553528E-01
    0.12372495401467000983E-01
    0.12379547542879400582E-01
    0.12338044787073126560E-01
    0.12337625808801062216E-01
    0.12295788356521243287E-01
    0.12281613223803696314E-01
    0.12249037427325110139E-01
    0.12245312799707884499E-01
    0.12272877205085639188E-01
    0.12274726841071514211E-01
    0.12301108081516812232E-01
    0.12304035815960772532E-01
    0.12353242378621122691E-01
    0.12376274555682572481E-01
    0.12434055327374880090E-01
    0.12445932541201560825E-01
    0.12395892563862030353E-01
    0.12398310605163219075E-01
    0.12347392088839899416E-01
    0.12327028579598806740E-01
    0.12286538508790108629E-01
    0.12279474853520383135E-01
    0.12311048997310142239E-01
    0.12308975217570695612E-01
    0.12347233768170014570E-01
    0.12352444575995142825E-01
    0.12559588957548757301E-01
    0.12601629120910295273E-01
    0.12707321803601078630E-01
    0.12727695484379060106E-01
    0.12635115523738586069E-01
    0.12636399017634615538E-01
    0.12544412907253464640E-01
    0.12509979889922582738E-01
    0.12437546020104954872E-01
    0.12425572652398507792E-01
    0.12482818665707691788E-01
    0.12479172662551510364E-01
    0.12548137520452909074E-01
    0.12557018273241961695E-01
    0.12469024015356164684E-01
    0.12500405575399033131E-01
    0.12583029441616103844E-01
    0.12599744003833330749E-01
    0.12526823771004485381E-01
    0.12529104895029376243E-01
    0.12453669674759807601E-01
    0.12426119299470829438E-01
    0.12367510777268204622E-01
    0.12359070009228808468E-01
    0.12405981786797764047E-01
    0.12405116951724042343E-01
    0.12457571444807826605E-01
    0.12464389175844768631E-01
    0.12763268301305525157E-01
    0.12826151123329312953E-01
    0.12980452716263825991E-01
    0.13014325665962243883E-01
    0.12879181281335820922E-01
    0.12883542779030724909E-01
    0.12743925130664131989E-01
    0.12693045573434444048E-01
    0.12585313165635117483E-01
    0.12568760217006985300E-01
    0.12653156904582510064E-01
    0.12647645614008303297E-01
    0.12749203992136531535E-01
    0.12762815982615572513E-01
    0.12153919367017764278E-01
    0.12149501507118859109E-01
    0.12155264566171150586E-01
    0.12151374547113328109E-01
    0.12142113755562088107E-01
    0.12136516941427130667E-01
    0.12129992609702947015E-01
    0.12132631641974688311E-01
    0.12128971905115561170E-01
    0.12132334652575313058E-01
    0.12139605278730602328E-01
    0.12146627546578926335E-01
    0.12141443554407195526E-01
    0.12139340807741982875E-01
    0.12164104577413223374E-01
    0.12162021393064008715E-01
    0.12172196847290251559E-01
    0.12169078820127923746E-01
    0.12156372228779769792E-01
    0.12150932930869638021E-01
    0.12141114133117527144E-01
    0.12142163300776290247E-01
    0.12135542520460170651E-01
    0.12137935869550848730E-01
    0.12147247665592794327E-01
    0.12153255196312297975E-01
    0.12152059521327966685E-01
    0.12150488365128907231E-01
    0.12202617885179707982E-01
    0.12195101783508591198E-01
    0.12205163260030892428E-01
    0.12198451479392417168E-01
    0.12182338149183012319E-01
    0.12172557473205579404E-01
    0.12161249658946386015E-01
    0.12165899668734887762E-01
    0.12159597357347144350E-01
    0.12165415202823192872E-01
    0.12177984876433267311E-01
    0.12190070015898991224E-01
    0.12181177251185800955E-01
    0.12177537018107786534E-01
    0.12220631020815352075E-01
    0.12216908373530550522E-01
    0.12234640930383688245E-01
    0.12228896421285297830E-01
    0.12206579880336066585E-01
    0.12196536161320877673E-01
    0.12179632558713793244E-01
    0.12181930114335166870E-01
    0.12170628263860240256E-01
    0.12174960122071224952E-01
    0.12191166043121485357E-01
    0.12201731329964561265E-01
    0.12199412579601432577E-01
    0.12196549028881840601E-01
    0.12189337576558550644E-01
    0.12189123042258673615E-01
    0.12205319899158026745E-01
    0.12202529749457412950E-01
    0.12184368807222208456E-01
    0.12178349507315085545E-01
    0.12163523317367901794E-01
    0.12163017350725779941E-01
    0.12152248597434012894E-01
    0.12154048349114236413E-01
    0.12167005384356168254E-01
    0.12173118926343188054E-01
    0.12175593562261794595E-01
    0.12174315613263786764E-01
    0.12233580254774924223E-01
    0.12235628278827405738E-01
    0.12260752029381465772E-01
    0.12258568183955572198E-01
    0.12232050898459566682E-01
    0.12225377470281942674E-01
    0.12202531491349059498E-01
    0.12199653184225559693E-01
    0.12182542407417928584E-01
    0.12183799925137404549E-01
    0.12202525742402478559E-01
    0.12209440404172051953E-01
    0.12216583651761205379E-01
    0.12215639929381136644E-01
    0.12264210908986734189E-01
    0.12262862829249184318E-01
    0.12290726727707920046E-01
    0.12284565680048662242E-01
    0.12252561366347541200E-01
    0.12240517494597639991E-01
    0.12215395621746954688E-01
    0.12215900584690840905E-01
    0.12197855501390703764E-01
    0.12201629573098780532E-01
    0.12224373298686544431E-01
    0.12235775008396006930E-01
    0.12238754332017339962E-01
    0.12236006215853431275E-01
    0.12337625809379550862E-01
    0.12338044787597866533E-01
    0.12379547543473231122E-01
    0.12372495401996551345E-01
    0.12326777248048474689E-01
    0.12311930348702536039E-01
    0.12274726841293224014E-01
    0.12272877205376259147E-01
    0.12245312799966214315E-01
    0.12249037427637629247E-01
    0.12281613224211078775E-01
    0.12295788357025796284E-01
    0.12304035816381658081E-01
    0.12301108081903676383E-01
    0.12285226105558535656E-01
    0.12272951836272770476E-01
    0.12290493515917733439E-01
    0.12279466310289675196E-01
    0.12251746387793836096E-01
    0.12235121267153639332E-01
    0.12215488305667375132E-01
    0.12223296876484057022E-01
    0.12212362395246582902E-01
    0.12222270407918206514E-01
    0.12243646779948257411E-01
    0.12264007251214383010E-01
    0.12249288211107614566E-01
    0.12243202529249205129E-01
    0.12318522631507554735E-01
    0.12312926348819001540E-01
    0.12344719067771363699E-01
    0.12334958101769896363E-01
    0.12295394086485613230E-01
    0.12277625705589026786E-01
    0.12247794732101937448E-01
    0.12251854098680852942E-01
    0.12231999661528034085E-01
    0.12239407693004451458E-01
    0.12267610994678929473E-01
    0.12285479142413131826E-01
    0.12282385598425800063E-01
    0.12277510270976668347E-01
    0.12421435300961392728E-01
    0.12402491024535477679E-01
    0.12432897389073613650E-01
    0.12415886177704792831E-01
    0.12368986871031851030E-01
    0.12341942659315941963E-01
    0.12307965047188850621E-01
    0.12320354473105622761E-01
    0.12301531675657652320E-01
    0.12317858566759666214E-01
    0.12353362787049985624E-01
    0.12386588560290777775E-01
    0.12363363822588487387E-01
    0.12353623223706257719E-01
    0.12484665480499104739E-01
    0.12478217700716911359E-01
    0.12535836109158133775E-01
    0.12520909029507811330E-01
    0.12451024784140582100E-01
    0.12421052175481563443E-01
    0.12367768302134327443E-01
    0.12373593451412055744E-01
    0.12338042131331959650E-01
    0.12349943842204655353E-01
    0.12398520612521750014E-01
    0.12427250281599263801E-01
    0.12425698813163035816E-01
    0.12418066260262206058E-01
    0.12398310606157567776E-01
    0.12395892564837448016E-01
    0.12445932542353847425E-01
    0.12434055328469337948E-01
    0.12376274556555769829E-01
    0.12353242379383211000E-01
    0.12308975218145288069E-01
    0.12311048997934672181E-01
    0.12279474854040919873E-01
    0.12286538509357134222E-01
    0.12327028580332579158E-01
    0.12347392089686121813E-01
    0.12352444576804368775E-01
    0.12347233768948126520E-01
    0.12529104896379292949E-01
    0.12526823772273699281E-01
    0.12599744005298257887E-01
    0.12583029442962082728E-01
    0.12500405576472597979E-01
    0.12469024016248842976E-01
    0.12405116952401344307E-01
    0.12405981787578812883E-01
    0.12359070009908754151E-01
    0.12367510778037707139E-01
    0.12426119300452313429E-01
    0.12453669675916347742E-01