# vtk DataFile Version 3.0
LAPLACIEN  2D
ASCII
DATASET UNSTRUCTURED_GRID
FIELD FieldData 1
TIME 1 1 double
6.2000
 POINTS        7297  float
   1.5625000000000000E-002  0.96875000000000000        0.0000000000000000     
   3.1250000000000000E-002  0.96875000000000000        0.0000000000000000     
   3.1250000000000000E-002  0.98437500000000000        0.0000000000000000     
   9.3749999999999997E-003  0.97812500000000002        0.0000000000000000     
   2.0312500000000001E-002  0.97968750000000004        0.0000000000000000     
   2.1874999999999999E-002  0.99062499999999998        0.0000000000000000     
   1.0937499999999999E-002  0.98906249999999996        0.0000000000000000     
   4.6875000000000000E-002  0.96875000000000000        0.0000000000000000     
   6.2500000000000000E-002  0.96875000000000000        0.0000000000000000     
   6.2500000000000000E-002  0.98437500000000000        0.0000000000000000     
   4.0625000000000001E-002  0.97812500000000002        0.0000000000000000     
   5.1562499999999997E-002  0.97968750000000004        0.0000000000000000     
   5.3124999999999999E-002  0.99062499999999998        0.0000000000000000     
   4.2187500000000003E-002  0.98906249999999996        0.0000000000000000     
   1.5625000000000000E-002  0.93750000000000000        0.0000000000000000     
   3.1250000000000000E-002  0.93750000000000000        0.0000000000000000     
   3.1250000000000000E-002  0.95312500000000000        0.0000000000000000     
   9.3749999999999997E-003  0.94687500000000002        0.0000000000000000     
   2.0312500000000001E-002  0.94843750000000004        0.0000000000000000     
   2.1874999999999999E-002  0.95937499999999998        0.0000000000000000     
   1.0937499999999999E-002  0.95781249999999996        0.0000000000000000     
   4.6875000000000000E-002  0.93750000000000000        0.0000000000000000     
   6.2500000000000000E-002  0.93750000000000000        0.0000000000000000     
   6.2500000000000000E-002  0.95312500000000000        0.0000000000000000     
   4.0625000000000001E-002  0.94687500000000002        0.0000000000000000     
   5.1562499999999997E-002  0.94843750000000004        0.0000000000000000     
   5.3124999999999999E-002  0.95937499999999998        0.0000000000000000     
   4.2187500000000003E-002  0.95781249999999996        0.0000000000000000     
   7.8125000000000000E-002  0.96875000000000000        0.0000000000000000     
   9.3750000000000000E-002  0.96875000000000000        0.0000000000000000     
   9.3750000000000000E-002  0.98437500000000000        0.0000000000000000     
   7.1874999999999994E-002  0.97812500000000002        0.0000000000000000     
   8.2812499999999997E-002  0.97968750000000004        0.0000000000000000     
   8.4375000000000006E-002  0.99062499999999998        0.0000000000000000     
   7.3437500000000003E-002  0.98906249999999996        0.0000000000000000     
  0.10937500000000000       0.96875000000000000        0.0000000000000000     
  0.12500000000000000       0.96875000000000000        0.0000000000000000     
  0.12500000000000000       0.98437500000000000        0.0000000000000000     
  0.10312499999999999       0.97812500000000002        0.0000000000000000     
  0.11406250000000000       0.97968750000000004        0.0000000000000000     
  0.11562500000000001       0.99062499999999998        0.0000000000000000     
  0.10468750000000000       0.98906249999999996        0.0000000000000000     
   7.8125000000000000E-002  0.93750000000000000        0.0000000000000000     
   9.3750000000000000E-002  0.93750000000000000        0.0000000000000000     
   9.3750000000000000E-002  0.95312500000000000        0.0000000000000000     
   7.1874999999999994E-002  0.94687500000000002        0.0000000000000000     
   8.2812499999999997E-002  0.94843750000000004        0.0000000000000000     
   8.4375000000000006E-002  0.95937499999999998        0.0000000000000000     
   7.3437500000000003E-002  0.95781249999999996        0.0000000000000000     
  0.10937500000000000       0.93750000000000000        0.0000000000000000     
  0.12500000000000000       0.93750000000000000        0.0000000000000000     
  0.12500000000000000       0.95312500000000000        0.0000000000000000     
  0.10312499999999999       0.94687500000000002        0.0000000000000000     
  0.11406250000000000       0.94843750000000004        0.0000000000000000     
  0.11562500000000001       0.95937499999999998        0.0000000000000000     
  0.10468750000000000       0.95781249999999996        0.0000000000000000     
   1.5625000000000000E-002  0.90625000000000000        0.0000000000000000     
   3.1250000000000000E-002  0.90625000000000000        0.0000000000000000     
   3.1250000000000000E-002  0.92187500000000000        0.0000000000000000     
   9.3749999999999997E-003  0.91562500000000002        0.0000000000000000     
   2.0312500000000001E-002  0.91718750000000004        0.0000000000000000     
   2.1874999999999999E-002  0.92812499999999998        0.0000000000000000     
   1.0937499999999999E-002  0.92656249999999996        0.0000000000000000     
   4.6875000000000000E-002  0.90625000000000000        0.0000000000000000     
   6.2500000000000000E-002  0.90625000000000000        0.0000000000000000     
   6.2500000000000000E-002  0.92187500000000000        0.0000000000000000     
   4.0625000000000001E-002  0.91562500000000002        0.0000000000000000     
   5.1562499999999997E-002  0.91718750000000004        0.0000000000000000     
   5.3124999999999999E-002  0.92812499999999998        0.0000000000000000     
   4.2187500000000003E-002  0.92656249999999996        0.0000000000000000     
   1.5625000000000000E-002  0.87500000000000000        0.0000000000000000     
   3.1250000000000000E-002  0.87500000000000000        0.0000000000000000     
   3.1250000000000000E-002  0.89062500000000000        0.0000000000000000     
   9.3749999999999997E-003  0.88437500000000002        0.0000000000000000     
   2.0312500000000001E-002  0.88593750000000004        0.0000000000000000     
   2.1874999999999999E-002  0.89687499999999998        0.0000000000000000     
   1.0937499999999999E-002  0.89531249999999996        0.0000000000000000     
   4.6875000000000000E-002  0.87500000000000000        0.0000000000000000     
   6.2500000000000000E-002  0.87500000000000000        0.0000000000000000     
   6.2500000000000000E-002  0.89062500000000000        0.0000000000000000     
   4.0625000000000001E-002  0.88437500000000002        0.0000000000000000     
   5.1562499999999997E-002  0.88593750000000004        0.0000000000000000     
   5.3124999999999999E-002  0.89687499999999998        0.0000000000000000     
   4.2187500000000003E-002  0.89531249999999996        0.0000000000000000     
   7.8125000000000000E-002  0.90625000000000000        0.0000000000000000     
   9.3750000000000000E-002  0.90625000000000000        0.0000000000000000     
   9.3750000000000000E-002  0.92187500000000000        0.0000000000000000     
   7.1874999999999994E-002  0.91562500000000002        0.0000000000000000     
   8.2812499999999997E-002  0.91718750000000004        0.0000000000000000     
   8.4375000000000006E-002  0.92812499999999998        0.0000000000000000     
   7.3437500000000003E-002  0.92656249999999996        0.0000000000000000     
  0.10937500000000000       0.90625000000000000        0.0000000000000000     
  0.12500000000000000       0.90625000000000000        0.0000000000000000     
  0.12500000000000000       0.92187500000000000        0.0000000000000000     
  0.10312499999999999       0.91562500000000002        0.0000000000000000     
  0.11406250000000000       0.91718750000000004        0.0000000000000000     
  0.11562500000000001       0.92812499999999998        0.0000000000000000     
  0.10468750000000000       0.92656249999999996        0.0000000000000000     
   7.8125000000000000E-002  0.87500000000000000        0.0000000000000000     
   9.3750000000000000E-002  0.87500000000000000        0.0000000000000000     
   9.3750000000000000E-002  0.89062500000000000        0.0000000000000000     
   7.1874999999999994E-002  0.88437500000000002        0.0000000000000000     
   8.2812499999999997E-002  0.88593750000000004        0.0000000000000000     
   8.4375000000000006E-002  0.89687499999999998        0.0000000000000000     
   7.3437500000000003E-002  0.89531249999999996        0.0000000000000000     
  0.10937500000000000       0.87500000000000000        0.0000000000000000     
  0.12500000000000000       0.87500000000000000        0.0000000000000000     
  0.12500000000000000       0.89062500000000000        0.0000000000000000     
  0.10312499999999999       0.88437500000000002        0.0000000000000000     
  0.11406250000000000       0.88593750000000004        0.0000000000000000     
  0.11562500000000001       0.89687499999999998        0.0000000000000000     
  0.10468750000000000       0.89531249999999996        0.0000000000000000     
  0.14062500000000000       0.96875000000000000        0.0000000000000000     
  0.15625000000000000       0.96875000000000000        0.0000000000000000     
  0.15625000000000000       0.98437500000000000        0.0000000000000000     
  0.13437499999999999       0.97812500000000002        0.0000000000000000     
  0.14531250000000001       0.97968750000000004        0.0000000000000000     
  0.14687500000000001       0.99062499999999998        0.0000000000000000     
  0.13593749999999999       0.98906249999999996        0.0000000000000000     
  0.17187500000000000       0.96875000000000000        0.0000000000000000     
  0.18750000000000000       0.96875000000000000        0.0000000000000000     
  0.18750000000000000       0.98437500000000000        0.0000000000000000     
  0.16562499999999999       0.97812500000000002        0.0000000000000000     
  0.17656250000000001       0.97968750000000004        0.0000000000000000     
[...]
 CELL_DATA       14336
 SCALARS Nutrient float
 LOOKUP_TABLE default
    0.37353580549610758757E-02
    0.37352715043446269028E-02
    0.37359237246853992977E-02
    0.37359237246361214416E-02
    0.37352715045390195818E-02
    0.37353580547886166066E-02
    0.37348388869070606871E-02
    0.37345338705870663627E-02
    0.37342041075034558724E-02
    0.37342041063813933600E-02
    0.37345338711659396835E-02
    0.37348388866698463591E-02
    0.37347913308334200130E-02
    0.37347913306506291646E-02
    0.37374954114633754908E-02
    0.37380650634077855834E-02
    0.37396127071384903558E-02
    0.37400401267647267849E-02
    0.37388803321969739032E-02
    0.37394377593380429339E-02
    0.37382207599687663005E-02
    0.37372091255530232902E-02
    0.37361428788197058315E-02
    0.37357565791487049207E-02
    0.37364255347732567430E-02
    0.37363417511828982305E-02
    0.37373837795938781060E-02
    0.37376146187362703326E-02
    0.37394377593781792310E-02
    0.37388803321742919601E-02
    0.37400401267837532319E-02
    0.37396127071306411657E-02
    0.37380650634594551895E-02
    0.37374954114050267656E-02
    0.37363417513041770855E-02
    0.37364255346598934313E-02
    0.37357565793029955635E-02
    0.37361428786806009580E-02
    0.37372091256344204188E-02
    0.37382207599532327191E-02
    0.37376146187791479264E-02
    0.37373837795809604877E-02
    0.37423065761219456542E-02
    0.37425554183668414444E-02
    0.37449733646220256800E-02
    0.37449733646168137033E-02
    0.37425554183782715374E-02
    0.37423065761011168294E-02
    0.37401624839740028015E-02
    0.37395518259598450363E-02
    0.37379571438581255839E-02
    0.37379571438002044681E-02
    0.37395518259984599808E-02
    0.37401624839539368214E-02
    0.37408667801958916423E-02
    0.37408667801848679083E-02
    0.37432118696679637058E-02
    0.37447516648813124890E-02
    0.37477680851419775156E-02
    0.37488912249947817755E-02
    0.37468956761858560923E-02
    0.37482460999436668404E-02
    0.37458632524355224558E-02
    0.37436516930004796674E-02
    0.37413652763562841794E-02
    0.37403965873329609107E-02
    0.37416189978298022324E-02
    0.37410319095278294840E-02
    0.37436978578490247120E-02
    0.37443066446320684079E-02
    0.37546428545245889852E-02
    0.37577454216950133790E-02
    0.37630738304156958682E-02
    0.37652392857135288766E-02
    0.37618755298190497717E-02
    0.37643703888942331784E-02
    0.37601593012390856566E-02
    0.37561545524614709315E-02
    0.37519908071806853250E-02
    0.37500988046591473592E-02
    0.37522383051760551873E-02
    0.37508254713059172025E-02
    0.37560743805726977927E-02
    0.37572523537632799423E-02
    0.37498001121982430656E-02
    0.37510031418584296667E-02
    0.37552433393235914831E-02
    0.37558085350818193673E-02
    0.37520388217286925435E-02
    0.37522547701652419171E-02
    0.37485367357768368222E-02
    0.37468953868896575504E-02
    0.37438528900638821766E-02
    0.37433952206362757983E-02
    0.37459425420173285241E-02
    0.37462279100782388749E-02
    0.37485588665344734410E-02
    0.37488493422605617504E-02
    0.37639871703136055549E-02
    0.37667543279394340508E-02
    0.37740522287574612866E-02
    0.37755612221256691814E-02
    0.37695279292215343007E-02
    0.37704902152939138125E-02
    0.37642169820601544677E-02
    0.37609150882249348276E-02
    0.37555512765755309085E-02
    0.37543376252362576848E-02
    0.37583717516945125588E-02
    0.37581454408154688247E-02
    0.37630916196115713444E-02
    0.37638690965876818451E-02
    0.37482460999820272143E-02
    0.37468956762079560358E-02
    0.37488912250243111059E-02
    0.37477680851627590691E-02
    0.37447516649096379213E-02
    0.37432118696671449164E-02
    0.37410319095630235539E-02
    0.37416189978246375269E-02
    0.37403965873739324771E-02
    0.37413652763542471803E-02
    0.37436516930362509666E-02
    0.37458632524638938582E-02
    0.37443066446602711085E-02
    0.37436978578677736033E-02
    0.37522547701921427077E-02
    0.37520388217450527206E-02
    0.37558085351041101303E-02
    0.37552433393397309166E-02
    0.37510031418737789337E-02
    0.37498001121973050138E-02
    0.37462279100884832844E-02
    0.37459425420146041409E-02
    0.37433952206594616786E-02
    0.37438528900644225429E-02
    0.37468953869126834025E-02
    0.37485367357933934568E-02
    0.37488493422786492784E-02
    0.37485588665451788533E-02
    0.37643703889752356574E-02
    0.37618755298875435934E-02
    0.37652392857869683949E-02
    0.37630738304797644103E-02
    0.37577454217491944310E-02
    0.37546428545612953002E-02
    0.37508254713413151024E-02
    0.37522383052141015762E-02
    0.37500988047001614263E-02
    0.37519908072238608576E-02
    0.37561545525224976361E-02
    0.37601593013148848325E-02
    0.37572523538223949816E-02
    0.37560743806245057430E-02
    0.37704902153678303799E-02
    0.37695279292868999824E-02
    0.37755612222010901877E-02
    0.37740522288248019508E-02
    0.37667543279907393650E-02
    0.37639871703469014036E-02
    0.37581454408422230312E-02
    0.37583717517267931606E-02
    0.37543376252702743111E-02
    0.37555512766120797974E-02
    0.37609150882773503648E-02
    0.37642169821225407618E-02
    0.37638690966410419392E-02
    0.37630916196593105008E-02
    0.37626972953668609209E-02
    0.37636320779955451804E-02
    0.37699202129068609332E-02
    0.37699202129023784077E-02
    0.37636320779902364929E-02
    0.37626972953505180911E-02
    0.37569658560469591443E-02
    0.37556377276993834283E-02
    0.37512391274965631825E-02
    0.37512391274942841896E-02
    0.37556377277092401271E-02
    0.37569658560618886083E-02
    0.37592709363609469984E-02
    0.37592709363581267717E-02
    0.37821250400938409043E-02
    0.37848925816507824303E-02
    0.37954772768686549644E-02
    0.37964631137871163689E-02
    0.37866096549676797264E-02
    0.37860852787018348456E-02
    0.37765961482456619595E-02
    0.37735314160167198784E-02
    0.37660239382522500522E-02
    0.37653546085934961815E-02
    0.37720563253648225176E-02
    0.37730703851471905121E-02
    0.37784770340590400142E-02
    0.37789442415555162674E-02
    0.37860852787795430847E-02
    0.37866096550321142952E-02
    0.37964631138589213441E-02
    0.37954772769259173190E-02
    0.37848925816912964634E-02
    0.37821250401142247725E-02
    0.37730703851562010995E-02
    0.37720563253885552694E-02
    0.37653546086178326172E-02
    0.37660239382846794065E-02
    0.37735314160675381689E-02
    0.37765961483157764467E-02
    0.37789442416041080404E-02
    0.37784770340998381083E-02
    0.38144926515251997325E-02
    0.38171198501601340258E-02
    0.38330785273285998029E-02
    0.38330785273159423930E-02
    0.38171198501374295313E-02
    0.38144926514724645725E-02
    0.37999932816401744973E-02
    0.37968737307020761912E-02
    0.37858122736573580035E-02
    0.37858122736674471552E-02
    0.37968737307253531445E-02
    0.37999932816950498723E-02
    0.38061255982762185433E-02
    0.38061255982694826121E-02
    0.37751588465315608079E-02
    0.37807367766817864124E-02
    0.37899683745042586636E-02
    0.37938447072843315723E-02
    0.37881000243796419426E-02
    0.37925036991507342886E-02
    0.37852354516631223427E-02
    0.37782363868885718815E-02
    0.37709894020657745359E-02
    0.37676386270990495746E-02
    0.37712854127119484725E-02
    0.37686561245495538326E-02
    0.37779728737542834366E-02
    0.37800681124009589094E-02
    0.38110838221824508594E-02
    0.38208340444817645749E-02
    0.38368987844349280829E-02
    0.38435885465647641468E-02
    0.38335575921030237527E-02
    0.38410506436324428486E-02
    0.38285404815146116715E-02
    0.38164934079859989466E-02
    0.38039627090453624961E-02
    0.37981641604361180906E-02
    0.38044458016857464824E-02
    0.37998120256339108607E-02
    0.38160473515329532829E-02
    0.38196754713142478527E-02
    0.37895285238993704074E-02
    0.37949505580185363858E-02
    0.38076180763729327444E-02
    0.38107251022748214742E-02
    0.38005819080650588351E-02
    0.38026585108538665803E-02
    0.37918422962876603341E-02
    0.37858550791423136589E-02
    0.37765730989652713905E-02
    0.37741882307017709901E-02
    0.37807868243314932122E-02
    0.37797415327013878655E-02
    0.37890852850135628600E-02
    0.37906509989534911166E-02
    0.38349911251558174013E-02
    0.38450042076425966497E-02
    0.38672558688591521583E-02
    0.38729825200179918490E-02
    0.38553015529736705397E-02
    0.38590127210644808997E-02
    0.38401682456535917928E-02
    0.38296359660116708994E-02
    0.38134793280264977187E-02
    0.38091619690099861109E-02
    0.38204284928929242368E-02
    0.38181392102881986546E-02
    0.38350033399233451371E-02
    0.38378576253012709057E-02
    0.38734587410627378465E-02
    0.38900347362082377152E-02
    0.39176747927843549868E-02
    0.39286700208624051114E-02
    0.39111768886160710665E-02
    0.39234152962123016242E-02
    0.39022571167484560763E-02
    0.38819566681535500573E-02
    0.38606430973451258577E-02
    0.38507662008525713783E-02
    0.38616674242882226623E-02
    0.38538840512331927306E-02
    0.38815149220623296721E-02
    0.38875819666663769154E-02
    0.39799768220683193198E-02
    0.40069456539455136634E-02
    0.40537197921363841632E-02
    0.40706843226968611807E-02
    0.40403550966873280972E-02
    0.40592463814949361969E-02
    0.40244928918668218878E-02
    0.39913602261714298952E-02
    0.39559538452719573629E-02
    0.39396744682920949859E-02
    0.39584450299462734316E-02
    0.39460927972801941241E-02
    0.39916217945684508497E-02
    0.40013347455775168798E-02
    0.39158453922851360618E-02
    0.39335641869083452088E-02
    0.39730198005602191877E-02
    0.39827543182707316263E-02
    0.39510456748597586052E-02
    0.39566247558297943168E-02
    0.39236715202067258892E-02
    0.39058560461785532536E-02
    0.38777329769367715508E-02
    0.38703479228375209202E-02
    0.38901455172373807651E-02
    0.38860994653999031412E-02
    0.39157286929285637506E-02
    0.39205896812087278128E-02
    0.40588873718303275506E-02
    0.40887813123820122840E-02
    0.41584892418150744969E-02
    0.41733780068145542863E-02
    0.41158992414824435366E-02
    0.41223263259199055888E-02
    0.40650562869908972441E-02
    0.40364054192336008137E-02
    0.39879579039241320332E-02
    0.39760909595642022346E-02
    0.40115486093488502209E-02
    0.40057414307041122950E-02
    0.40559038773009831874E-02
    0.40635153392028734373E-02
    0.38168592366378357658E-02
    0.38228599407946119854E-02
    0.38409668620018990251E-02
    0.38437478558173707524E-02
    0.38276001782348982073E-02
    0.38278144224425238000E-02
    0.38116447478124867304E-02
    0.38055505807078047510E-02
    0.37926338189820502610E-02
    0.37908403108105415483E-02
    0.38015746528706974468E-02
    0.38020794277151405242E-02
    0.38128380723132103587E-02
    0.38141116937817774908E-02
    0.38788424338441103434E-02
    0.38908523220944637132E-02
    0.39227662688487681744E-02
    0.39289099833695433073E-02
    0.39011247526440791765E-02
    0.39024691198734991378E-02
    0.38741136062630096223E-02
    0.38627461768279067189E-02
    0.38400691241456167378E-02
    0.38363068724277587726E-02
    0.38542978890004127995E-02
    0.38537948774506405880E-02
    0.38743447637339290153E-02
    0.38770845901812500504E-02
    0.38637429696005308119E-02
    0.38703971102567041873E-02
    0.38968371668603968110E-02
    0.38990148020494942195E-02
    0.38739653728735879562E-02
    0.38719244178369183890E-02
    0.38478554675146462057E-02
    0.38409616858015535081E-02
    0.38222925017348920521E-02
    0.38210385193044598025E-02
    0.38380963716923063161E-02
    0.38409656161640555461E-02
    0.38540351053040285308E-02
    0.38549761742917502787E-02
    0.39500482367640608883E-02
    0.39648550439112389965E-02
    0.40104496307516177347E-02
    0.40174838921335862679E-02
    0.39760951011128279828E-02
    0.39756794977781149264E-02
    0.39339569098347133835E-02
    0.39198204679127147260E-02
    0.38873374363409748944E-02
    0.38836230174130563497E-02
    0.39111067026543861955E-02
    0.39129506417609439747E-02
    0.39392586486973833054E-02
    0.39421788099373604106E-02
    0.39912560996616759310E-02
    0.40142275073271537975E-02
    0.40718581934742984624E-02
    0.40837058892452563971E-02
    0.40337945952460020627E-02
    0.40362064652545853738E-02
    0.39854217166795293664E-02
    0.39651131341381755380E-02
    0.39247338492957141790E-02
    0.39176905016874777332E-02
    0.39491768306779443873E-02
    0.39471091510481347980E-02
    0.39852638617127837672E-02
    0.39904607811603719919E-02
    0.41970795910078384158E-02
    0.42390193695394035381E-02
    0.43444616102923123285E-02
    0.43647890079251796050E-02
    0.42724249356776294873E-02
    0.42737041028346181223E-02
    0.41819377982012023373E-02
    0.41475917655743703427E-02
    0.40753393309735036834E-02
    0.40633980024722213958E-02
    0.41204993684328238696E-02
    0.41168622284763253111E-02
    0.41856566138295430227E-02
    0.41945154214293317585E-02
    0.41067261597676008381E-02
    0.41380315792116217216E-02
    0.42204493633572898181E-02
    0.42371271038594117767E-02
    0.41643890019818531611E-02
    0.41666678704474231082E-02
    0.40914220777781258945E-02
    0.40639410442804323534E-02
    0.40054853143423703107E-02
    0.39970663063108573948E-02
    0.40438523040090832220E-02
    0.40429865830362904031E-02
    0.40953089852127722362E-02
    0.41021103274928036667E-02
    0.44002625164840806007E-02
    0.44630085815624753395E-02
    0.46169632666275628799E-02
    0.46507688988813378553E-02
    0.45159260717164877511E-02
    0.45202830179187792475E-02
    0.43809809096751143459E-02
    0.43302180974282306752E-02
    0.42227410742358044773E-02
    0.42062263773313280507E-02
    0.42904181401919273472E-02
    0.42849155775122379358E-02
    0.43862410534755520361E-02
    0.43998237261580865412E-02
    0.37925036993280950189E-02
    0.37881000245369379938E-02
    0.37938447074529610056E-02
    0.37899683746558852047E-02
    0.37807367768078127719E-02
    0.37751588466319657353E-02
    0.37686561246319692439E-02
    0.37712854128107188567E-02
    0.37676386271917943968E-02
    0.37709894021717873906E-02
    0.37782363870229821595E-02
    0.37852354518299064640E-02
    0.37800681125342025860E-02
    0.37779728738774457676E-02
    0.38026585110315187441E-02
    0.38005819082318941307E-02
    0.38107251024666740843E-02
    0.38076180765521986347E-02
    0.37949505581584925748E-02
    0.37895285240098323942E-02
    0.37797415327859872937E-02
    0.37807868244316925749E-02
    0.37741882307899621632E-02
    0.37765730990666599061E-02
    0.37858550792721607468E-02
    0.37918422964406174082E-02
    0.37906509990910763723E-02
    0.37890852851426774610E-02
    0.38410506439964559218E-02
    0.38335575924315669349E-02
    0.38435885469194483108E-02
    0.38368987847587640930E-02
    0.38208340447531247662E-02
    0.38110838224085425742E-02
    0.37998120258193814232E-02
    0.38044458019024039036E-02
    0.37981641606368516176E-02
    0.38039627092726546395E-02
    0.38164934082661407418E-02
    0.38285404818554796304E-02
    0.38196754715951884880E-02
    0.38160473517958527941E-02
    0.38590127214482329576E-02
    0.38553015533434437621E-02
    0.38729825204444111655E-02
    0.38672558692662774467E-02
    0.38450042079660657658E-02
    0.38349911254272365732E-02
    0.38181392105003141360E-02
    0.38204284931306238537E-02
    0.38091619692158626594E-02
    0.38134793282564981992E-02
    0.38296359662991314929E-02
    0.38401682459843189919E-02
    0.38378576256103131940E-02
    0.38350033402182927972E-02
    0.38278144226583602633E-02
    0.38276001784335426936E-02
    0.38437478560451082861E-02
    0.38409668622067854801E-02
    0.38228599409524709543E-02
    0.38168592367593730946E-02
    0.38020794278003896063E-02
    0.38015746529801931926E-02
    0.37908403109060350399E-02
    0.37926338190946667743E-02
    0.38055505808601707181E-02
    0.38116447480014753121E-02
    0.38141116939412259002E-02
    0.38128380724603921047E-02
    0.38719244180692746239E-02
    0.38739653730622590835E-02
    0.38990148022531269031E-02
    0.38968371670189344905E-02
    0.38703971103704335258E-02
    0.38637429696569951937E-02
    0.38409656161913757061E-02
    0.38380963717684233802E-02
    0.38210385193811857545E-02
    0.38222925018466386016E-02
    0.38409616859538583261E-02
    0.38478554677240130177E-02
    0.38549761744345440416E-02
    0.38540351054242878021E-02
    0.39024691203738358890E-02
    0.39011247531213688253E-02
    0.39289099839263496444E-02
    0.39227662693642898276E-02
    0.38908523225054561338E-02
    0.38788424341887513258E-02
    0.38537948777096694974E-02
    0.38542978892955859736E-02
    0.38363068726795955185E-02
    0.38400691244269732731E-02
    0.38627461771934758390E-02
    0.38741136066939708786E-02
    0.38770845905753397592E-02
    0.38743447641074761287E-02
    0.39756794983940935487E-02
    0.39760951016700680008E-02
    0.40174838927576964065E-02
    0.40104496313086851478E-02
    0.39648550443436821403E-02
    0.39500482370958206815E-02
    0.39129506420001033615E-02
    0.39111067029679313922E-02
    0.38836230176945386525E-02
    0.38873374366816572378E-02
    0.39198204683503837242E-02
    0.39339569103754986820E-02
    0.39421788103866980263E-02
    0.39392586491104331081E-02
    0.39234152969253865972E-02
    0.39111768892681605600E-02
    0.39286700215678633727E-02
    0.39176747934391914149E-02
    0.38900347367577465044E-02
    0.38734587415321336361E-02
    0.38538840516200750970E-02
    0.38616674247299448419E-02
    0.38507662012601741493E-02
    0.38606430978021044967E-02
    0.38819566687087296575E-02
    0.39022571174142733040E-02
    0.38875819672270130883E-02
    0.38815149225910885664E-02
    0.39566247566124512422E-02
    0.39510456756220680916E-02
    0.39827543191581346246E-02
    0.39730198014107541080E-02
    0.39335641875943572199E-02
    0.39158453928771026417E-02
    0.38860994658690994376E-02
    0.38901455177459375034E-02
    0.38703479232762064664E-02
    0.38777329774159811047E-02
    0.39058560467718924335E-02
    0.39236715208768955382E-02
    0.39205896818525392059E-02
    0.39157286935482772325E-02
    0.40592463828359294856E-02
    0.40403550979366794141E-02
    0.40706843240696346034E-02
    0.40537197934116964843E-02
    0.40069456550178529294E-02
    0.39799768229958395332E-02
    0.39460927980500644027E-02
    0.39584450308084891124E-02
    0.39396744690856841387E-02
    0.39559538461536661313E-02
    0.39913602272306459781E-02
    0.40244928931185341633E-02
    0.40013347466560586496E-02
    0.39916217955917572893E-02
    0.41223263274359489561E-02
    0.41158992429924578724E-02
    0.41733780085896881457E-02
    0.41584892435260027710E-02
    0.40887813137648245515E-02
    0.40588873730483419552E-02
    0.40057414316708372590E-02
    0.40115486103786393221E-02
    0.39760909604460090150E-02
    0.39879579048787130655E-02
    0.40364054204053909092E-02
    0.40650562882978006143E-02
    0.40635153404841809627E-02
    0.40559038785427416196E-02
    0.40362064663138057935E-02
    0.40337945962816970299E-02
    0.40837058904565426767E-02
    0.40718581946248399300E-02
    0.40142275082517215115E-02
    0.39912561004696129816E-02
    0.39471091516668707633E-02
    0.39491768313519104786E-02
    0.39176905022567636711E-02
    0.39247338499163895650E-02
    0.39651131349286257086E-02
    0.39854217175886164082E-02
    0.39904607820252053704E-02
    0.39852638625442176473E-02
    0.41666678718531319908E-02
    0.41643890033010522514E-02
    0.42371271053729198455E-02
    0.42204493647476038973E-02
    0.41380315803258935908E-02
    0.41067261606945008878E-02
    0.40429865837475530491E-02
    0.40438523048294903323E-02
    0.39970663070306175838E-02
    0.40054853151564517519E-02
    0.40639410453095093506E-02
    0.40914220789882976143E-02