# vtk DataFile Version 3.0
LAPLACIEN  2D
ASCII
DATASET UNSTRUCTURED_GRID
FIELD FieldData 1
TIME 1 1 double
3.6000
 POINTS        7297  float
   1.5625000000000000E-002  0.96875000000000000        0.0000000000000000     
   3.1250000000000000E-002  0.96875000000000000        0.0000000000000000     
   3.1250000000000000E-002  0.98437500000000000        0.0000000000000000     
   9.3749999999999997E-003  0.97812500000000002        0.0000000000000000     
   2.0312500000000001E-002  0.97968750000000004        0.0000000000000000     
   2.1874999999999999E-002  0.99062499999999998        0.0000000000000000     
   1.0937499999999999E-002  0.98906249999999996        0.0000000000000000     
   4.6875000000000000E-002  0.96875000000000000        0.0000000000000000     
   6.2500000000000000E-002  0.96875000000000000        0.0000000000000000     
   6.2500000000000000E-002  0.98437500000000000        0.0000000000000000     
   4.0625000000000001E-002  0.97812500000000002        0.0000000000000000     
   5.1562499999999997E-002  0.97968750000000004        0.0000000000000000     
   5.3124999999999999E-002  0.99062499999999998        0.0000000000000000     
   4.2187500000000003E-002  0.98906249999999996        0.0000000000000000     
   1.5625000000000000E-002  0.93750000000000000        0.0000000000000000     
   3.1250000000000000E-002  0.93750000000000000        0.0000000000000000     
   3.1250000000000000E-002  0.95312500000000000        0.0000000000000000     
   9.3749999999999997E-003  0.94687500000000002        0.0000000000000000     
   2.0312500000000001E-002  0.94843750000000004        0.0000000000000000     
   2.1874999999999999E-002  0.95937499999999998        0.0000000000000000     
   1.0937499999999999E-002  0.95781249999999996        0.0000000000000000     
   4.6875000000000000E-002  0.93750000000000000        0.0000000000000000     
   6.2500000000000000E-002  0.93750000000000000        0.0000000000000000     
   6.2500000000000000E-002  0.95312500000000000        0.0000000000000000     
   4.0625000000000001E-002  0.94687500000000002        0.0000000000000000     
   5.1562499999999997E-002  0.94843750000000004        0.0000000000000000     
   5.3124999999999999E-002  0.95937499999999998        0.0000000000000000     
   4.2187500000000003E-002  0.95781249999999996        0.0000000000000000     
   7.8125000000000000E-002  0.96875000000000000        0.0000000000000000     
   9.3750000000000000E-002  0.96875000000000000        0.0000000000000000     
   9.3750000000000000E-002  0.98437500000000000        0.0000000000000000     
   7.1874999999999994E-002  0.97812500000000002        0.0000000000000000     
   8.2812499999999997E-002  0.97968750000000004        0.0000000000000000     
   8.4375000000000006E-002  0.99062499999999998        0.0000000000000000     
   7.3437500000000003E-002  0.98906249999999996        0.0000000000000000     
  0.10937500000000000       0.96875000000000000        0.0000000000000000     
  0.12500000000000000       0.96875000000000000        0.0000000000000000     
  0.12500000000000000       0.98437500000000000        0.0000000000000000     
  0.10312499999999999       0.97812500000000002        0.0000000000000000     
  0.11406250000000000       0.97968750000000004        0.0000000000000000     
  0.11562500000000001       0.99062499999999998        0.0000000000000000     
  0.10468750000000000       0.98906249999999996        0.0000000000000000     
   7.8125000000000000E-002  0.93750000000000000        0.0000000000000000     
   9.3750000000000000E-002  0.93750000000000000        0.0000000000000000     
   9.3750000000000000E-002  0.95312500000000000        0.0000000000000000     
   7.1874999999999994E-002  0.94687500000000002        0.0000000000000000     
   8.2812499999999997E-002  0.94843750000000004        0.0000000000000000     
   8.4375000000000006E-002  0.95937499999999998        0.0000000000000000     
   7.3437500000000003E-002  0.95781249999999996        0.0000000000000000     
  0.10937500000000000       0.93750000000000000        0.0000000000000000     
  0.12500000000000000       0.93750000000000000        0.0000000000000000     
  0.12500000000000000       0.95312500000000000        0.0000000000000000     
  0.10312499999999999       0.94687500000000002        0.0000000000000000     
  0.11406250000000000       0.94843750000000004        0.0000000000000000     
  0.11562500000000001       0.95937499999999998        0.0000000000000000     
  0.10468750000000000       0.95781249999999996        0.0000000000000000     
   1.5625000000000000E-002  0.90625000000000000        0.0000000000000000     
   3.1250000000000000E-002  0.90625000000000000        0.0000000000000000     
   3.1250000000000000E-002  0.92187500000000000        0.0000000000000000     
   9.3749999999999997E-003  0.91562500000000002        0.0000000000000000     
   2.0312500000000001E-002  0.91718750000000004        0.0000000000000000     
   2.1874999999999999E-002  0.92812499999999998        0.0000000000000000     
   1.0937499999999999E-002  0.92656249999999996        0.0000000000000000     
   4.6875000000000000E-002  0.90625000000000000        0.0000000000000000     
   6.2500000000000000E-002  0.90625000000000000        0.0000000000000000     
   6.2500000000000000E-002  0.92187500000000000        0.0000000000000000     
   4.0625000000000001E-002  0.91562500000000002        0.0000000000000000     
   5.1562499999999997E-002  0.91718750000000004        0.0000000000000000     
   5.3124999999999999E-002  0.92812499999999998        0.0000000000000000     
   4.2187500000000003E-002  0.92656249999999996        0.0000000000000000     
   1.5625000000000000E-002  0.87500000000000000        0.0000000000000000     
   3.1250000000000000E-002  0.87500000000000000        0.0000000000000000     
   3.1250000000000000E-002  0.89062500000000000        0.0000000000000000     
   9.3749999999999997E-003  0.88437500000000002        0.0000000000000000     
   2.0312500000000001E-002  0.88593750000000004        0.0000000000000000     
   2.1874999999999999E-002  0.89687499999999998        0.0000000000000000     
   1.0937499999999999E-002  0.89531249999999996        0.0000000000000000     
   4.6875000000000000E-002  0.87500000000000000        0.0000000000000000     
   6.2500000000000000E-002  0.87500000000000000        0.0000000000000000     
   6.2500000000000000E-002  0.89062500000000000        0.0000000000000000     
   4.0625000000000001E-002  0.88437500000000002        0.0000000000000000     
   5.1562499999999997E-002  0.88593750000000004        0.0000000000000000     
   5.3124999999999999E-002  0.89687499999999998        0.0000000000000000     
   4.2187500000000003E-002  0.89531249999999996        0.0000000000000000     
   7.8125000000000000E-002  0.90625000000000000        0.0000000000000000     
   9.3750000000000000E-002  0.90625000000000000        0.0000000000000000     
   9.3750000000000000E-002  0.92187500000000000        0.0000000000000000     
   7.1874999999999994E-002  0.91562500000000002        0.0000000000000000     
   8.2812499999999997E-002  0.91718750000000004        0.0000000000000000     
   8.4375000000000006E-002  0.92812499999999998        0.0000000000000000     
   7.3437500000000003E-002  0.92656249999999996        0.0000000000000000     
  0.10937500000000000       0.90625000000000000        0.0000000000000000     
  0.12500000000000000       0.90625000000000000        0.0000000000000000     
  0.12500000000000000       0.92187500000000000        0.0000000000000000     
  0.10312499999999999       0.91562500000000002        0.0000000000000000     
  0.11406250000000000       0.91718750000000004        0.0000000000000000     
  0.11562500000000001       0.92812499999999998        0.0000000000000000     
  0.10468750000000000       0.92656249999999996        0.0000000000000000     
   7.8125000000000000E-002  0.87500000000000000        0.0000000000000000     
   9.3750000000000000E-002  0.87500000000000000        0.0000000000000000     
   9.3750000000000000E-002  0.89062500000000000        0.0000000000000000     
   7.1874999999999994E-002  0.88437500000000002        0.0000000000000000     
   8.2812499999999997E-002  0.88593750000000004        0.0000000000000000     
   8.4375000000000006E-002  0.89687499999999998        0.0000000000000000     
   7.3437500000000003E-002  0.89531249999999996        0.0000000000000000     
  0.10937500000000000       0.87500000000000000        0.0000000000000000     
  0.12500000000000000       0.87500000000000000        0.0000000000000000     
  0.12500000000000000       0.89062500000000000        0.0000000000000000     
  0.10312499999999999       0.88437500000000002        0.0000000000000000     
  0.11406250000000000       0.88593750000000004        0.0000000000000000     
  0.11562500000000001       0.89687499999999998        0.0000000000000000     
  0.10468750000000000       0.89531249999999996        0.0000000000000000     
  0.14062500000000000       0.96875000000000000        0.0000000000000000     
  0.15625000000000000       0.96875000000000000        0.0000000000000000     
  0.15625000000000000       0.98437500000000000        0.0000000000000000     
  0.13437499999999999       0.97812500000000002        0.0000000000000000     
  0.14531250000000001       0.97968750000000004        0.0000000000000000     
  0.14687500000000001       0.99062499999999998        0.0000000000000000     
  0.13593749999999999       0.98906249999999996        0.0000000000000000     
  0.17187500000000000       0.96875000000000000        0.0000000000000000     
  0.18750000000000000       0.96875000000000000        0.0000000000000000     
  0.18750000000000000       0.98437500000000000        0.0000000000000000     
  0.16562499999999999       0.97812500000000002        0.0000000000000000     
  0.17656250000000001       0.97968750000000004        0.0000000000000000     
[...]
 CELL_DATA       14336
 SCALARS Nutrient float
 LOOKUP_TABLE default
    0.29384016461914135195E-02
    0.29383067189952408529E-02
    0.29389997907018779698E-02
    0.29389997906624238527E-02
    0.29383067191457879624E-02
    0.29384016460526902852E-02
    0.29378473942429381496E-02
    0.29375224202821629410E-02
    0.29371709226588610039E-02
    0.29371709217810640369E-02
    0.29375224207363434710E-02
    0.29378473940603637080E-02
    0.29377963450976166127E-02
    0.29377963449541497770E-02
    0.29406631127181013900E-02
    0.29412657461420463507E-02
    0.29428963176547210702E-02
    0.29433474942296396562E-02
    0.29421295411901915440E-02
    0.29427204963348549578E-02
    0.29414370200817768243E-02
    0.29403654874316045333E-02
    0.29392356776916672180E-02
    0.29388221243837704330E-02
    0.29395334345716519174E-02
    0.29394421577525896468E-02
    0.29405475967496153868E-02
    0.29407939921404593377E-02
    0.29427204963801659350E-02
    0.29421295411831984400E-02
    0.29433474942550698350E-02
    0.29428963176563755627E-02
    0.29412657461882680578E-02
    0.29406631126748330497E-02
    0.29394421578495888783E-02
    0.29395334344875828810E-02
    0.29388221245089996871E-02
    0.29392356775890249310E-02
    0.29403654875040361773E-02
    0.29414370200819541998E-02
    0.29407939921821959171E-02
    0.29405475967462569621E-02
    0.29457137558228712812E-02
    0.29459696685868448467E-02
    0.29484880094758384936E-02
    0.29484880094701095693E-02
    0.29459696685925304029E-02
    0.29457137557988501315E-02
    0.29434704532273541985E-02
    0.29428271372638255959E-02
    0.29411495047598251902E-02
    0.29411495047157155090E-02
    0.29428271372968833539E-02
    0.29434704532184411893E-02
    0.29442047459106888627E-02
    0.29442047459011825780E-02
    0.29466669459533565735E-02
    0.29482774296129793216E-02
    0.29514160572633274353E-02
    0.29525858963653697081E-02
    0.29505155580769855742E-02
    0.29519228744527650256E-02
    0.29494443248572160647E-02
    0.29471360143753211856E-02
    0.29447453860007039711E-02
    0.29437269921945598272E-02
    0.29450079162546436914E-02
    0.29443886043862823806E-02
    0.29471817872051115327E-02
    0.29478189197012965098E-02
    0.29585358981137634647E-02
    0.29617430606669096181E-02
    0.29672288444266992774E-02
    0.29694609039412562038E-02
    0.29660078321581927197E-02
    0.29685805058934462350E-02
    0.29642476962922765897E-02
    0.29601133859384187036E-02
    0.29558089237794889746E-02
    0.29538465191750766167E-02
    0.29560595241230596536E-02
    0.29545913024264496699E-02
    0.29600256814245988479E-02
    0.29612436619075445214E-02
    0.29534942300423906031E-02
    0.29547419488415555509E-02
    0.29591220296084626111E-02
    0.29597097941520137190E-02
    0.29558232345321617043E-02
    0.29560562366594046214E-02
    0.29522094877563434707E-02
    0.29504982876252176631E-02
    0.29473326812471138322E-02
    0.29468515126652599680E-02
    0.29494987678636407774E-02
    0.29497915656449364905E-02
    0.29522162852647733031E-02
    0.29525201472760907728E-02
    0.29681185590683793231E-02
    0.29709642493596613751E-02
    0.29784371375483004521E-02
    0.29799884640722921342E-02
    0.29738240218082725476E-02
    0.29748246510493971638E-02
    0.29683968031622522989E-02
    0.29649919821679582288E-02
    0.29594691618478664343E-02
    0.29582101523206979013E-02
    0.29623600058292262442E-02
    0.29621176627993963185E-02
    0.29672155385442803947E-02
    0.29680186592707965935E-02
    0.29519228745141629609E-02
    0.29505155581212826055E-02
    0.29525858964162868779E-02
    0.29514160573034338084E-02
    0.29482774296548620516E-02
    0.29466669459671081602E-02
    0.29443886044261545661E-02
    0.29450079162670261476E-02
    0.29437269922427231235E-02
    0.29447453860176118871E-02
    0.29471360144263602197E-02
    0.29494443249078882048E-02
    0.29478189197458893114E-02
    0.29471817872403507053E-02
    0.29560562367054472183E-02
    0.29558232345646361615E-02
    0.29597097941888583783E-02
    0.29591220296358768799E-02
    0.29547419488644135685E-02
    0.29534942300459636998E-02
    0.29497915656562937251E-02
    0.29494987678703879844E-02
    0.29468515126932050621E-02
    0.29473326812609035828E-02
    0.29504982876601619328E-02
    0.29522094877919465017E-02
    0.29525201473055602552E-02
    0.29522162852859794302E-02
    0.29685805060176793241E-02
    0.29660078322663080592E-02
    0.29694609040554439429E-02
    0.29672288445278223804E-02
    0.29617430607529297848E-02
    0.29585358981779157073E-02
    0.29545913024851644217E-02
    0.29560595241897909963E-02
    0.29538465192421323527E-02
    0.29558089238527914498E-02
    0.29601133860334086917E-02
    0.29642476964076647575E-02
    0.29612436620009008337E-02
    0.29600256815090551614E-02
    0.29748246511622894982E-02
    0.29738240219075967423E-02
    0.29799884641814838697E-02
    0.29784371376449184782E-02
    0.29709642494358109652E-02
    0.29681185591207306755E-02
    0.29621176628429200968E-02
    0.29623600058843371080E-02
    0.29582101523763491314E-02
    0.29594691619108772287E-02
    0.29649919822503107564E-02
    0.29683968032609615341E-02
    0.29680186593530636860E-02
    0.29672155386186779141E-02
    0.29667849132208015846E-02
    0.29677401853099561434E-02
    0.29741845191740474454E-02
    0.29741845191673492443E-02
    0.29677401853000304893E-02
    0.29667849131946705775E-02
    0.29608934147518340373E-02
    0.29595209202352857486E-02
    0.29549821827119385556E-02
    0.29549821827124763199E-02
    0.29595209202484202074E-02
    0.29608934147766475219E-02
    0.29632604086671267274E-02
    0.29632604086632782434E-02
    0.29866485404110138489E-02
    0.29894703791884858803E-02
    0.30002459771693713690E-02
    0.30012516082410399185E-02
    0.29912280243820435488E-02
    0.29907044915988140188E-02
    0.29810295961245872505E-02
    0.29778875982714816430E-02
    0.29702041115403938348E-02
    0.29695130998985590567E-02
    0.29763704815487976828E-02
    0.29774054416058610625E-02
    0.29829318552043798327E-02
    0.29834111894066297523E-02
    0.29907044917058577330E-02
    0.29912280244693070785E-02
    0.30012516083341512010E-02
    0.30002459772425385358E-02
    0.29894703792412657094E-02
    0.29866485404367302571E-02
    0.29774054416195120353E-02
    0.29763704815838976439E-02
    0.29695130999352085596E-02
    0.29702041115902064194E-02
    0.29778875983428633456E-02
    0.29810295962223692760E-02
    0.29834111894733771411E-02
    0.29829318552605050760E-02
    0.30195453967599376194E-02
    0.30222053914065252767E-02
    0.30383685651578875610E-02
    0.30383685651421002763E-02
    0.30222053913777353722E-02
    0.30195453966931503319E-02
    0.30048323043650633501E-02
    0.30016589777843178527E-02
    0.29904063583664794272E-02
    0.29904063583793679890E-02
    0.30016589778131637020E-02
    0.30048323044333451019E-02
    0.30110556983960743739E-02
    0.30110556983876405820E-02
    0.29796227501046137522E-02
    0.29853339475695555433E-02
    0.29947523245818126469E-02
    0.29987114712609341804E-02
    0.29928656642197212605E-02
    0.29973644813517069489E-02
    0.29899531208934381106E-02
    0.29827971210904325253E-02
    0.29753787419135317889E-02
    0.29719392193772150093E-02
    0.29756728079341383808E-02
    0.29729680644596883331E-02
    0.29825199277199363444E-02
    0.29846652467821368875E-02
    0.30162278740560434856E-02
    0.30261337162779322271E-02
    0.30424072653646738219E-02
    0.30491918440026201040E-02
    0.30390513148598414031E-02
    0.30466522745456769451E-02
    0.30339833841388202246E-02
    0.30217586554931535024E-02
    0.30090329873524558971E-02
    0.30031308606320024183E-02
    0.30095099619208815454E-02
    0.30047846427400529482E-02
    0.30212941072327451422E-02
    0.30249801500074821603E-02
    0.29942295013867226659E-02
    0.29997587914264403804E-02
    0.30126303381652237701E-02
    0.30157959370442216640E-02
    0.30055102291160003432E-02
    0.30076426888175199909E-02
    0.29966507876089875859E-02
    0.29905331560612130777E-02
    0.29810618156648305103E-02
    0.29786128315132383119E-02
    0.29853404796847905420E-02
    0.29842589194880551895E-02
    0.29938039063494891259E-02
    0.29954055179437274331E-02
    0.30403700902394011595E-02
    0.30505126062862512534E-02
    0.30729897865028757767E-02
    0.30787871633521347002E-02
    0.30609558287898602780E-02
    0.30647359686745332362E-02
    0.30457009200121113422E-02
    0.30350172712874886639E-02
    0.30186480104340673164E-02
    0.30142516416866290893E-02
    0.30256573863547751684E-02
    0.30233155756280187185E-02
    0.30404198668773380759E-02
    0.30433179472624926482E-02
    0.30793635798936846125E-02
    0.30961099923367857607E-02
    0.31239722904052853562E-02
    0.31350697418282757675E-02
    0.31174623671927207715E-02
    0.31298162778213554393E-02
    0.31084905299885853477E-02
    0.30879993845998121929E-02
    0.30664754244971292180E-02
    0.30564847327544356244E-02
    0.30674905165020416309E-02
    0.30596042120666312389E-02
    0.30875358618913913492E-02
    0.30936659544779066509E-02
    0.31866898703431598833E-02
    0.32138357174107149913E-02
    0.32608361894666542009E-02
    0.32779051081000586468E-02
    0.32474613985784116926E-02
    0.32664702413906930752E-02
    0.32315475645078341194E-02
    0.31982197802392577264E-02
    0.31625966479399253949E-02
    0.31461982510599191716E-02
    0.31650765274415159842E-02
    0.31526151783885241094E-02
    0.31984577573712438814E-02
    0.32082359174039273841E-02
    0.31219811601175978012E-02
    0.31398441982891486975E-02
    0.31795377354275553006E-02
    0.31893505068611837511E-02
    0.31574880492318030574E-02
    0.31631443062450944996E-02
    0.31299927073523492807E-02
    0.31120125893461859402E-02
    0.30836620408394698617E-02
    0.30761874796419123174E-02
    0.30961306539802786741E-02
    0.30920203443826083795E-02
    0.31219161554252631251E-02
    0.31268261959505288909E-02
    0.32658245119841691068E-02
    0.32958690581242774086E-02
    0.33658170910813856036E-02
    0.33807865272759982447E-02
    0.33231559896537464852E-02
    0.33296634719395560784E-02
    0.32721953652659657892E-02
    0.32433747611004927827E-02
    0.31946945574894596367E-02
    0.31827325179467889395E-02
    0.32183373900618048383E-02
    0.32124591337577973471E-02
    0.32629007122221141864E-02
    0.32705635811626069566E-02
    0.30219499884992805962E-02
    0.30280335383007059465E-02
    0.30463600122544770739E-02
    0.30491770536698816103E-02
    0.30328483154968867430E-02
    0.30330810919362563224E-02
    0.30167051028967871787E-02
    0.30105061747623994631E-02
    0.29973832954093590324E-02
    0.29955494183561796884E-02
    0.30064523289201092009E-02
    0.30069576929584048396E-02
    0.30178854863785425748E-02
    0.30191814591823493835E-02
    0.30846073242769707877E-02
    0.30967220968115835925E-02
    0.31288761720938795645E-02
    0.31350679814002384814E-02
    0.31070947219522236128E-02
    0.31084708682012668519E-02
    0.30798949468142087539E-02
    0.30684019952575583394E-02
    0.30454961505726840625E-02
    0.30416785922786630965E-02
    0.30598477780823737926E-02
    0.30593289708219627981E-02
    0.30800864986482504038E-02
    0.30828565672407440973E-02
    0.30693593694360765851E-02
    0.30760748215378982962E-02
    0.31027473160365128153E-02
    0.31049411624634718800E-02
    0.30796769955796802695E-02
    0.30776209343759261192E-02
    0.30533182837271487242E-02
    0.30463434207415058391E-02
    0.30274534277885912711E-02
    0.30261807263037552619E-02
    0.30434422335172844377E-02
    0.30463447912241967130E-02
    0.30595544931789637327E-02
    0.30605057902665408313E-02
    0.31563333052775388067E-02
    0.31712229948328250762E-02
    0.32170697824503236353E-02
    0.32241320068603900734E-02
    0.31825223713627085083E-02
    0.31821049092578867004E-02
    0.31401356018122038652E-02
    0.31258975302917821511E-02
    0.30931718568728023416E-02
    0.30894238661883610501E-02
    0.31171200946272497462E-02
    0.31189809823123633252E-02
    0.31454670949765226214E-02
    0.31484053023782087970E-02
    0.31977712913598644803E-02
    0.32208617136129007522E-02
    0.32787435961837687812E-02
    0.32906466142786617267E-02
    0.32405453397136218738E-02
    0.32429975026813445335E-02
    0.31919861119864907824E-02
    0.31715387664399308405E-02
    0.31309169591971939758E-02
    0.31238077964577831182E-02
    0.31554775923770851664E-02
    0.31533822993553024122E-02
    0.31917703291477793684E-02
    0.31970027156197479250E-02
    0.34043843902379967471E-02
    0.34464487079524375179E-02
    0.35521416108522003985E-02
    0.35725263596913443311E-02
    0.34799770156066986426E-02
    0.34813001655106534660E-02
    0.33893101160843370004E-02
    0.33548207236903295619E-02
    0.32823223487770270684E-02
    0.32703095968285673598E-02
    0.33275943925822433142E-02
    0.33239226278445272236E-02
    0.33929614662123663490E-02
    0.34018579926716413855E-02
    0.33137525470895907477E-02
    0.33451542391410731860E-02
    0.34278333456500302209E-02
    0.34445457345992080977E-02
    0.33715863795796214078E-02
    0.33738716414454350372E-02
    0.32983746721329610177E-02
    0.32707796225182037865E-02
    0.32120688388355658933E-02
    0.32036060069758035170E-02
    0.32506089046911647474E-02
    0.32497483263633150652E-02
    0.33022732234049209654E-02
    0.33090975607109780754E-02
    0.36080628179464722602E-02
    0.36709089587316809204E-02
    0.38251210523467383921E-02
    0.38589622455441853141E-02
    0.37239055593680462503E-02
    0.37282722914088739508E-02
    0.35887252508227554353E-02
    0.35378450732347827869E-02
    0.34301122597675259840E-02
    0.34135485010265108341E-02
    0.34979552387173575879E-02
    0.34924513921547220389E-02
    0.35939876336258088155E-02
    0.36075951647527421638E-02
    0.29973644815973971359E-02
    0.29928656644405428854E-02
    0.29987114714950450882E-02
    0.29947523247942885172E-02
    0.29853339477501367877E-02
    0.29796227502530340907E-02
    0.29729680645860941633E-02
    0.29756728080818535542E-02
    0.29719392195166408066E-02
    0.29753787420701803546E-02
    0.29827971212815621894E-02
    0.29899531211235287967E-02
    0.29846652469725262584E-02
    0.29825199278978153233E-02
    0.30076426890591986298E-02
    0.30055102293407424431E-02
    0.30157959372945561394E-02
    0.30126303383975483463E-02
    0.29997587916137814085E-02
    0.29942295015370676801E-02
    0.29842589196097247910E-02
    0.29853404798282309231E-02
    0.29786128316437805903E-02
    0.29810618158133696774E-02
    0.29905331562436986148E-02
    0.29966507878219448419E-02
    0.29954055181330339029E-02
    0.29938039065274249170E-02
    0.30466522750084066261E-02
    0.30390513152814065297E-02
    0.30491918444529200576E-02
    0.30424072657786473649E-02
    0.30261337166318192857E-02
    0.30162278743566827734E-02
    0.30047846429951722245E-02
    0.30095099622127869342E-02
    0.30031308609052838159E-02
    0.30090329876569085407E-02
    0.30217586558580612592E-02
    0.30339833845722729774E-02
    0.30249801503737985126E-02
    0.30212941075780830498E-02
    0.30647359691526889457E-02
    0.30609558292470214966E-02
    0.30787871638671112165E-02
    0.30729897869923297402E-02
    0.30505126066850182104E-02
    0.30403700905772385564E-02
    0.30233155759027950139E-02
    0.30256573866620120432E-02
    0.30142516419607535624E-02
    0.30186480107377540796E-02
    0.30350172716556243074E-02
    0.30457009204321273607E-02
    0.30433179476514662237E-02
    0.30404198672488221694E-02
    0.30330810922064091462E-02
    0.30328483157423444770E-02
    0.30491770539435711015E-02
    0.30463600124990592062E-02
    0.30280335384932429051E-02
    0.30219499886470794700E-02
    0.30069576930683130159E-02
    0.30064523290616257736E-02
    0.29955494184843753196E-02
    0.29973832955602001775E-02
    0.30105061749579227481E-02
    0.30167051031371790865E-02
    0.30191814593826626738E-02
    0.30178854865631930468E-02
    0.30776209346472607233E-02
    0.30796769957984150221E-02
    0.31049411626948631750E-02
    0.31027473162156741886E-02
    0.30760748216679084481E-02
    0.30693593694994564421E-02
    0.30463447912580372649E-02
    0.30434422336085816332E-02
    0.30261807263978956692E-02
    0.30274534279240866187E-02
    0.30463434209218654726E-02
    0.30533182839736711447E-02
    0.30605057904336875098E-02
    0.30595544933196667202E-02
    0.31084708687862507362E-02
    0.31070947225057560931E-02
    0.31350679820330309110E-02
    0.31288761726782831837E-02
    0.30967220972851119271E-02
    0.30846073246743772878E-02
    0.30593289711311482011E-02
    0.30598477784358761762E-02
    0.30416785925890090295E-02
    0.30454961509188051977E-02
    0.30684019956942684693E-02
    0.30798949473258064626E-02
    0.30828565677038519480E-02
    0.30800864990869233732E-02
    0.31821049099430712484E-02
    0.31825223719794048724E-02
    0.32241320075421815022E-02
    0.32170697830572110056E-02
    0.31712229953093336657E-02
    0.31563333056427124099E-02
    0.31189809825834667774E-02
    0.31171200949822700128E-02
    0.30894238665129724816E-02
    0.30931718572637604409E-02
    0.31258975307854141960E-02
    0.31401356024193393009E-02
    0.31484053028799892718E-02
    0.31454670954376333716E-02
    0.31298162786686772180E-02
    0.31174623679725288472E-02
    0.31350697426645998331E-02
    0.31239722911847764113E-02
    0.30961099930020183867E-02
    0.30793635804695533922E-02
    0.30596042125540759589E-02
    0.30674905170507346663E-02
    0.30564847332657744255E-02
    0.30664754250631955090E-02
    0.30879993852730362562E-02
    0.31084905307814676007E-02
    0.30936659551573709483E-02
    0.30875358625355965245E-02
    0.31631443071576592282E-02
    0.31574880501161655191E-02
    0.31893505078723844229E-02
    0.31795377363948284372E-02
    0.31398441990836138855E-02
    0.31219811608078503438E-02
    0.30920203449453583129E-02
    0.30961306545900682367E-02
    0.30761874801800304785E-02
    0.30836620414242928503E-02
    0.31120125900534712990E-02
    0.31299927081462936181E-02
    0.31268261967077057642E-02
    0.31219161561544849295E-02
    0.32664702429060815843E-02
    0.32474613999950718846E-02
    0.32779051096438411098E-02
    0.32608361909059260797E-02
    0.32138357186369437453E-02
    0.31866898714141313198E-02
    0.31526151792949873819E-02
    0.31650765284474960057E-02
    0.31461982519934874984E-02
    0.31625966489677043852E-02
    0.31982197814547411695E-02
    0.32315475659260074238E-02
    0.32082359186396897446E-02
    0.31984577585479766378E-02
    0.33296634736258044415E-02
    0.33231559913253325318E-02
    0.33807865292149251284E-02
    0.33658170929483899846E-02
    0.32958690596536178649E-02
    0.32658245133373987011E-02
    0.32124591348540198522E-02
    0.32183373912295855541E-02
    0.31827325189642649735E-02
    0.31946945585866353724E-02
    0.32433747624244311375E-02
    0.32721953667360628368E-02
    0.32705635825956498770E-02
    0.32629007136113189098E-02
    0.32429975038606047820E-02
    0.32405453408601478903E-02
    0.32906466156010063043E-02
    0.32787435974375792047E-02
    0.32208617146330543318E-02
    0.31977712922523849129E-02
    0.31533823000549931516E-02
    0.31554775931410196550E-02
    0.31238077971166688246E-02
    0.31309169599145242509E-02
    0.31715387673347116178E-02
    0.31919861130106550427E-02
    0.31970027165869516726E-02
    0.31917703300772459415E-02
    0.33738716429557043773E-02
    0.33715863809927583764E-02
    0.34445457362054644583E-02
    0.34278333471243664990E-02
    0.33451542403324066761E-02
    0.33137525480816040768E-02
    0.32497483271372975058E-02
    0.32506089055846106549E-02
    0.32036060077697456859E-02
    0.32120688397316932497E-02
    0.32707796236363601353E-02
    0.32983746734437952713E-02