# vtk DataFile Version 3.0
LAPLACIEN  2D
ASCII
DATASET UNSTRUCTURED_GRID
FIELD FieldData 1
TIME 1 1 double
12.8000
 POINTS        7297  float
   1.5625000000000000E-002  0.96875000000000000        0.0000000000000000     
   3.1250000000000000E-002  0.96875000000000000        0.0000000000000000     
   3.1250000000000000E-002  0.98437500000000000        0.0000000000000000     
   9.3749999999999997E-003  0.97812500000000002        0.0000000000000000     
   2.0312500000000001E-002  0.97968750000000004        0.0000000000000000     
   2.1874999999999999E-002  0.99062499999999998        0.0000000000000000     
   1.0937499999999999E-002  0.98906249999999996        0.0000000000000000     
   4.6875000000000000E-002  0.96875000000000000        0.0000000000000000     
   6.2500000000000000E-002  0.96875000000000000        0.0000000000000000     
   6.2500000000000000E-002  0.98437500000000000        0.0000000000000000     
   4.0625000000000001E-002  0.97812500000000002        0.0000000000000000     
   5.1562499999999997E-002  0.97968750000000004        0.0000000000000000     
   5.3124999999999999E-002  0.99062499999999998        0.0000000000000000     
   4.2187500000000003E-002  0.98906249999999996        0.0000000000000000     
   1.5625000000000000E-002  0.93750000000000000        0.0000000000000000     
   3.1250000000000000E-002  0.93750000000000000        0.0000000000000000     
   3.1250000000000000E-002  0.95312500000000000        0.0000000000000000     
   9.3749999999999997E-003  0.94687500000000002        0.0000000000000000     
   2.0312500000000001E-002  0.94843750000000004        0.0000000000000000     
   2.1874999999999999E-002  0.95937499999999998        0.0000000000000000     
   1.0937499999999999E-002  0.95781249999999996        0.0000000000000000     
   4.6875000000000000E-002  0.93750000000000000        0.0000000000000000     
   6.2500000000000000E-002  0.93750000000000000        0.0000000000000000     
   6.2500000000000000E-002  0.95312500000000000        0.0000000000000000     
   4.0625000000000001E-002  0.94687500000000002        0.0000000000000000     
   5.1562499999999997E-002  0.94843750000000004        0.0000000000000000     
   5.3124999999999999E-002  0.95937499999999998        0.0000000000000000     
   4.2187500000000003E-002  0.95781249999999996        0.0000000000000000     
   7.8125000000000000E-002  0.96875000000000000        0.0000000000000000     
   9.3750000000000000E-002  0.96875000000000000        0.0000000000000000     
   9.3750000000000000E-002  0.98437500000000000        0.0000000000000000     
   7.1874999999999994E-002  0.97812500000000002        0.0000000000000000     
   8.2812499999999997E-002  0.97968750000000004        0.0000000000000000     
   8.4375000000000006E-002  0.99062499999999998        0.0000000000000000     
   7.3437500000000003E-002  0.98906249999999996        0.0000000000000000     
  0.10937500000000000       0.96875000000000000        0.0000000000000000     
  0.12500000000000000       0.96875000000000000        0.0000000000000000     
  0.12500000000000000       0.98437500000000000        0.0000000000000000     
  0.10312499999999999       0.97812500000000002        0.0000000000000000     
  0.11406250000000000       0.97968750000000004        0.0000000000000000     
  0.11562500000000001       0.99062499999999998        0.0000000000000000     
  0.10468750000000000       0.98906249999999996        0.0000000000000000     
   7.8125000000000000E-002  0.93750000000000000        0.0000000000000000     
   9.3750000000000000E-002  0.93750000000000000        0.0000000000000000     
   9.3750000000000000E-002  0.95312500000000000        0.0000000000000000     
   7.1874999999999994E-002  0.94687500000000002        0.0000000000000000     
   8.2812499999999997E-002  0.94843750000000004        0.0000000000000000     
   8.4375000000000006E-002  0.95937499999999998        0.0000000000000000     
   7.3437500000000003E-002  0.95781249999999996        0.0000000000000000     
  0.10937500000000000       0.93750000000000000        0.0000000000000000     
  0.12500000000000000       0.93750000000000000        0.0000000000000000     
  0.12500000000000000       0.95312500000000000        0.0000000000000000     
  0.10312499999999999       0.94687500000000002        0.0000000000000000     
  0.11406250000000000       0.94843750000000004        0.0000000000000000     
  0.11562500000000001       0.95937499999999998        0.0000000000000000     
  0.10468750000000000       0.95781249999999996        0.0000000000000000     
   1.5625000000000000E-002  0.90625000000000000        0.0000000000000000     
   3.1250000000000000E-002  0.90625000000000000        0.0000000000000000     
   3.1250000000000000E-002  0.92187500000000000        0.0000000000000000     
   9.3749999999999997E-003  0.91562500000000002        0.0000000000000000     
   2.0312500000000001E-002  0.91718750000000004        0.0000000000000000     
   2.1874999999999999E-002  0.92812499999999998        0.0000000000000000     
   1.0937499999999999E-002  0.92656249999999996        0.0000000000000000     
   4.6875000000000000E-002  0.90625000000000000        0.0000000000000000     
   6.2500000000000000E-002  0.90625000000000000        0.0000000000000000     
   6.2500000000000000E-002  0.92187500000000000        0.0000000000000000     
   4.0625000000000001E-002  0.91562500000000002        0.0000000000000000     
   5.1562499999999997E-002  0.91718750000000004        0.0000000000000000     
   5.3124999999999999E-002  0.92812499999999998        0.0000000000000000     
   4.2187500000000003E-002  0.92656249999999996        0.0000000000000000     
   1.5625000000000000E-002  0.87500000000000000        0.0000000000000000     
   3.1250000000000000E-002  0.87500000000000000        0.0000000000000000     
   3.1250000000000000E-002  0.89062500000000000        0.0000000000000000     
   9.3749999999999997E-003  0.88437500000000002        0.0000000000000000     
   2.0312500000000001E-002  0.88593750000000004        0.0000000000000000     
   2.1874999999999999E-002  0.89687499999999998        0.0000000000000000     
   1.0937499999999999E-002  0.89531249999999996        0.0000000000000000     
   4.6875000000000000E-002  0.87500000000000000        0.0000000000000000     
   6.2500000000000000E-002  0.87500000000000000        0.0000000000000000     
   6.2500000000000000E-002  0.89062500000000000        0.0000000000000000     
   4.0625000000000001E-002  0.88437500000000002        0.0000000000000000     
   5.1562499999999997E-002  0.88593750000000004        0.0000000000000000     
   5.3124999999999999E-002  0.89687499999999998        0.0000000000000000     
   4.2187500000000003E-002  0.89531249999999996        0.0000000000000000     
   7.8125000000000000E-002  0.90625000000000000        0.0000000000000000     
   9.3750000000000000E-002  0.90625000000000000        0.0000000000000000     
   9.3750000000000000E-002  0.92187500000000000        0.0000000000000000     
   7.1874999999999994E-002  0.91562500000000002        0.0000000000000000     
   8.2812499999999997E-002  0.91718750000000004        0.0000000000000000     
   8.4375000000000006E-002  0.92812499999999998        0.0000000000000000     
   7.3437500000000003E-002  0.92656249999999996        0.0000000000000000     
  0.10937500000000000       0.90625000000000000        0.0000000000000000     
  0.12500000000000000       0.90625000000000000        0.0000000000000000     
  0.12500000000000000       0.92187500000000000        0.0000000000000000     
  0.10312499999999999       0.91562500000000002        0.0000000000000000     
  0.11406250000000000       0.91718750000000004        0.0000000000000000     
  0.11562500000000001       0.92812499999999998        0.0000000000000000     
  0.10468750000000000       0.92656249999999996        0.0000000000000000     
   7.8125000000000000E-002  0.87500000000000000        0.0000000000000000     
   9.3750000000000000E-002  0.87500000000000000        0.0000000000000000     
   9.3750000000000000E-002  0.89062500000000000        0.0000000000000000     
   7.1874999999999994E-002  0.88437500000000002        0.0000000000000000     
   8.2812499999999997E-002  0.88593750000000004        0.0000000000000000     
   8.4375000000000006E-002  0.89687499999999998        0.0000000000000000     
   7.3437500000000003E-002  0.89531249999999996        0.0000000000000000     
  0.10937500000000000       0.87500000000000000        0.0000000000000000     
  0.12500000000000000       0.87500000000000000        0.0000000000000000     
  0.12500000000000000       0.89062500000000000        0.0000000000000000     
  0.10312499999999999       0.88437500000000002        0.0000000000000000     
  0.11406250000000000       0.88593750000000004        0.0000000000000000     
  0.11562500000000001       0.89687499999999998        0.0000000000000000     
  0.10468750000000000       0.89531249999999996        0.0000000000000000     
  0.14062500000000000       0.96875000000000000        0.0000000000000000     
  0.15625000000000000       0.96875000000000000        0.0000000000000000     
  0.15625000000000000       0.98437500000000000        0.0000000000000000     
  0.13437499999999999       0.97812500000000002        0.0000000000000000     
  0.14531250000000001       0.97968750000000004        0.0000000000000000     
  0.14687500000000001       0.99062499999999998        0.0000000000000000     
  0.13593749999999999       0.98906249999999996        0.0000000000000000     
  0.17187500000000000       0.96875000000000000        0.0000000000000000     
  0.18750000000000000       0.96875000000000000        0.0000000000000000     
  0.18750000000000000       0.98437500000000000        0.0000000000000000     
  0.16562499999999999       0.97812500000000002        0.0000000000000000     
  0.17656250000000001       0.97968750000000004        0.0000000000000000     
[...]
 CELL_DATA       14336
 SCALARS Nutrient float
 LOOKUP_TABLE default
    0.69772773361008212645E-02
    0.69771941737495303190E-02
    0.69778458212776646799E-02
    0.69778458211846383988E-02
    0.69771941741222903016E-02
    0.69772773357793579224E-02
    0.69767608222047550540E-02
    0.69764550366027081735E-02
    0.69761248956885617278E-02
    0.69761248935505523402E-02
    0.69764550377031404188E-02
    0.69767608217469754064E-02
    0.69767128634993080122E-02
    0.69767128631519539222E-02
    0.69794194726468042345E-02
    0.69799901330092643456E-02
    0.69815387124388854703E-02
    0.69819676886667464064E-02
    0.69808066380166759399E-02
    0.69813627529647726347E-02
    0.69801459596714127490E-02
    0.69791335842061368033E-02
    0.69780645185282940551E-02
    0.69776823502184989745E-02
    0.69783476639509118070E-02
    0.69782656523398444576E-02
    0.69793092683870924450E-02
    0.69795380496212389501E-02
    0.69813627530221017761E-02
    0.69808066379587769418E-02
    0.69819676886897046042E-02
    0.69815387124142740810E-02
    0.69799901330998863000E-02
    0.69794194725323445774E-02
    0.69782656525676587528E-02
    0.69783476637279365229E-02
    0.69776823505066001146E-02
    0.69780645182534470697E-02
    0.69791335843482592283E-02
    0.69801459596224718629E-02
    0.69795380496910173346E-02
    0.69793092683533633491E-02
    0.69842362769134327255E-02
    0.69844855785125793332E-02
    0.69869062375419567837E-02
    0.69869062375335581200E-02
    0.69844855785382341587E-02
    0.69842362768834003253E-02
    0.69820904057077623484E-02
    0.69814784848846169960E-02
    0.69798824347209230748E-02
    0.69798824346092814760E-02
    0.69814784849545298215E-02
    0.69820904056609074673E-02
    0.69827951814965668817E-02
    0.69827951814765299582E-02
    0.69851424499003970589E-02
    0.69866841648824123609E-02
    0.69897038537442114994E-02
    0.69908284543542731013E-02
    0.69888308157573771420E-02
    0.69901822805675277103E-02
    0.69877969709324101039E-02
    0.69855831614496185014E-02
    0.69832932944168908326E-02
    0.69823256729672784210E-02
    0.69835475117568995493E-02
    0.69829600154953496566E-02
    0.69856296948289254428E-02
    0.69862382142039068655E-02
    0.69965864353553636895E-02
    0.69996925359525887997E-02
    0.70050269185109956954E-02
    0.70071949130435483288E-02
    0.70038274564606633338E-02
    0.70063251570485329117E-02
    0.70021091848175148753E-02
    0.69980999935086831212E-02
    0.69939314770899509849E-02
    0.69920374552521107406E-02
    0.69941793024637897991E-02
    0.69927647413330629167E-02
    0.69980197065781409027E-02
    0.69991990560208409630E-02
    0.69917383861546776244E-02
    0.69929428847451688758E-02
    0.69971878648922613067E-02
    0.69977536329396804876E-02
    0.69939796516136788079E-02
    0.69941956973466681835E-02
    0.69904736631594636270E-02
    0.69888302602133687766E-02
    0.69857847370564151238E-02
    0.69853259190729233633E-02
    0.69878765630129813582E-02
    0.69881621096640408886E-02
    0.69904956807290202433E-02
    0.69907868156520959133E-02
    0.70059414921235284648E-02
    0.70087118960233665485E-02
    0.70160177596626065177E-02
    0.70175286202713961850E-02
    0.70114885041682927999E-02
    0.70124516328410801611E-02
    0.70061714089341758580E-02
    0.70028658106610830111E-02
    0.69974961017675186420E-02
    0.69962807624514558244E-02
    0.70003197968667874723E-02
    0.70000932114217782887E-02
    0.70050449708271142132E-02
    0.70058234371693766523E-02
    0.69901822805968792315E-02
    0.69888308157629681558E-02
    0.69908284543735649610E-02
    0.69897038537522632184E-02
    0.69866841649105530451E-02
    0.69851424498806073335E-02
    0.69829600155474702908E-02
    0.69835475117255201363E-02
    0.69823256730220913460E-02
    0.69832932943875158927E-02
    0.69855831614852228334E-02
    0.69877969709449356747E-02
    0.69862382142272770602E-02
    0.69856296948367646582E-02
    0.69941956973652826338E-02
    0.69939796516185334316E-02
    0.69977536329549764119E-02
    0.69971878649011986021E-02
    0.69929428847594421806E-02
    0.69917383861474351539E-02
    0.69881621096807835722E-02
    0.69878765629968033271E-02
    0.69853259191048552856E-02
    0.69857847370403559212E-02
    0.69888302602352124146E-02
    0.69904736631614854472E-02
    0.69907868156663562076E-02
    0.69904956807325452015E-02
    0.70063251571069254386E-02
    0.70038274565069795832E-02
    0.70071949130953723253E-02
    0.70050269185546066436E-02
    0.69996925359909773628E-02
    0.69965864353749487176E-02
    0.69927647413591392800E-02
    0.69941793024835734530E-02
    0.69920374552814110874E-02
    0.69939314771142197663E-02
    0.69980999935527104031E-02
    0.70021091848713763045E-02
    0.69991990560621837603E-02
    0.69980197066118734681E-02
    0.70124516328944159690E-02
    0.70114885042146940508E-02
    0.70175286203289855350E-02
    0.70160177597138589228E-02
    0.70087118960620075139E-02
    0.70059414921454744515E-02
    0.70000932114412097937E-02
    0.70003197968846672672E-02
    0.69962807624761617561E-02
    0.69974961017879840422E-02
    0.70028658106982381859E-02
    0.70061714089761362168E-02
    0.70058234372076593974E-02
    0.70050449708602335538E-02
    0.70046501009920240574E-02
    0.70055860590982725611E-02
    0.70118810796186694864E-02
    0.70118810796149554435E-02
    0.70055860590965005411E-02
    0.70046501009800024237E-02
    0.69989122542622392298E-02
    0.69975826567785122390E-02
    0.69931789878657146450E-02
    0.69931789878582189049E-02
    0.69975826567889622132E-02
    0.69989122542699526777E-02
    0.70012200527859690113E-02
    0.70012200527830477370E-02
    0.70240996702466826015E-02
    0.70268703230109176572E-02
    0.70374667568864814754E-02
    0.70384538644784715167E-02
    0.70285893419217140496E-02
    0.70280643444123880315E-02
    0.70185647785325766534E-02
    0.70154964956846786045E-02
    0.70079805677699495703E-02
    0.70073103621440015198E-02
    0.70140196450972124367E-02
    0.70150348225778520403E-02
    0.70204476134110571639E-02
    0.70209154409925610130E-02
    0.70280643444746385834E-02
    0.70285893419735935572E-02
    0.70384538645391616848E-02
    0.70374667569350381202E-02
    0.70268703230452443653E-02
    0.70240996702638901911E-02
    0.70150348225849557329E-02
    0.70140196451140288461E-02
    0.70073103621627512785E-02
    0.70079805677920013751E-02
    0.70154964957250308746E-02
    0.70185647785874364160E-02
    0.70209154410316269856E-02
    0.70204476134434886866E-02
    0.70565034396053378032E-02
    0.70591338942711948437E-02
    0.70751099107407610170E-02
    0.70751099107295442950E-02
    0.70591338942519021166E-02
    0.70565034395599747843E-02
    0.70419880543754398081E-02
    0.70388651482413628138E-02
    0.70277911724528630000E-02
    0.70277911724610422212E-02
    0.70388651482619531141E-02
    0.70419880544230536307E-02
    0.70481274842588703677E-02
    0.70481274842529610322E-02
    0.70171255088381061238E-02
    0.70227099023130370309E-02
    0.70319514957195503047E-02
    0.70358325932261874675E-02
    0.70300814883975893885E-02
    0.70344901749060167670E-02
    0.70272136699367450038E-02
    0.70202066425906527528E-02
    0.70129517338505704960E-02
    0.70095966330766023081E-02
    0.70132480848737587670E-02
    0.70106154168249577852E-02
    0.70199427740581200538E-02
    0.70220407388321744863E-02
    0.70530904703662300470E-02
    0.70628512982850175442E-02
    0.70789331784973886716E-02
    0.70856307834306579002E-02
    0.70755888731210570680E-02
    0.70830901763851593020E-02
    0.70705666092328086497E-02
    0.70585061275463293826E-02
    0.70459618869637748867E-02
    0.70401564023600702799E-02
    0.70464454936620341333E-02
    0.70418059779930250452E-02
    0.70580594176070220874E-02
    0.70616919244742950082E-02
    0.70315113606795268814E-02
    0.70369393207870096704E-02
    0.70496204007966514413E-02
    0.70527313897354171335E-02
    0.70425767395007887739E-02
    0.70446555659376252495E-02
    0.70338278180392885264E-02
    0.70278335943324580712E-02
    0.70185413804405441876E-02
    0.70161536197151730745E-02
    0.70227599187102571210E-02
    0.70217133383380370137E-02
    0.70310675186222616750E-02
    0.70326351063793287113E-02
    0.70770232299411641938E-02
    0.70870471707076944726E-02
    0.71093219013209293933E-02
    0.71150549847664645506E-02
    0.70973554414607278526E-02
    0.71010705977903156375E-02
    0.70822064088722795280E-02
    0.70716625156067225086E-02
    0.70554884995154753743E-02
    0.70511660619553741952E-02
    0.70624451410216167874E-02
    0.70601529552465390818E-02
    0.70770355092466914401E-02
    0.70798930636275193493E-02
    0.71155322758253624835E-02
    0.71321257844747833199E-02
    0.71597946554926130205E-02
    0.71708012602531090787E-02
    0.71532905482099501740E-02
    0.71655419406239286712E-02
    0.71443618058984435792E-02
    0.71240398457350345013E-02
    0.71027039318867762202E-02
    0.70928157075809900381E-02
    0.71037290544309966353E-02
    0.70959366595488744534E-02
    0.71235971821440946875E-02
    0.71296710051093926952E-02
    0.72221597338169062422E-02
    0.72491558236951539329E-02
    0.72959755960469120303E-02
    0.73129569390310063953E-02
    0.72825995616572821584E-02
    0.73015102106686819231E-02
    0.72667226489567483469E-02
    0.72335560912025311311E-02
    0.71981143474451961262E-02
    0.71818175930436012680E-02
    0.72006072923671698982E-02
    0.71882416362580624572E-02
    0.72338173032796193249E-02
    0.72435403502288994021E-02
    0.71579617575267618160E-02
    0.71756983253547955079E-02
    0.72151932827820997735E-02
    0.72249372528848249120E-02
    0.71931980234781695352E-02
    0.71987831973244426412E-02
    0.71657972105752393288E-02
    0.71479628500320914822E-02
    0.71198109480897359136E-02
    0.71124177167700610575E-02
    0.71322358206511657364E-02
    0.71281850462119062534E-02
    0.71578452731193634162E-02
    0.71627113691802128670E-02
    0.73011433086126011419E-02
    0.73310658965624912395E-02
    0.74008384937524814701E-02
    0.74157410947595942680E-02
    0.73582110378827766950E-02
    0.73646454769193429521E-02
    0.73073222162596332407E-02
    0.72786428072797683050E-02
    0.72301481539770312557E-02
    0.72182686639026020711E-02
    0.72537605531069332399E-02
    0.72479470207853563188E-02
    0.72981587114630715185E-02
    0.73057777636324136572E-02
    0.70588722411429509832E-02
    0.70648795182646131202E-02
    0.70830054641889701045E-02
    0.70857898142700614236E-02
    0.70696246042988497224E-02
    0.70698388838094476661E-02
    0.70536519546031501912E-02
    0.70475509960239357196E-02
    0.70346202276855215874E-02
    0.70328245350880442058E-02
    0.70435709359896112036E-02
    0.70440761152056156902E-02
    0.70548465106785819209E-02
    0.70561216763931067231E-02
    0.71209211991232175890E-02
    0.71329432596800969660E-02
    0.71648897699338439174E-02
    0.71710398099892914969E-02
    0.71432260758607837164E-02
    0.71445717232803528790E-02
    0.71161872982655272404E-02
    0.71048075821367306232E-02
    0.70821067822987573623E-02
    0.70783403305294248162E-02
    0.70963506926029068511E-02
    0.70958469626697939781E-02
    0.71164185724352877621E-02
    0.71191613888843654004E-02
    0.71058073667130006862E-02
    0.71124683824059977549E-02
    0.71389361366778611093E-02
    0.71411160575209605209E-02
    0.71160398352467105557E-02
    0.71139963177834159361E-02
    0.70899020708225417645E-02
    0.70830008251302105718E-02
    0.70643115951562430663E-02
    0.70630563787742392523E-02
    0.70801330359014898533E-02
    0.70830055393404358841E-02
    0.70960888449094657038E-02
    0.70970308623259812861E-02
    0.71922017962324624046E-02
    0.72070231877310051219E-02
    0.72526625648873452312E-02
    0.72597034561561147800E-02
    0.72182731539462141601E-02
    0.72178563144524249609E-02
    0.71760920567260789299E-02
    0.71619416535555211270E-02
    0.71294251624230428957E-02
    0.71257070778437368863E-02
    0.71532199282412396724E-02
    0.71550658727929424691E-02
    0.71814003493513352966E-02
    0.71843232576488781985E-02
    0.72334474142002691890E-02
    0.72564409929878692998E-02
    0.73141264370253653362E-02
    0.73259849076798538164E-02
    0.72760265148502940163E-02
    0.72784404997012002933E-02
    0.72276068985883054618E-02
    0.72072785233889963274E-02
    0.71668590530129128863E-02
    0.71598084040529856586E-02
    0.71913266713800856958E-02
    0.71892567708888239011E-02
    0.72274491734911853330E-02
    0.72326511062559490153E-02
    0.74394623161227781127E-02
    0.74814389852455786753E-02
    0.75869734492761417913E-02
    0.76073178368040337768E-02
    0.75148741022590444943E-02
    0.75161546492331149025E-02
    0.74243074296581152913E-02
    0.73899296587639530520E-02
    0.73176107255155135520E-02
    0.73056577525851471022E-02
    0.73628122162953685975E-02
    0.73591719605949909924E-02
    0.74280287467434801332E-02
    0.74368955537579030379E-02
    0.73490312338916861934E-02
    0.73803646172128757955E-02
    0.74628580090094851635E-02
    0.74795493410935529749E-02
    0.74067443360076000436E-02
    0.74090240684352992595E-02
    0.73337088055846688314E-02
    0.73062024332868060958E-02
    0.72476909502483862630E-02
    0.72392639779504637867E-02
    0.72860958572323513208E-02
    0.72852304715245947211E-02
    0.73376011554159865230E-02
    0.73444085277608170056E-02
    0.76428279576483569221E-02
    0.77056245209688569234E-02
    0.78597073945025665298E-02
    0.78935379136906413250E-02
    0.77585837152632066219E-02
    0.77629422784970623234E-02
    0.76235236963838933638E-02
    0.75727179152853471567E-02
    0.74651468307752374270E-02
    0.74486181168114786247E-02
    0.75328852407624633664E-02
    0.75273793985713181517E-02
    0.76287907868358047214E-02
    0.76423842704696929792E-02
    0.70344901750472015739E-02
    0.70300814885207616942E-02
    0.70358325933600907726E-02
    0.70319514958385002934E-02
    0.70227099024102066990E-02
    0.70171255089122794302E-02
    0.70106154168842827260E-02
    0.70132480849457471891E-02
    0.70095966331447327052E-02
    0.70129517339289140776E-02
    0.70202066426951021880E-02
    0.70272136700696300263E-02
    0.70220407389349689953E-02
    0.70199427741519312973E-02
    0.70446555660813028540E-02
    0.70425767396365482331E-02
    0.70527313898963743186E-02
    0.70496204009475238114E-02
    0.70369393209019229576E-02
    0.70315113607684132449E-02
    0.70217133384031299101E-02
    0.70227599187867835798E-02
    0.70161536197811740986E-02
    0.70185413805162431833E-02
    0.70278335944343834837E-02
    0.70338278181600287497E-02
    0.70326351064894107937E-02
    0.70310675187252591467E-02
    0.70830901766972681477E-02
    0.70755888734003197921E-02
    0.70856307837349813070E-02
    0.70789331787734924642E-02
    0.70628512985128127574E-02
    0.70530904705525913900E-02
    0.70418059781415503345E-02
    0.70464454938385578595E-02
    0.70401564025223987639E-02
    0.70459618871499081136E-02
    0.70585061277817964104E-02
    0.70705666095247097017E-02
    0.70616919247100638779E-02
    0.70580594178262460320E-02
    0.71010705981243990928E-02
    0.70973554417842711281E-02
    0.71150549851465060350E-02
    0.71093219016845317706E-02
    0.70870471709915455402E-02
    0.70770232301773728159E-02
    0.70601529554254758084E-02
    0.70624451412222687824E-02
    0.70511660621251455103E-02
    0.70554884997062021490E-02
    0.70716625158516090849E-02
    0.70822064091557159968E-02
    0.70798930638943571164E-02
    0.70770355095011554247E-02
    0.70698388839965905020E-02
    0.70696246044725666660E-02
    0.70857898144737916854E-02
    0.70830054643727206887E-02
    0.70648795184042930545E-02
    0.70588722412505090428E-02
    0.70440761152778729945E-02
    0.70435709360818065522E-02
    0.70328245351663921242E-02
    0.70346202277774255024E-02
    0.70475509961535481862E-02
    0.70536519547647735101E-02
    0.70561216765309504526E-02
    0.70548465108058334289E-02
    0.71139963179952837857E-02
    0.71160398354195098305E-02
    0.71411160577102257910E-02
    0.71389361368254860771E-02
    0.71124683825112980720E-02
    0.71058073667658819966E-02
    0.70830055393642952707E-02
    0.70801330359694580538E-02
    0.70630563788419654589E-02
    0.70643115952552298573E-02
    0.70830008252678704206E-02
    0.70899020710123690850E-02
    0.70970308624560014127E-02
    0.70960888450189640517E-02
    0.71445717237362919849E-02
    0.71432260762980433200E-02
    0.71710398105065374652E-02
    0.71648897704132850570E-02
    0.71329432600584176047E-02
    0.71209211994402322327E-02
    0.70958469629023926406E-02
    0.70963506928672336060E-02
    0.70783403307505040475E-02
    0.70821067825457221373E-02
    0.71048075824649697951E-02
    0.71161872986541287178E-02
    0.71191613892422275778E-02
    0.71164185727746222254E-02
    0.72178563150324297551E-02
    0.72182731544724390571E-02
    0.72597034567506374750E-02
    0.72526625654183354136E-02
    0.72070231881406765506E-02
    0.71922017965468610853E-02
    0.71550658730154138160E-02
    0.71532199285330262326E-02
    0.71257070781028230416E-02
    0.71294251627371909089E-02
    0.71619416539640840674E-02
    0.71760920572322417499E-02
    0.71843232580709320834E-02
    0.71814003497393408965E-02
    0.71655419412670097457E-02
    0.71532905487950611267E-02
    0.71708012608903007670E-02
    0.71597946560820521084E-02
    0.71321257849637203358E-02
    0.71155322762386464738E-02
    0.70959366598828434169E-02
    0.71037290548163151485E-02
    0.70928157079340557051E-02
    0.71027039322862448728E-02
    0.71240398462284540426E-02
    0.71443618064977124776E-02
    0.71296710056077310450E-02
    0.71235971826122436446E-02
    0.71987831980393577475E-02
    0.71931980241766446671E-02
    0.72249372537078167603E-02
    0.72151932835717389608E-02
    0.71756983259841939510E-02
    0.71579617580672634872E-02
    0.71281850466319253076E-02
    0.71322358211064673314E-02
    0.71124177171565045388E-02
    0.71198109485133467128E-02
    0.71479628505658103846E-02
    0.71657972111805823615E-02
    0.71627113697646932478E-02
    0.71578452736817234706E-02
    0.73015102119197844432E-02
    0.72825995628197351048E-02
    0.73129569403153106555E-02
    0.72959755972372229010E-02
    0.72491558246876187238E-02
    0.72221597346696407918E-02
    0.71882416369566720302E-02
    0.72006072931543431762E-02
    0.71818175937642236145E-02
    0.71981143482506481854E-02
    0.72335560921806818513E-02
    0.72667226501220557808E-02
    0.72435403512257677885E-02
    0.72338173042231345561E-02
    0.73646454783474913502E-02
    0.73582110393091443995E-02
    0.74157410964504890880E-02
    0.74008384953827398983E-02
    0.73310658978695845620E-02
    0.73011433097604268999E-02
    0.72479470216847783487E-02
    0.72537605540648605537E-02
    0.72182686647137882588E-02
    0.72301481548572585703E-02
    0.72786428083726961366E-02
    0.73073222174818179206E-02
    0.73057777648350800959E-02
    0.72981587126283659420E-02
    0.72784405006981979167E-02
    0.72760265158283770823E-02
    0.73259849088339722839E-02
    0.73141264381222665519E-02
    0.72564409938629627003E-02
    0.72334474149642535509E-02
    0.71892567714653557789E-02
    0.71913266720070095558E-02
    0.71598084045755728405E-02
    0.71668590535828172530E-02
    0.72072785241251895519E-02
    0.72276068994374231130E-02
    0.72326511070675550061E-02
    0.72274491742716166082E-02
    0.74090240697871076817E-02
    0.74067443372784341760E-02
    0.74795493425595920706E-02
    0.74628580103567251913E-02
    0.73803646182875647444E-02
    0.73490312347852136329E-02
    0.72852304722032940054E-02
    0.72860958580149111016E-02
    0.72392639786318128611E-02
    0.72476909510198108538E-02
    0.73062024342699033799E-02
    0.73337088067429835950E-02