# vtk DataFile Version 3.0
LAPLACIEN  2D
ASCII
DATASET UNSTRUCTURED_GRID
FIELD FieldData 1
TIME 1 1 double
17.2000
 POINTS        7297  float
   1.5625000000000000E-002  0.96875000000000000        0.0000000000000000     
   3.1250000000000000E-002  0.96875000000000000        0.0000000000000000     
   3.1250000000000000E-002  0.98437500000000000        0.0000000000000000     
   9.3749999999999997E-003  0.97812500000000002        0.0000000000000000     
   2.0312500000000001E-002  0.97968750000000004        0.0000000000000000     
   2.1874999999999999E-002  0.99062499999999998        0.0000000000000000     
   1.0937499999999999E-002  0.98906249999999996        0.0000000000000000     
   4.6875000000000000E-002  0.96875000000000000        0.0000000000000000     
   6.2500000000000000E-002  0.96875000000000000        0.0000000000000000     
   6.2500000000000000E-002  0.98437500000000000        0.0000000000000000     
   4.0625000000000001E-002  0.97812500000000002        0.0000000000000000     
   5.1562499999999997E-002  0.97968750000000004        0.0000000000000000     
   5.3124999999999999E-002  0.99062499999999998        0.0000000000000000     
   4.2187500000000003E-002  0.98906249999999996        0.0000000000000000     
   1.5625000000000000E-002  0.93750000000000000        0.0000000000000000     
   3.1250000000000000E-002  0.93750000000000000        0.0000000000000000     
   3.1250000000000000E-002  0.95312500000000000        0.0000000000000000     
   9.3749999999999997E-003  0.94687500000000002        0.0000000000000000     
   2.0312500000000001E-002  0.94843750000000004        0.0000000000000000     
   2.1874999999999999E-002  0.95937499999999998        0.0000000000000000     
   1.0937499999999999E-002  0.95781249999999996        0.0000000000000000     
   4.6875000000000000E-002  0.93750000000000000        0.0000000000000000     
   6.2500000000000000E-002  0.93750000000000000        0.0000000000000000     
   6.2500000000000000E-002  0.95312500000000000        0.0000000000000000     
   4.0625000000000001E-002  0.94687500000000002        0.0000000000000000     
   5.1562499999999997E-002  0.94843750000000004        0.0000000000000000     
   5.3124999999999999E-002  0.95937499999999998        0.0000000000000000     
   4.2187500000000003E-002  0.95781249999999996        0.0000000000000000     
   7.8125000000000000E-002  0.96875000000000000        0.0000000000000000     
   9.3750000000000000E-002  0.96875000000000000        0.0000000000000000     
   9.3750000000000000E-002  0.98437500000000000        0.0000000000000000     
   7.1874999999999994E-002  0.97812500000000002        0.0000000000000000     
   8.2812499999999997E-002  0.97968750000000004        0.0000000000000000     
   8.4375000000000006E-002  0.99062499999999998        0.0000000000000000     
   7.3437500000000003E-002  0.98906249999999996        0.0000000000000000     
  0.10937500000000000       0.96875000000000000        0.0000000000000000     
  0.12500000000000000       0.96875000000000000        0.0000000000000000     
  0.12500000000000000       0.98437500000000000        0.0000000000000000     
  0.10312499999999999       0.97812500000000002        0.0000000000000000     
  0.11406250000000000       0.97968750000000004        0.0000000000000000     
  0.11562500000000001       0.99062499999999998        0.0000000000000000     
  0.10468750000000000       0.98906249999999996        0.0000000000000000     
   7.8125000000000000E-002  0.93750000000000000        0.0000000000000000     
   9.3750000000000000E-002  0.93750000000000000        0.0000000000000000     
   9.3750000000000000E-002  0.95312500000000000        0.0000000000000000     
   7.1874999999999994E-002  0.94687500000000002        0.0000000000000000     
   8.2812499999999997E-002  0.94843750000000004        0.0000000000000000     
   8.4375000000000006E-002  0.95937499999999998        0.0000000000000000     
   7.3437500000000003E-002  0.95781249999999996        0.0000000000000000     
  0.10937500000000000       0.93750000000000000        0.0000000000000000     
  0.12500000000000000       0.93750000000000000        0.0000000000000000     
  0.12500000000000000       0.95312500000000000        0.0000000000000000     
  0.10312499999999999       0.94687500000000002        0.0000000000000000     
  0.11406250000000000       0.94843750000000004        0.0000000000000000     
  0.11562500000000001       0.95937499999999998        0.0000000000000000     
  0.10468750000000000       0.95781249999999996        0.0000000000000000     
   1.5625000000000000E-002  0.90625000000000000        0.0000000000000000     
   3.1250000000000000E-002  0.90625000000000000        0.0000000000000000     
   3.1250000000000000E-002  0.92187500000000000        0.0000000000000000     
   9.3749999999999997E-003  0.91562500000000002        0.0000000000000000     
   2.0312500000000001E-002  0.91718750000000004        0.0000000000000000     
   2.1874999999999999E-002  0.92812499999999998        0.0000000000000000     
   1.0937499999999999E-002  0.92656249999999996        0.0000000000000000     
   4.6875000000000000E-002  0.90625000000000000        0.0000000000000000     
   6.2500000000000000E-002  0.90625000000000000        0.0000000000000000     
   6.2500000000000000E-002  0.92187500000000000        0.0000000000000000     
   4.0625000000000001E-002  0.91562500000000002        0.0000000000000000     
   5.1562499999999997E-002  0.91718750000000004        0.0000000000000000     
   5.3124999999999999E-002  0.92812499999999998        0.0000000000000000     
   4.2187500000000003E-002  0.92656249999999996        0.0000000000000000     
   1.5625000000000000E-002  0.87500000000000000        0.0000000000000000     
   3.1250000000000000E-002  0.87500000000000000        0.0000000000000000     
   3.1250000000000000E-002  0.89062500000000000        0.0000000000000000     
   9.3749999999999997E-003  0.88437500000000002        0.0000000000000000     
   2.0312500000000001E-002  0.88593750000000004        0.0000000000000000     
   2.1874999999999999E-002  0.89687499999999998        0.0000000000000000     
   1.0937499999999999E-002  0.89531249999999996        0.0000000000000000     
   4.6875000000000000E-002  0.87500000000000000        0.0000000000000000     
   6.2500000000000000E-002  0.87500000000000000        0.0000000000000000     
   6.2500000000000000E-002  0.89062500000000000        0.0000000000000000     
   4.0625000000000001E-002  0.88437500000000002        0.0000000000000000     
   5.1562499999999997E-002  0.88593750000000004        0.0000000000000000     
   5.3124999999999999E-002  0.89687499999999998        0.0000000000000000     
   4.2187500000000003E-002  0.89531249999999996        0.0000000000000000     
   7.8125000000000000E-002  0.90625000000000000        0.0000000000000000     
   9.3750000000000000E-002  0.90625000000000000        0.0000000000000000     
   9.3750000000000000E-002  0.92187500000000000        0.0000000000000000     
   7.1874999999999994E-002  0.91562500000000002        0.0000000000000000     
   8.2812499999999997E-002  0.91718750000000004        0.0000000000000000     
   8.4375000000000006E-002  0.92812499999999998        0.0000000000000000     
   7.3437500000000003E-002  0.92656249999999996        0.0000000000000000     
  0.10937500000000000       0.90625000000000000        0.0000000000000000     
  0.12500000000000000       0.90625000000000000        0.0000000000000000     
  0.12500000000000000       0.92187500000000000        0.0000000000000000     
  0.10312499999999999       0.91562500000000002        0.0000000000000000     
  0.11406250000000000       0.91718750000000004        0.0000000000000000     
  0.11562500000000001       0.92812499999999998        0.0000000000000000     
  0.10468750000000000       0.92656249999999996        0.0000000000000000     
   7.8125000000000000E-002  0.87500000000000000        0.0000000000000000     
   9.3750000000000000E-002  0.87500000000000000        0.0000000000000000     
   9.3750000000000000E-002  0.89062500000000000        0.0000000000000000     
   7.1874999999999994E-002  0.88437500000000002        0.0000000000000000     
   8.2812499999999997E-002  0.88593750000000004        0.0000000000000000     
   8.4375000000000006E-002  0.89687499999999998        0.0000000000000000     
   7.3437500000000003E-002  0.89531249999999996        0.0000000000000000     
  0.10937500000000000       0.87500000000000000        0.0000000000000000     
  0.12500000000000000       0.87500000000000000        0.0000000000000000     
  0.12500000000000000       0.89062500000000000        0.0000000000000000     
  0.10312499999999999       0.88437500000000002        0.0000000000000000     
  0.11406250000000000       0.88593750000000004        0.0000000000000000     
  0.11562500000000001       0.89687499999999998        0.0000000000000000     
  0.10468750000000000       0.89531249999999996        0.0000000000000000     
  0.14062500000000000       0.96875000000000000        0.0000000000000000     
  0.15625000000000000       0.96875000000000000        0.0000000000000000     
  0.15625000000000000       0.98437500000000000        0.0000000000000000     
  0.13437499999999999       0.97812500000000002        0.0000000000000000     
  0.14531250000000001       0.97968750000000004        0.0000000000000000     
  0.14687500000000001       0.99062499999999998        0.0000000000000000     
  0.13593749999999999       0.98906249999999996        0.0000000000000000     
  0.17187500000000000       0.96875000000000000        0.0000000000000000     
  0.18750000000000000       0.96875000000000000        0.0000000000000000     
  0.18750000000000000       0.98437500000000000        0.0000000000000000     
  0.16562499999999999       0.97812500000000002        0.0000000000000000     
  0.17656250000000001       0.97968750000000004        0.0000000000000000     
[...]
 CELL_DATA       14336
 SCALARS Nutrient float
 LOOKUP_TABLE default
    0.11449421290964828177E-01
    0.11449338767843849143E-01
    0.11449991770089007828E-01
    0.11449991769933481195E-01
    0.11449338768466470889E-01
    0.11449421290433081655E-01
    0.11448904048843808537E-01
    0.11448597515254045620E-01
    0.11448266346743526597E-01
    0.11448266343177450344E-01
    0.11448597517088082015E-01
    0.11448904048077305357E-01
    0.11448856187564497230E-01
    0.11448856186985741437E-01
    0.11451569730474007655E-01
    0.11452141906759203197E-01
    0.11453694390546251963E-01
    0.11454124471184538858E-01
    0.11452960560054152236E-01
    0.11453517923977607831E-01
    0.11452297958446924428E-01
    0.11451283189306984620E-01
    0.11450210908106848995E-01
    0.11449828536062826509E-01
    0.11450494861773198238E-01
    0.11450412909957897317E-01
    0.11451459538325818588E-01
    0.11451688545459921820E-01
    0.11453517924067346812E-01
    0.11452960559952769792E-01
    0.11454124471219181286E-01
    0.11453694390502845712E-01
    0.11452141906907799609E-01
    0.11451569730281949480E-01
    0.11450412910336335917E-01
    0.11450494861398347046E-01
    0.11449828536542533061E-01
    0.11450210907643946709E-01
    0.11451283189539236337E-01
    0.11452297958357161162E-01
    0.11451688545571655359E-01
    0.11451459538266935134E-01
    0.11456398615679331751E-01
    0.11456648670712912125E-01
    0.11459075156793244177E-01
    0.11459075156779286592E-01
    0.11456648670756583788E-01
    0.11456398615631803797E-01
    0.11454247458985719957E-01
    0.11453634121123063699E-01
    0.11452033986646755967E-01
    0.11452033986460587178E-01
    0.11453634121238585875E-01
    0.11454247458905102153E-01
    0.11454954235952928901E-01
    0.11454954235919573638E-01
    0.11457307193835156167E-01
    0.11458852818469122611E-01
    0.11461879760234357575E-01
    0.11463007034957744049E-01
    0.11461004801487553739E-01
    0.11462359217710561474E-01
    0.11459968286881250590E-01
    0.11457749090477427345E-01
    0.11455453494842362389E-01
    0.11454483165075189308E-01
    0.11455708367298016864E-01
    0.11455119200012596481E-01
    0.11457795732530555097E-01
    0.11458405896261720722E-01
    0.11468778540262750121E-01
    0.11471891900866214645E-01
    0.11477238372930732152E-01
    0.11479411577976451550E-01
    0.11476036658358130388E-01
    0.11478539811920688077E-01
    0.11474314356452051250E-01
    0.11470295889669534367E-01
    0.11466117586823070668E-01
    0.11464218954379571877E-01
    0.11466365995853702517E-01
    0.11464947894838801654E-01
    0.11470215363912924719E-01
    0.11471397558515797344E-01
    0.11463918761255072892E-01
    0.11465126305293399031E-01
    0.11469381142121320635E-01
    0.11469948315026132560E-01
    0.11466165616142004122E-01
    0.11466382041592147051E-01
    0.11462651366834060440E-01
    0.11461004017269713767E-01
    0.11457951024761563533E-01
    0.11457490893001043633E-01
    0.11460047892051556870E-01
    0.11460334016801462104E-01
    0.11462673413924756929E-01
    0.11462965318232355705E-01
    0.11478154776127241429E-01
    0.11480931656682170222E-01
    0.11488253474988139452E-01
    0.11489767926002387305E-01
    0.11483714565728475251E-01
    0.11484679656096971265E-01
    0.11478385579749008152E-01
    0.11475072364735196262E-01
    0.11469690367650860544E-01
    0.11468471942679766759E-01
    0.11472520534667867212E-01
    0.11472293262923127441E-01
    0.11477256554389046739E-01
    0.11478036915713902763E-01
    0.11462359217744400725E-01
    0.11461004801485350640E-01
    0.11463007034978654405E-01
    0.11461879760238153150E-01
    0.11458852818508467875E-01
    0.11457307193797245520E-01
    0.11455119200095923923E-01
    0.11455708367239430048E-01
    0.11454483165157564387E-01
    0.11455453494785170290E-01
    0.11457749090525420205E-01
    0.11459968286887051506E-01
    0.11458405896291313369E-01
    0.11457795732534517205E-01
    0.11466382041613614254E-01
    0.11466165616141979836E-01
    0.11469948315042470185E-01
    0.11469381142128183201E-01
    0.11465126305312262414E-01
    0.11463918761241542049E-01
    0.11460334016829692994E-01
    0.11460047892021785546E-01
    0.11457490893051149386E-01
    0.11457951024729960340E-01
    0.11461004017299743565E-01
    0.11462651366828916985E-01
    0.11462965318250055088E-01
    0.11462673413925664190E-01
    0.11478539811978787435E-01
    0.11476036658401947768E-01
    0.11479411578027584259E-01
    0.11477238372972421027E-01
    0.11471891900905877362E-01
    0.11468778540277868236E-01
    0.11464947894869613812E-01
    0.11466365995868104191E-01
    0.11464218954412436213E-01
    0.11466117586842045073E-01
    0.11470295889714671872E-01
    0.11474314356503634987E-01
    0.11471397558557017843E-01
    0.11470215363945126391E-01
    0.11484679656149802268E-01
    0.11483714565772795702E-01
    0.11489767926059444095E-01
    0.11488253475037955506E-01
    0.11480931656721243134E-01
    0.11478154776146944419E-01
    0.11472293262944951997E-01
    0.11472520534681824797E-01
    0.11468471942707711420E-01
    0.11469690367667794914E-01
    0.11475072364772877925E-01
    0.11478385579788580664E-01
    0.11478036915752174232E-01
    0.11477256554421015958E-01
    0.11476860305551780245E-01
    0.11477798526373789167E-01
    0.11484107410360065715E-01
    0.11484107410355723702E-01
    0.11477798526373778759E-01
    0.11476860305538448895E-01
    0.11471109491691347526E-01
    0.11469776769997708926E-01
    0.11465362726170316363E-01
    0.11465362726156832357E-01
    0.11469776770011838249E-01
    0.11471109491695776275E-01
    0.11473422678045241963E-01
    0.11473422678041297201E-01
    0.11496352801978715688E-01
    0.11499129471897965443E-01
    0.11509748433760354225E-01
    0.11510737789458035454E-01
    0.11500852267748936514E-01
    0.11500326140317974205E-01
    0.11490806267762145032E-01
    0.11487731047848949786E-01
    0.11480198454901243896E-01
    0.11479526506030322125E-01
    0.11486250764916603948E-01
    0.11487268150840283104E-01
    0.11492692918861773660E-01
    0.11493161920196150183E-01
    0.11500326140379765055E-01
    0.11500852267799614725E-01
    0.11510737789518511384E-01
    0.11509748433808083407E-01
    0.11499129471932503788E-01
    0.11496352801995212908E-01
    0.11487268150848221199E-01
    0.11486250764931848697E-01
    0.11479526506050434509E-01
    0.11480198454921208828E-01
    0.11487731047889611705E-01
    0.11490806267815503391E-01
    0.11493161920235014928E-01
    0.11492692918893503487E-01
    0.11528825044551353415E-01
    0.11531461333758364490E-01
    0.11547469679215232111E-01
    0.11547469679203755180E-01
    0.11531461333739521924E-01
    0.11528825044506217645E-01
    0.11514279530265850854E-01
    0.11511150208399196712E-01
    0.11500052450585543026E-01
    0.11500052450592971112E-01
    0.11511150208420072374E-01
    0.11514279530312837574E-01
    0.11520432220159942949E-01
    0.11520432220153966826E-01
    0.11489364113516052635E-01
    0.11494961108249218337E-01
    0.11504222287990981469E-01
    0.11508112390042134904E-01
    0.11502349099435179094E-01
    0.11506767171696744706E-01
    0.11499475053650962467E-01
    0.11492452533089815570E-01
    0.11485181630228206984E-01
    0.11481818762250363061E-01
    0.11485478620490773699E-01
    0.11482839540682718976E-01
    0.11492188043691103222E-01
    0.11494290856218189120E-01
    0.11525405956825503229E-01
    0.11535186993261599062E-01
    0.11551300930360594577E-01
    0.11558012878759446607E-01
    0.11547951055869021958E-01
    0.11555467484027252129E-01
    0.11542919104420595877E-01
    0.11530833554725875359E-01
    0.11518263412100554141E-01
    0.11512445366545583439E-01
    0.11518747881409396178E-01
    0.11514097773216021639E-01
    0.11530385676798742683E-01
    0.11534026018256577847E-01
    0.11503780628409877862E-01
    0.11509220123116796833E-01
    0.11521927218771269713E-01
    0.11525045298928046633E-01
    0.11514869500936286001E-01
    0.11516952791530638348E-01
    0.11506102950049388808E-01
    0.11500095245870499416E-01
    0.11490783088029293130E-01
    0.11488389684481048122E-01
    0.11495010659433707242E-01
    0.11493961481226812327E-01
    0.11503336037154195809E-01
    0.11504907227880447132E-01
    0.11549385510089934387E-01
    0.11559429546486947246E-01
    0.11581746895531555563E-01
    0.11587491563756132165E-01
    0.11569758406087359351E-01
    0.11573481221002671071E-01
    0.11554580832578166191E-01
    0.11544015201218237737E-01
    0.11527808692275683458E-01
    0.11523476725961271511E-01
    0.11534778919568878380E-01
    0.11532481339306083906E-01
    0.11549398364437619621E-01
    0.11552261988085666539E-01
    0.11587971950927186682E-01
    0.11604597645739758022E-01
    0.11632318468189555699E-01
    0.11643346062946865332E-01
    0.11625803777915067957E-01
    0.11638078531589034562E-01
    0.11616858923836582626E-01
    0.11596497764517037232E-01
    0.11575120643479193047E-01
    0.11565212325395804113E-01
    0.11576147144218337098E-01
    0.11568338362331308244E-01
    0.11596053503915938754E-01
    0.11602139382116224975E-01
    0.11694796826034204937E-01
    0.11721841921777366446E-01
    0.11768742686430145802E-01
    0.11785754484803944234E-01
    0.11755347120155400578E-01
    0.11774292074230790356E-01
    0.11739444183999527341E-01
    0.11706217409340429272E-01
    0.11670712006148973444E-01
    0.11654384607093963913E-01
    0.11673207991662408120E-01
    0.11660818192723807277E-01
    0.11706477814168145951E-01
    0.11716218737449442255E-01
    0.11630477748135973487E-01
    0.11648246721175248980E-01
    0.11687811975951976559E-01
    0.11697573302201124540E-01
    0.11665779538001257512E-01
    0.11671376057801514242E-01
    0.11638331463268942328E-01
    0.11620462763261174555E-01
    0.11592258499723007148E-01
    0.11584850253977443946E-01
    0.11604705310776616128E-01
    0.11600645854365529419E-01
    0.11630362314975741661E-01
    0.11635237795148986248E-01
    0.11773908701631986481E-01
    0.11803882215101592704E-01
    0.11873768455213205494E-01
    0.11888696065842595945E-01
    0.11831075942845747581E-01
    0.11837524028618868002E-01
    0.11780107091064539321E-01
    0.11751376517123362370E-01
    0.11702798257955190561E-01
    0.11690896201325792075E-01
    0.11726448549504190841E-01
    0.11720623219543216398E-01
    0.11770922688814690685E-01
    0.11778555483713397042E-01
    0.11531198231839840176E-01
    0.11537217713581770714E-01
    0.11555379358762496445E-01
    0.11558169546851414927E-01
    0.11541972115929291509E-01
    0.11542186680427253889E-01
    0.11525967421940369606E-01
    0.11519853674429904322E-01
    0.11506896151080067692E-01
    0.11505096362191080325E-01
    0.11515865482803516046E-01
    0.11516371506018606430E-01
    0.11527164165183116651E-01
    0.11528442134950160278E-01
    0.11593368369876077412E-01
    0.11605412620152116138E-01
    0.11637418003497121063E-01
    0.11643579200637013335E-01
    0.11615714390815774781E-01
    0.11617062532157688623E-01
    0.11588625651738994338E-01
    0.11577223604848587216E-01
    0.11554479090843110256E-01
    0.11550704916283202270E-01
    0.11568750589546801175E-01
    0.11568245669307147469E-01
    0.11588856888277290075E-01
    0.11591605069505923203E-01
    0.11578227804049165753E-01
    0.11584901460455180808E-01
    0.11611419674757655560E-01
    0.11613603567058865262E-01
    0.11588478990821365205E-01
    0.11586430917388231346E-01
    0.11562290198101721900E-01
    0.11555375322952988679E-01
    0.11536648839036328304E-01
    0.11535391270698348160E-01
    0.11552502616845417710E-01
    0.11555381035219353461E-01
    0.11568489916830364608E-01
    0.11569433669874864407E-01
    0.11664783583475134277E-01
    0.11679630910545885092E-01
    0.11725350582460677615E-01
    0.11732402880555842933E-01
    0.11690898821372974759E-01
    0.11690479836133835928E-01
    0.11648641026455516106E-01
    0.11634465448467596477E-01
    0.11601888598413493542E-01
    0.11598163859371554696E-01
    0.11625729117893690914E-01
    0.11627578878535101831E-01
    0.11653960928115669055E-01
    0.11656888747738129025E-01
    0.11706096850971639545E-01
    0.11729129663785762064E-01
    0.11786912197853395209E-01
    0.11798789757216456703E-01
    0.11748748253136754444E-01
    0.11751166427950670082E-01
    0.11700246365249435815E-01
    0.11679882181910967998E-01
    0.11639390846138273489E-01
    0.11632326988765692710E-01
    0.11663902078507024096E-01
    0.11661828300288034840E-01
    0.11700087971398780498E-01
    0.11705298935133829144E-01
    0.11912449418901601209E-01
    0.11954490728944196579E-01
    0.12060186283909986316E-01
    0.12080560545159284638E-01
    0.11987978046623189513E-01
    0.11989261688613635920E-01
    0.11897272999859627787E-01
    0.11862838967957192379E-01
    0.11790403000527851715E-01
    0.11778429295524018433E-01
    0.11835676918417845083E-01
    0.11832030821828883049E-01
    0.11900997626633281687E-01
    0.11909878632133068591E-01
    0.11821882071367164485E-01
    0.11853264494681350211E-01
    0.11935890748603013994E-01
    0.11952605756213150953E-01
    0.11879683391571206272E-01
    0.11881964571080745260E-01
    0.11806527132004919836E-01
    0.11778975976256511951E-01
    0.11720365676196786014E-01
    0.11711924695608657773E-01
    0.11758837893967241661E-01
    0.11757973073496678917E-01
    0.11810429079223474028E-01
    0.11817246978209714620E-01
    0.12116134507025146452E-01
    0.12179018967580982138E-01
    0.12333324537255545283E-01
    0.12367198339556835160E-01
    0.12232050359215408675E-01
    0.12236412014513467147E-01
    0.12096790623334028117E-01
    0.12045909746727350570E-01
    0.11938174392952052155E-01
    0.11921621006331605680E-01
    0.12006020032022904354E-01
    0.12000508714680604636E-01
    0.12102069700885226614E-01
    0.12115682035164858019E-01
    0.11506767171836315353E-01
    0.11502349099556120546E-01
    0.11508112390174378079E-01
    0.11504222288107879280E-01
    0.11494961108345290793E-01
    0.11489364113588024577E-01
    0.11482839540741624981E-01
    0.11485478620560483562E-01
    0.11481818762317822988E-01
    0.11485181630304191341E-01
    0.11492452533193094066E-01
    0.11499475053781701636E-01
    0.11494290856319443195E-01
    0.11492188043783173670E-01
    0.11516952791672684445E-01
    0.11514869501070060936E-01
    0.11525045299087655071E-01
    0.11521927218920363992E-01
    0.11509220123230697042E-01
    0.11503780628497179556E-01
    0.11493961481291439450E-01
    0.11495010659508171982E-01
    0.11488389684546646691E-01
    0.11490783088103006734E-01
    0.11500095245971217461E-01
    0.11506102950168066446E-01
    0.11504907227989219498E-01
    0.11503336037255696214E-01
    0.11555467484336957515E-01
    0.11547951056145509124E-01
    0.11558012879061364819E-01
    0.11551300930634073733E-01
    0.11535186993487310872E-01
    0.11525405957009540042E-01
    0.11514097773362772306E-01
    0.11518747881583525985E-01
    0.11512445366706043626E-01
    0.11518263412284202377E-01
    0.11530833554959254647E-01
    0.11542919104709802036E-01
    0.11534026018490016116E-01
    0.11530385677015636894E-01
    0.11573481221334417854E-01
    0.11569758406408395951E-01
    0.11587491564134225555E-01
    0.11581746895892787441E-01
    0.11559429546769032365E-01
    0.11549385510324255630E-01
    0.11532481339483417748E-01
    0.11534778919767358502E-01
    0.11523476726129411318E-01
    0.11527808692464093510E-01
    0.11544015201461111167E-01
    0.11554580832859014453E-01
    0.11552261988350407892E-01
    0.11549398364689994131E-01
    0.11542186680613073999E-01
    0.11541972116101540877E-01
    0.11558169547054325532E-01
    0.11555379358944949456E-01
    0.11537217713720782780E-01
    0.11531198231946577712E-01
    0.11516371506090429186E-01
    0.11515865482894422495E-01
    0.11505096362269033594E-01
    0.11506896151170399947E-01
    0.11519853674558629478E-01
    0.11525967422100441215E-01
    0.11528442135087005674E-01
    0.11527164165309298702E-01
    0.11586430917599184129E-01
    0.11588478990993321405E-01
    0.11613603567247761036E-01
    0.11611419674904628271E-01
    0.11584901460560268621E-01
    0.11578227804101916959E-01
    0.11555381035243067131E-01
    0.11552502616912813452E-01
    0.11535391270765978089E-01
    0.11536648839134376610E-01
    0.11555375323090156733E-01
    0.11562290198290655838E-01
    0.11569433670004345902E-01
    0.11568489916939345141E-01
    0.11617062532611650144E-01
    0.11615714391251134863E-01
    0.11643579201152836830E-01
    0.11637418003974907277E-01
    0.11605412620529163489E-01
    0.11593368370191920250E-01
    0.11568245669538524886E-01
    0.11568750589809499024E-01
    0.11550704916503016020E-01
    0.11554479091088129539E-01
    0.11577223605175206156E-01
    0.11588625652125612159E-01
    0.11591605069862164282E-01
    0.11588856888615065022E-01
    0.11690479836712557027E-01
    0.11690898821897936777E-01
    0.11732402881149820925E-01
    0.11725350582990462164E-01
    0.11679630910954929418E-01
    0.11664783583788930141E-01
    0.11627578878756900105E-01
    0.11625729118184463529E-01
    0.11598163859629981656E-01
    0.11601888598726224286E-01
    0.11634465448875152410E-01
    0.11648641026960289413E-01
    0.11656888748159172434E-01
    0.11653960928502711883E-01
    0.11638078532229133646E-01
    0.11625803778496814414E-01
    0.11643346063581092378E-01
    0.11632318468775739578E-01
    0.11604597646225943766E-01
    0.11587971951337537255E-01
    0.11568338362662749716E-01
    0.11576147144600677091E-01
    0.11565212325746259889E-01
    0.11575120643875606852E-01
    0.11596497765007682951E-01
    0.11616858924432578101E-01
    0.11602139382611568325E-01
    0.11596053504381132609E-01
    0.11671376058513474247E-01
    0.11665779538696756726E-01
    0.11697573303021575886E-01
    0.11687811976738954681E-01
    0.11648246721802287332E-01
    0.11630477748674155833E-01
    0.11600645854783207464E-01
    0.11604705311229259260E-01
    0.11584850254361445804E-01
    0.11592258500143766062E-01
    0.11620462763792241065E-01
    0.11638331463871163726E-01
    0.11635237795730765664E-01
    0.11630362315535469273E-01
    0.11774292075478457256E-01
    0.11755347121314155961E-01
    0.11785754486084964662E-01
    0.11768742687616884010E-01
    0.11721841922766615060E-01
    0.11694796826883589735E-01
    0.11660818193419277000E-01
    0.11673207992446104145E-01
    0.11654384607811376154E-01
    0.11670712006950877127E-01
    0.11706217410315329988E-01
    0.11739444185161203998E-01
    0.11716218738442876757E-01
    0.11706477815108227297E-01
    0.11837524030043877418E-01
    0.11831075944268914721E-01
    0.11888696067530997100E-01
    0.11873768456840605098E-01
    0.11803882216406109962E-01
    0.11773908702777087856E-01
    0.11720623220439960882E-01
    0.11726448550459024275E-01
    0.11690896202134081275E-01
    0.11702798258832034298E-01
    0.11751376518213273517E-01
    0.11780107092283271034E-01
    0.11778555484913069348E-01
    0.11770922689977024803E-01
    0.11751166428945429912E-01
    0.11748748254112590175E-01
    0.11798789758369078104E-01
    0.11786912198948246849E-01
    0.11729129664659266458E-01
    0.11706096851734019287E-01
    0.11661828300862901384E-01
    0.11663902079131883635E-01
    0.11632326989286498331E-01
    0.11639390846705685925E-01
    0.11679882182645097768E-01
    0.11700246366096057199E-01
    0.11705298935943417651E-01
    0.11700087972177235923E-01
    0.11881964572431033197E-01
    0.11879683392840761913E-01
    0.11952605757678378198E-01
    0.11935890749949332884E-01
    0.11853264495755178737E-01
    0.11821882072260061353E-01
    0.11757973074174230682E-01
    0.11758837894748536829E-01
    0.11711924696288820297E-01
    0.11720365676966566088E-01
    0.11778975977238280437E-01
    0.11806527133161801718E-01