# vtk DataFile Version 3.0
LAPLACIEN  2D
ASCII
DATASET UNSTRUCTURED_GRID
FIELD FieldData 1
TIME 1 1 double
13.2000
 POINTS        7297  float
   1.5625000000000000E-002  0.96875000000000000        0.0000000000000000     
   3.1250000000000000E-002  0.96875000000000000        0.0000000000000000     
   3.1250000000000000E-002  0.98437500000000000        0.0000000000000000     
   9.3749999999999997E-003  0.97812500000000002        0.0000000000000000     
   2.0312500000000001E-002  0.97968750000000004        0.0000000000000000     
   2.1874999999999999E-002  0.99062499999999998        0.0000000000000000     
   1.0937499999999999E-002  0.98906249999999996        0.0000000000000000     
   4.6875000000000000E-002  0.96875000000000000        0.0000000000000000     
   6.2500000000000000E-002  0.96875000000000000        0.0000000000000000     
   6.2500000000000000E-002  0.98437500000000000        0.0000000000000000     
   4.0625000000000001E-002  0.97812500000000002        0.0000000000000000     
   5.1562499999999997E-002  0.97968750000000004        0.0000000000000000     
   5.3124999999999999E-002  0.99062499999999998        0.0000000000000000     
   4.2187500000000003E-002  0.98906249999999996        0.0000000000000000     
   1.5625000000000000E-002  0.93750000000000000        0.0000000000000000     
   3.1250000000000000E-002  0.93750000000000000        0.0000000000000000     
   3.1250000000000000E-002  0.95312500000000000        0.0000000000000000     
   9.3749999999999997E-003  0.94687500000000002        0.0000000000000000     
   2.0312500000000001E-002  0.94843750000000004        0.0000000000000000     
   2.1874999999999999E-002  0.95937499999999998        0.0000000000000000     
   1.0937499999999999E-002  0.95781249999999996        0.0000000000000000     
   4.6875000000000000E-002  0.93750000000000000        0.0000000000000000     
   6.2500000000000000E-002  0.93750000000000000        0.0000000000000000     
   6.2500000000000000E-002  0.95312500000000000        0.0000000000000000     
   4.0625000000000001E-002  0.94687500000000002        0.0000000000000000     
   5.1562499999999997E-002  0.94843750000000004        0.0000000000000000     
   5.3124999999999999E-002  0.95937499999999998        0.0000000000000000     
   4.2187500000000003E-002  0.95781249999999996        0.0000000000000000     
   7.8125000000000000E-002  0.96875000000000000        0.0000000000000000     
   9.3750000000000000E-002  0.96875000000000000        0.0000000000000000     
   9.3750000000000000E-002  0.98437500000000000        0.0000000000000000     
   7.1874999999999994E-002  0.97812500000000002        0.0000000000000000     
   8.2812499999999997E-002  0.97968750000000004        0.0000000000000000     
   8.4375000000000006E-002  0.99062499999999998        0.0000000000000000     
   7.3437500000000003E-002  0.98906249999999996        0.0000000000000000     
  0.10937500000000000       0.96875000000000000        0.0000000000000000     
  0.12500000000000000       0.96875000000000000        0.0000000000000000     
  0.12500000000000000       0.98437500000000000        0.0000000000000000     
  0.10312499999999999       0.97812500000000002        0.0000000000000000     
  0.11406250000000000       0.97968750000000004        0.0000000000000000     
  0.11562500000000001       0.99062499999999998        0.0000000000000000     
  0.10468750000000000       0.98906249999999996        0.0000000000000000     
   7.8125000000000000E-002  0.93750000000000000        0.0000000000000000     
   9.3750000000000000E-002  0.93750000000000000        0.0000000000000000     
   9.3750000000000000E-002  0.95312500000000000        0.0000000000000000     
   7.1874999999999994E-002  0.94687500000000002        0.0000000000000000     
   8.2812499999999997E-002  0.94843750000000004        0.0000000000000000     
   8.4375000000000006E-002  0.95937499999999998        0.0000000000000000     
   7.3437500000000003E-002  0.95781249999999996        0.0000000000000000     
  0.10937500000000000       0.93750000000000000        0.0000000000000000     
  0.12500000000000000       0.93750000000000000        0.0000000000000000     
  0.12500000000000000       0.95312500000000000        0.0000000000000000     
  0.10312499999999999       0.94687500000000002        0.0000000000000000     
  0.11406250000000000       0.94843750000000004        0.0000000000000000     
  0.11562500000000001       0.95937499999999998        0.0000000000000000     
  0.10468750000000000       0.95781249999999996        0.0000000000000000     
   1.5625000000000000E-002  0.90625000000000000        0.0000000000000000     
   3.1250000000000000E-002  0.90625000000000000        0.0000000000000000     
   3.1250000000000000E-002  0.92187500000000000        0.0000000000000000     
   9.3749999999999997E-003  0.91562500000000002        0.0000000000000000     
   2.0312500000000001E-002  0.91718750000000004        0.0000000000000000     
   2.1874999999999999E-002  0.92812499999999998        0.0000000000000000     
   1.0937499999999999E-002  0.92656249999999996        0.0000000000000000     
   4.6875000000000000E-002  0.90625000000000000        0.0000000000000000     
   6.2500000000000000E-002  0.90625000000000000        0.0000000000000000     
   6.2500000000000000E-002  0.92187500000000000        0.0000000000000000     
   4.0625000000000001E-002  0.91562500000000002        0.0000000000000000     
   5.1562499999999997E-002  0.91718750000000004        0.0000000000000000     
   5.3124999999999999E-002  0.92812499999999998        0.0000000000000000     
   4.2187500000000003E-002  0.92656249999999996        0.0000000000000000     
   1.5625000000000000E-002  0.87500000000000000        0.0000000000000000     
   3.1250000000000000E-002  0.87500000000000000        0.0000000000000000     
   3.1250000000000000E-002  0.89062500000000000        0.0000000000000000     
   9.3749999999999997E-003  0.88437500000000002        0.0000000000000000     
   2.0312500000000001E-002  0.88593750000000004        0.0000000000000000     
   2.1874999999999999E-002  0.89687499999999998        0.0000000000000000     
   1.0937499999999999E-002  0.89531249999999996        0.0000000000000000     
   4.6875000000000000E-002  0.87500000000000000        0.0000000000000000     
   6.2500000000000000E-002  0.87500000000000000        0.0000000000000000     
   6.2500000000000000E-002  0.89062500000000000        0.0000000000000000     
   4.0625000000000001E-002  0.88437500000000002        0.0000000000000000     
   5.1562499999999997E-002  0.88593750000000004        0.0000000000000000     
   5.3124999999999999E-002  0.89687499999999998        0.0000000000000000     
   4.2187500000000003E-002  0.89531249999999996        0.0000000000000000     
   7.8125000000000000E-002  0.90625000000000000        0.0000000000000000     
   9.3750000000000000E-002  0.90625000000000000        0.0000000000000000     
   9.3750000000000000E-002  0.92187500000000000        0.0000000000000000     
   7.1874999999999994E-002  0.91562500000000002        0.0000000000000000     
   8.2812499999999997E-002  0.91718750000000004        0.0000000000000000     
   8.4375000000000006E-002  0.92812499999999998        0.0000000000000000     
   7.3437500000000003E-002  0.92656249999999996        0.0000000000000000     
  0.10937500000000000       0.90625000000000000        0.0000000000000000     
  0.12500000000000000       0.90625000000000000        0.0000000000000000     
  0.12500000000000000       0.92187500000000000        0.0000000000000000     
  0.10312499999999999       0.91562500000000002        0.0000000000000000     
  0.11406250000000000       0.91718750000000004        0.0000000000000000     
  0.11562500000000001       0.92812499999999998        0.0000000000000000     
  0.10468750000000000       0.92656249999999996        0.0000000000000000     
   7.8125000000000000E-002  0.87500000000000000        0.0000000000000000     
   9.3750000000000000E-002  0.87500000000000000        0.0000000000000000     
   9.3750000000000000E-002  0.89062500000000000        0.0000000000000000     
   7.1874999999999994E-002  0.88437500000000002        0.0000000000000000     
   8.2812499999999997E-002  0.88593750000000004        0.0000000000000000     
   8.4375000000000006E-002  0.89687499999999998        0.0000000000000000     
   7.3437500000000003E-002  0.89531249999999996        0.0000000000000000     
  0.10937500000000000       0.87500000000000000        0.0000000000000000     
  0.12500000000000000       0.87500000000000000        0.0000000000000000     
  0.12500000000000000       0.89062500000000000        0.0000000000000000     
  0.10312499999999999       0.88437500000000002        0.0000000000000000     
  0.11406250000000000       0.88593750000000004        0.0000000000000000     
  0.11562500000000001       0.89687499999999998        0.0000000000000000     
  0.10468750000000000       0.89531249999999996        0.0000000000000000     
  0.14062500000000000       0.96875000000000000        0.0000000000000000     
  0.15625000000000000       0.96875000000000000        0.0000000000000000     
  0.15625000000000000       0.98437500000000000        0.0000000000000000     
  0.13437499999999999       0.97812500000000002        0.0000000000000000     
  0.14531250000000001       0.97968750000000004        0.0000000000000000     
  0.14687500000000001       0.99062499999999998        0.0000000000000000     
  0.13593749999999999       0.98906249999999996        0.0000000000000000     
  0.17187500000000000       0.96875000000000000        0.0000000000000000     
  0.18750000000000000       0.96875000000000000        0.0000000000000000     
  0.18750000000000000       0.98437500000000000        0.0000000000000000     
  0.16562499999999999       0.97812500000000002        0.0000000000000000     
  0.17656250000000001       0.97968750000000004        0.0000000000000000     
[...]
 CELL_DATA       14336
 SCALARS Nutrient float
 LOOKUP_TABLE default
    0.74479858856483175528E-02
    0.74479029171760349412E-02
    0.74485547124576532291E-02
    0.74485547123580896425E-02
    0.74479029175750117997E-02
    0.74479858853047651093E-02
    0.74474693819475698900E-02
    0.74471634694673691929E-02
    0.74468331976778488410E-02
    0.74468331953900573569E-02
    0.74471634706447468327E-02
    0.74474693814573960163E-02
    0.74474214046215195251E-02
    0.74474214042498836433E-02
    0.74501289485499871262E-02
    0.74506998320532655602E-02
    0.74522489070650496656E-02
    0.74526780882724248667E-02
    0.74515166461974263398E-02
    0.74520728465099477650E-02
    0.74508557058036049489E-02
    0.74498430030936904980E-02
    0.74487734482402753050E-02
    0.74483914125684155816E-02
    0.74490567062801349776E-02
    0.74489747719526031022E-02
    0.74500188018870872053E-02
    0.74502475296279744091E-02
    0.74520728465706431373E-02
    0.74515166461349728252E-02
    0.74526780882966086467E-02
    0.74522489070384502832E-02
    0.74506998321499694551E-02
    0.74501289484273855446E-02
    0.74489747721962163915E-02
    0.74490567060412366668E-02
    0.74483914128765718599E-02
    0.74487734479457140546E-02
    0.74498430032452584923E-02
    0.74508557057503697549E-02
    0.74502475297021537870E-02
    0.74500188018507091867E-02
    0.74549474109287684059E-02
    0.74551968106004087161E-02
    0.74576182618758170978E-02
    0.74576182618668381691E-02
    0.74551968106279595944E-02
    0.74549474108969032704E-02
    0.74528008514356189340E-02
    0.74521886983768071203E-02
    0.74505921144765729913E-02
    0.74505921143570965140E-02
    0.74521886984515103847E-02
    0.74528008513852200129E-02
    0.74535058636887767738E-02
    0.74535058636673494695E-02
    0.74558538995977714087E-02
    0.74573961494223996171E-02
    0.74604168183310948237E-02
    0.74615417952790009937E-02
    0.74595435297328156754E-02
    0.74608953907347461479E-02
    0.74585093216071336047E-02
    0.74562947916482257352E-02
    0.74540041062105630992E-02
    0.74530362461038184366E-02
    0.74542584202157979867E-02
    0.74536707208321005200E-02
    0.74563413563705494003E-02
    0.74569500397072621678E-02
    0.74673016023018281770E-02
    0.74704086883759495546E-02
    0.74757447158427352274E-02
    0.74779134098586471160E-02
    0.74745449340776672770E-02
    0.74770433967444411769E-02
    0.74728261220130360806E-02
    0.74688156737649242373E-02
    0.74646458288902574341E-02
    0.74627511952159658951E-02
    0.74648937329571587312E-02
    0.74634786959385367860E-02
    0.74687353534122931376E-02
    0.74699150856325467751E-02
    0.74624519658263322591E-02
    0.74636568726699258416E-02
    0.74679031941340063075E-02
    0.74684691480606758482E-02
    0.74646939831073651564E-02
    0.74649100899428387154E-02
    0.74611868866868323244E-02
    0.74595429324554474865E-02
    0.74564964232151443105E-02
    0.74560374036047594171E-02
    0.74585889163163573631E-02
    0.74588745370014059022E-02
    0.74612088870921015882E-02
    0.74615001410461749901E-02
    0.74766595334633968034E-02
    0.74794308114909686253E-02
    0.74867388428204026049E-02
    0.74882501899176815222E-02
    0.74822082719055030622E-02
    0.74831716766322825887E-02
    0.74768895671152657903E-02
    0.74735829356644646257E-02
    0.74682115683398272304E-02
    0.74669958061196030699E-02
    0.74710361337967500645E-02
    0.74708094578002830558E-02
    0.74757627726778699828E-02
    0.74765414970194878086E-02
    0.74608953907645712486E-02
    0.74595435297375644809E-02
    0.74615417952984507133E-02
    0.74604168183386781674E-02
    0.74573961494516990967E-02
    0.74558538995760674159E-02
    0.74536707208874850364E-02
    0.74542584201815528105E-02
    0.74530362461615396255E-02
    0.74540041061782443335E-02
    0.74562947916851172320E-02
    0.74585093216189323265E-02
    0.74569500397312551282E-02
    0.74563413563779818230E-02
    0.74649100899617385277E-02
    0.74646939831116872199E-02
    0.74684691480760671822E-02
    0.74679031941427250277E-02
    0.74636568726846709912E-02
    0.74624519658184331958E-02
    0.74588745370193611575E-02
    0.74585889162987490525E-02
    0.74560374036385873922E-02
    0.74564964231974518657E-02
    0.74595429324781342001E-02
    0.74611868866880873968E-02
    0.74615001410607874333E-02
    0.74612088870953489905E-02
    0.74770433968027790600E-02
    0.74745449341236920929E-02
    0.74779134099103600902E-02
    0.74757447158861145900E-02
    0.74704086884144491401E-02
    0.74673016023209248804E-02
    0.74634786959650988719E-02
    0.74648937329763543139E-02
    0.74627511952456045130E-02
    0.74646458289139624304E-02
    0.74688156738090399900E-02
    0.74728261220666320971E-02
    0.74699150856738600820E-02
    0.74687353534458227403E-02
    0.74831716766855351300E-02
    0.74822082719516649213E-02
    0.74882501899751806665E-02
    0.74867388428714867418E-02
    0.74794308115296338768E-02
    0.74766595334850964594E-02
    0.74708094578199487484E-02
    0.74710361338142057194E-02
    0.74669958061446264561E-02
    0.74682115683598979811E-02
    0.74735829357016544949E-02
    0.74768895671569494607E-02
    0.74765414970577488696E-02
    0.74757627727108462087E-02
    0.74753677259646548331E-02
    0.74763039844182492891E-02
    0.74826008918977412673E-02
    0.74826008918939656417E-02
    0.74763039844166724254E-02
    0.74753677259525048299E-02
    0.74696281159043710282E-02
    0.74682980959151429659E-02
    0.74638930231380254399E-02
    0.74638930231299034646E-02
    0.74682980959259728446E-02
    0.74696281159117357967E-02
    0.74719366404827226164E-02
    0.74719366404796981260E-02
    0.74948231197409457410E-02
    0.74975945838204266850E-02
    0.75081940757133957751E-02
    0.75091814874275446962E-02
    0.74993141110133373917E-02
    0.74987889656911600050E-02
    0.74892866427194258044E-02
    0.74862174181404197298E-02
    0.74786992311330988820E-02
    0.74780287945764309723E-02
    0.74847401045989537735E-02
    0.74857555832718390004E-02
    0.74911699934653349503E-02
    0.74916379764754714374E-02
    0.74987889657533316271E-02
    0.74993141110650633763E-02
    0.75091814874881984351E-02
    0.75081940757618466017E-02
    0.74975945838547551278E-02
    0.74948231197580744006E-02
    0.74857555832790328987E-02
    0.74847401046156036494E-02
    0.74780287945953117026E-02
    0.74786992311549138970E-02
    0.74862174181807876125E-02
    0.74892866427741060231E-02
    0.74916379765144966441E-02
    0.74911699934976788695E-02
    0.75272361723661739344E-02
    0.75298674118827076118E-02
    0.75458478181386953038E-02
    0.75458478181274430199E-02
    0.75298674118634729979E-02
    0.75272361723208464773E-02
    0.75127167001244150521E-02
    0.75095929198507362090E-02
    0.74985157238801666141E-02
    0.74985157238882643033E-02
    0.75095929198713594691E-02
    0.75127167001719490774E-02
    0.75188579200090033261E-02
    0.75188579200030870517E-02
    0.74878469849199462069E-02
    0.74934330840441872729E-02
    0.75026773390830404226E-02
    0.75065596502337109466E-02
    0.75008068848414627405E-02
    0.75052168654304073428E-02
    0.74979382292445434857E-02
    0.74909291008058631264E-02
    0.74836720292063788756E-02
    0.74803158599590106534E-02
    0.74839684621813866092E-02
    0.74813349299131561010E-02
    0.74906651418708133580E-02
    0.74927637714497907079E-02
    0.75238223727865927160E-02
    0.75335859410248194601E-02
    0.75496721752659930182E-02
    0.75563717183970693578E-02
    0.75463270997572131499E-02
    0.75538304775402210015E-02
    0.75413035261711718060E-02
    0.75292396469083923763E-02
    0.75166918957536724491E-02
    0.75108846969232367918E-02
    0.75171756150015931267E-02
    0.75125346708047550243E-02
    0.75287927731418772051E-02
    0.75324263469562120765E-02
    0.75022369945757800408E-02
    0.75076665171840851337E-02
    0.75203511296782930493E-02
    0.75234630788558153058E-02
    0.75133055570152373903E-02
    0.75153849973125571443E-02
    0.75045542411813831105E-02
    0.74985581963132093980E-02
    0.74892632759165442963E-02
    0.74868747555200242799E-02
    0.74934830357515289090E-02
    0.74924361087856557184E-02
    0.75017930456624543761E-02
    0.75033611183981567885E-02
    0.75477614818495819896E-02
    0.75577881445836880836E-02
    0.75800686601017143104E-02
    0.75858033157498311327E-02
    0.75680992074207715375E-02
    0.75718154118667368654E-02
    0.75529463012604112007E-02
    0.75423994645465982159E-02
    0.75262210396594159817E-02
    0.75218973172841646982E-02
    0.75331795217890356806E-02
    0.75308866123718091676E-02
    0.75477738336198500410E-02
    0.75506322070824308940E-02
    0.75862810254187715286E-02
    0.76028789006692175725E-02
    0.76305548192698614829E-02
    0.76415642706695423303E-02
    0.76240492655063355973E-02
    0.76363038511217465332E-02
    0.76151183444904749220E-02
    0.75947910667179237623E-02
    0.75734495655919295207E-02
    0.75635586081295204386E-02
    0.75744748727092142335E-02
    0.75666802622272504378E-02
    0.75943481830246734390E-02
    0.76004236462268032204E-02
    0.76929352637740257628E-02
    0.77199380026285076284E-02
    0.77667687654630439276E-02
    0.77837542412864269697E-02
    0.77533900677365062692E-02
    0.77723053942163368435E-02
    0.77375096285981336680E-02
    0.77043349083873256117E-02
    0.76688845262381987941E-02
    0.76525836083439855578E-02
    0.76713778841699751393E-02
    0.76590089597273203204E-02
    0.77045960042271040974E-02
    0.77143214828753435552E-02
    0.76287208599155357722E-02
    0.76464618230779766647E-02
    0.76859663179608067943E-02
    0.76957126484906001468E-02
    0.76639660100469141762E-02
    0.76695527337837686097E-02
    0.76365587828479668947E-02
    0.76187197727986995244E-02
    0.75905607642787597394E-02
    0.75831655035599144707E-02
    0.76029886124561029542E-02
    0.75989366677652638027E-02
    0.76286045128427541415E-02
    0.76334718790053426515E-02
    0.77719362485917133088E-02
    0.78018657464496172366E-02
    0.78716537586857576042E-02
    0.78865597623942271938E-02
    0.78290174714221155011E-02
    0.78354537754682044431E-02
    0.77781177919146243446E-02
    0.77494314465068638020E-02
    0.77009254494544926786E-02
    0.76890429061560149060E-02
    0.77245429876387780924E-02
    0.77187278624046892078E-02
    0.77689514518234983886E-02
    0.77765723653508873892E-02
    0.75296055718633656678E-02
    0.75356145001305519307E-02
    0.75537452938736491040E-02
    0.75565304335755796236E-02
    0.75403608480091727229E-02
    0.75405751726489471040E-02
    0.75243838546669829584E-02
    0.75182811603460818206E-02
    0.75053467640752496645E-02
    0.75035505187581669553E-02
    0.75142999960509260921E-02
    0.75148052947539819083E-02
    0.75255787034022841170E-02
    0.75268542470711928549E-02
    0.75916709692762087899E-02
    0.76036960359471862658E-02
    0.76356505361531981299E-02
    0.76418020883421431191E-02
    0.76139814199537416209E-02
    0.76153274134162663583E-02
    0.75869358658399903630E-02
    0.75755531240694904196E-02
    0.75528463955271685215E-02
    0.75490788985399150807E-02
    0.75670940449627391647E-02
    0.75665901603379224008E-02
    0.75871671329546686718E-02
    0.75899106749534855226E-02
    0.75765535029791754307E-02
    0.75832162312474866994E-02
    0.76096908359595417243E-02
    0.76118712952780113318E-02
    0.75867885121114961300E-02
    0.75847443832286589108E-02
    0.75606438278169882730E-02
    0.75537407336110700892E-02
    0.75350464523036841946E-02
    0.75337909149341530241E-02
    0.75508722706106885109E-02
    0.75537455809739778578E-02
    0.75668323492921688717E-02
    0.75677746028287810193E-02
    0.76629698236717605150E-02
    0.76777947288727303385E-02
    0.77234450063932017297E-02
    0.77304874447672337553E-02
    0.76890471338627378040E-02
    0.76886300107792317909E-02
    0.76468556338191145255E-02
    0.76327018152195901662E-02
    0.76001771393693230011E-02
    0.75964581521774628484E-02
    0.76239781019585266958E-02
    0.76258245718536891988E-02
    0.76521654942373765543E-02
    0.76550890691979220359E-02
    0.77042246238195801616E-02
    0.77272235188962897293E-02
    0.77849221376259996816E-02
    0.77967832014434312188E-02
    0.77468135239937953654E-02
    0.77492280894234490465E-02
    0.76983827540124914746E-02
    0.76780495180097359589E-02
    0.76376203001248471960E-02
    0.76305678627584631879E-02
    0.76620938302157538119E-02
    0.76600234109875445232E-02
    0.76982249295064275954E-02
    0.77034280864909168707E-02
    0.79102853332617666798E-02
    0.79522707743737725689E-02
    0.80578270931616659267E-02
    0.80781755429553247366E-02
    0.79857129677869294337E-02
    0.79869939505098595800E-02
    0.78951275273453132980E-02
    0.78607421246973605000E-02
    0.77884073124220116677E-02
    0.77764515306067835340E-02
    0.78336186240179402768E-02
    0.78299775809898188722E-02
    0.78988492873020635376E-02
    0.79077180197050112725E-02
    0.78198357627594847208E-02
    0.78511757989201142599E-02
    0.79336872174898473431E-02
    0.79503817683688974421E-02
    0.78775608314476663896E-02
    0.78798407710080359961E-02
    0.78045089239818614402E-02
    0.77769964786179130931E-02
    0.77184715889782717219E-02
    0.77100427186303612317E-02
    0.77568856238242282070E-02
    0.77560203185145981317E-02
    0.78084025733415572679E-02
    0.78152113723635955461E-02
    0.81136943157846790758E-02
    0.81765028150188184819E-02
    0.83306159047348924546E-02
    0.83644523071992639418E-02
    0.82294717984005422151E-02
    0.82338307980159043675E-02
    0.80943846805965960489E-02
    0.80435687175909147129E-02
    0.79359753414977116798E-02
    0.79194432826809532666E-02
    0.80037282937773252672E-02
    0.79982217202707161369E-02
    0.80996533964068032768E-02
    0.81132494383981436370E-02
    0.75052168655713735745E-02
    0.75008068849643444800E-02
    0.75065596503673878703E-02
    0.75026773392017310702E-02
    0.74934330841412025506E-02
    0.74878469849938480291E-02
    0.74813349299723969077E-02
    0.74839684622530992103E-02
    0.74803158600270334977E-02
    0.74836720292844431668E-02
    0.74909291009101382219E-02
    0.74979382293771561566E-02
    0.74927637715523770501E-02
    0.74906651419644094958E-02
    0.75153849974560161737E-02
    0.75133055571507470494E-02
    0.75234630790165903449E-02
    0.75203511298289381706E-02
    0.75076665172988561736E-02
    0.75022369946644617070E-02
    0.74924361088506653480E-02
    0.74934830358278038329E-02
    0.74868747555859550477E-02
    0.74892632759919960939E-02
    0.74985581964149700118E-02
    0.75045542413018553191E-02
    0.75033611185080610617E-02
    0.75017930457652575588E-02
    0.75538304778520115254E-02
    0.75463271000361219903E-02
    0.75563717187010744428E-02
    0.75496721755417533356E-02
    0.75335859412523379849E-02
    0.75238223729726478803E-02
    0.75125346709530417891E-02
    0.75171756151778028679E-02
    0.75108846970853128736E-02
    0.75166918959394812827E-02
    0.75292396471435731747E-02
    0.75413035264627224438E-02
    0.75324263471916747675E-02
    0.75287927733607975730E-02
    0.75718154122005141421E-02
    0.75680992077439956239E-02
    0.75858033161296098065E-02
    0.75800686604650122438E-02
    0.75577881448673075657E-02
    0.75477614820855503525E-02
    0.75308866125505229822E-02
    0.75331795219894057830E-02
    0.75218973174537174381E-02
    0.75262210398498391797E-02
    0.75423994647912185121E-02
    0.75529463015435120005E-02
    0.75506322073489997790E-02
    0.75477738338740373372E-02
    0.75405751728359112634E-02
    0.75403608481827023163E-02
    0.75565304337791997305E-02
    0.75537452940572348895E-02
    0.75356145002701364552E-02
    0.75296055719708222462E-02
    0.75148052948261776299E-02
    0.75142999961429592440E-02
    0.75035505188364454848E-02
    0.75053467641669575558E-02
    0.75182811604755728566E-02
    0.75243838548284067841E-02
    0.75268542472089012760E-02
    0.75255787035293968470E-02
    0.75847443834404053298E-02
    0.75867885122841774437E-02
    0.76118712954672219581E-02
    0.76096908361070834254E-02
    0.75832162313527557915E-02
    0.75765535030320350571E-02
    0.75537455809978242341E-02
    0.75508722706785977308E-02
    0.75337909150018558119E-02
    0.75350464524025538918E-02
    0.75537407337486536102E-02
    0.75606438280067028365E-02
    0.75677746029587282875E-02
    0.75668323494015952285E-02
    0.76153274138719504599E-02
    0.76139814203907548937E-02
    0.76418020888591974005E-02
    0.76356505366324302353E-02
    0.76036960363253360343E-02
    0.75916709695930716453E-02
    0.75665901605703545299E-02
    0.75670940452268629570E-02
    0.75490788987608312480E-02
    0.75528463957738904352E-02
    0.75755531243975136185E-02
    0.75869358662283255604E-02
    0.75899106753111299922E-02
    0.75871671332938010399E-02
    0.76886300113590735211E-02
    0.76890471343888057085E-02
    0.77304874453616887961E-02
    0.77234450069240453279E-02
    0.76777947292823228373E-02
    0.76629698239860785311E-02
    0.76258245720760781464E-02
    0.76239781022501857538E-02
    0.75964581524364527265E-02
    0.76001771396832966746E-02
    0.76327018156280091246E-02
    0.76468556343250934648E-02
    0.76550890696198484187E-02
    0.76521654946252468457E-02
    0.76363038517644268866E-02
    0.76240492660910102671E-02
    0.76415642713063385016E-02
    0.76305548198588790329E-02
    0.76028789011577876944E-02
    0.75862810258316764819E-02
    0.75666802625608906713E-02
    0.75744748730941450360E-02
    0.75635586084822382935E-02
    0.75734495659910078605E-02
    0.75947910672109868180E-02
    0.76151183450893248847E-02
    0.76004236467247477879E-02
    0.75943481834924424917E-02
    0.76695527344983003420E-02
    0.76639660107450015974E-02
    0.76957126493132519893E-02
    0.76859663187501068432E-02
    0.76464618237070654597E-02
    0.76287208604557364688E-02
    0.75989366681849818824E-02
    0.76029886129110576046E-02
    0.75831655039460352935E-02
    0.75905607647020027773E-02
    0.76187197733320706147E-02
    0.76365587834529014000E-02
    0.76334718795894743529E-02
    0.76286045134047733227E-02
    0.77723053954670013460E-02
    0.77533900688984960445E-02
    0.77837542425702984164E-02
    0.77667687666529107091E-02
    0.77199380036205526162E-02
    0.76929352646263318358E-02
    0.76590089604255152944E-02
    0.76713778849567008586E-02
    0.76525836090641933054E-02
    0.76688845270431972231E-02
    0.77043349093650626003E-02
    0.77375096297629709918E-02
    0.77143214838717730567E-02
    0.77045960051701691679E-02
    0.78354537768959477834E-02
    0.78290174728480755456E-02
    0.78865597640848002225E-02
    0.78716537603156586794E-02
    0.78018657477563705532E-02
    0.77719362497391929895E-02
    0.77187278633037616909E-02
    0.77245429885963168282E-02
    0.76890429069668203219E-02
    0.77009254503342811082E-02
    0.77494314475994108618E-02
    0.77781177931363527922E-02
    0.77765723665531687192E-02
    0.77689514529884111729E-02
    0.77492280904201535016E-02
    0.77468135249715869978E-02
    0.77967832025973484583E-02
    0.77849221387226493624E-02
    0.77272235197711723609E-02
    0.77042246245833632956E-02
    0.76600234115638621626E-02
    0.76620938308424122593E-02
    0.76305678632808135800E-02
    0.76376203006944315063E-02
    0.76780495187456464234E-02
    0.76983827548612916714E-02
    0.77034280873022557140E-02
    0.76982249302866029989E-02
    0.78798407723596527313E-02
    0.78775608327183530705E-02
    0.79503817698348376586E-02
    0.79336872188369746139E-02
    0.78511757999946991254E-02
    0.78198357636529436387E-02
    0.77560203191931560360E-02
    0.77568856246066231891E-02
    0.77100427193115472421E-02
    0.77184715897494890133E-02
    0.77769964796008299660E-02
    0.78045089251399871189E-02