# vtk DataFile Version 3.0
LAPLACIEN  2D
ASCII
DATASET UNSTRUCTURED_GRID
 POINTS        7297  float
   1.5625000000000000E-002  0.96875000000000000        0.0000000000000000     
   3.1250000000000000E-002  0.96875000000000000        0.0000000000000000     
   3.1250000000000000E-002  0.98437500000000000        0.0000000000000000     
   9.3749999999999997E-003  0.97812500000000002        0.0000000000000000     
   2.0312500000000001E-002  0.97968750000000004        0.0000000000000000     
   2.1874999999999999E-002  0.99062499999999998        0.0000000000000000     
   1.0937499999999999E-002  0.98906249999999996        0.0000000000000000     
   4.6875000000000000E-002  0.96875000000000000        0.0000000000000000     
   6.2500000000000000E-002  0.96875000000000000        0.0000000000000000     
   6.2500000000000000E-002  0.98437500000000000        0.0000000000000000     
   4.0625000000000001E-002  0.97812500000000002        0.0000000000000000     
   5.1562499999999997E-002  0.97968750000000004        0.0000000000000000     
   5.3124999999999999E-002  0.99062499999999998        0.0000000000000000     
   4.2187500000000003E-002  0.98906249999999996        0.0000000000000000     
   1.5625000000000000E-002  0.93750000000000000        0.0000000000000000     
   3.1250000000000000E-002  0.93750000000000000        0.0000000000000000     
   3.1250000000000000E-002  0.95312500000000000        0.0000000000000000     
   9.3749999999999997E-003  0.94687500000000002        0.0000000000000000     
   2.0312500000000001E-002  0.94843750000000004        0.0000000000000000     
   2.1874999999999999E-002  0.95937499999999998        0.0000000000000000     
   1.0937499999999999E-002  0.95781249999999996        0.0000000000000000     
   4.6875000000000000E-002  0.93750000000000000        0.0000000000000000     
   6.2500000000000000E-002  0.93750000000000000        0.0000000000000000     
   6.2500000000000000E-002  0.95312500000000000        0.0000000000000000     
   4.0625000000000001E-002  0.94687500000000002        0.0000000000000000     
   5.1562499999999997E-002  0.94843750000000004        0.0000000000000000     
   5.3124999999999999E-002  0.95937499999999998        0.0000000000000000     
   4.2187500000000003E-002  0.95781249999999996        0.0000000000000000     
   7.8125000000000000E-002  0.96875000000000000        0.0000000000000000     
   9.3750000000000000E-002  0.96875000000000000        0.0000000000000000     
   9.3750000000000000E-002  0.98437500000000000        0.0000000000000000     
   7.1874999999999994E-002  0.97812500000000002        0.0000000000000000     
   8.2812499999999997E-002  0.97968750000000004        0.0000000000000000     
   8.4375000000000006E-002  0.99062499999999998        0.0000000000000000     
   7.3437500000000003E-002  0.98906249999999996        0.0000000000000000     
  0.10937500000000000       0.96875000000000000        0.0000000000000000     
  0.12500000000000000       0.96875000000000000        0.0000000000000000     
  0.12500000000000000       0.98437500000000000        0.0000000000000000     
  0.10312499999999999       0.97812500000000002        0.0000000000000000     
  0.11406250000000000       0.97968750000000004        0.0000000000000000     
  0.11562500000000001       0.99062499999999998        0.0000000000000000     
  0.10468750000000000       0.98906249999999996        0.0000000000000000     
   7.8125000000000000E-002  0.93750000000000000        0.0000000000000000     
   9.3750000000000000E-002  0.93750000000000000        0.0000000000000000     
   9.3750000000000000E-002  0.95312500000000000        0.0000000000000000     
   7.1874999999999994E-002  0.94687500000000002        0.0000000000000000     
   8.2812499999999997E-002  0.94843750000000004        0.0000000000000000     
   8.4375000000000006E-002  0.95937499999999998        0.0000000000000000     
   7.3437500000000003E-002  0.95781249999999996        0.0000000000000000     
  0.10937500000000000       0.93750000000000000        0.0000000000000000     
  0.12500000000000000       0.93750000000000000        0.0000000000000000     
  0.12500000000000000       0.95312500000000000        0.0000000000000000     
  0.10312499999999999       0.94687500000000002        0.0000000000000000     
  0.11406250000000000       0.94843750000000004        0.0000000000000000     
  0.11562500000000001       0.95937499999999998        0.0000000000000000     
  0.10468750000000000       0.95781249999999996        0.0000000000000000     
   1.5625000000000000E-002  0.90625000000000000        0.0000000000000000     
   3.1250000000000000E-002  0.90625000000000000        0.0000000000000000     
   3.1250000000000000E-002  0.92187500000000000        0.0000000000000000     
   9.3749999999999997E-003  0.91562500000000002        0.0000000000000000     
   2.0312500000000001E-002  0.91718750000000004        0.0000000000000000     
   2.1874999999999999E-002  0.92812499999999998        0.0000000000000000     
   1.0937499999999999E-002  0.92656249999999996        0.0000000000000000     
   4.6875000000000000E-002  0.90625000000000000        0.0000000000000000     
   6.2500000000000000E-002  0.90625000000000000        0.0000000000000000     
   6.2500000000000000E-002  0.92187500000000000        0.0000000000000000     
   4.0625000000000001E-002  0.91562500000000002        0.0000000000000000     
   5.1562499999999997E-002  0.91718750000000004        0.0000000000000000     
   5.3124999999999999E-002  0.92812499999999998        0.0000000000000000     
   4.2187500000000003E-002  0.92656249999999996        0.0000000000000000     
   1.5625000000000000E-002  0.87500000000000000        0.0000000000000000     
   3.1250000000000000E-002  0.87500000000000000        0.0000000000000000     
   3.1250000000000000E-002  0.89062500000000000        0.0000000000000000     
   9.3749999999999997E-003  0.88437500000000002        0.0000000000000000     
   2.0312500000000001E-002  0.88593750000000004        0.0000000000000000     
   2.1874999999999999E-002  0.89687499999999998        0.0000000000000000     
   1.0937499999999999E-002  0.89531249999999996        0.0000000000000000     
   4.6875000000000000E-002  0.87500000000000000        0.0000000000000000     
   6.2500000000000000E-002  0.87500000000000000        0.0000000000000000     
   6.2500000000000000E-002  0.89062500000000000        0.0000000000000000     
   4.0625000000000001E-002  0.88437500000000002        0.0000000000000000     
   5.1562499999999997E-002  0.88593750000000004        0.0000000000000000     
   5.3124999999999999E-002  0.89687499999999998        0.0000000000000000     
   4.2187500000000003E-002  0.89531249999999996        0.0000000000000000     
   7.8125000000000000E-002  0.90625000000000000        0.0000000000000000     
   9.3750000000000000E-002  0.90625000000000000        0.0000000000000000     
   9.3750000000000000E-002  0.92187500000000000        0.0000000000000000     
   7.1874999999999994E-002  0.91562500000000002        0.0000000000000000     
   8.2812499999999997E-002  0.91718750000000004        0.0000000000000000     
   8.4375000000000006E-002  0.92812499999999998        0.0000000000000000     
   7.3437500000000003E-002  0.92656249999999996        0.0000000000000000     
  0.10937500000000000       0.90625000000000000        0.0000000000000000     
  0.12500000000000000       0.90625000000000000        0.0000000000000000     
  0.12500000000000000       0.92187500000000000        0.0000000000000000     
  0.10312499999999999       0.91562500000000002        0.0000000000000000     
  0.11406250000000000       0.91718750000000004        0.0000000000000000     
  0.11562500000000001       0.92812499999999998        0.0000000000000000     
  0.10468750000000000       0.92656249999999996        0.0000000000000000     
   7.8125000000000000E-002  0.87500000000000000        0.0000000000000000     
   9.3750000000000000E-002  0.87500000000000000        0.0000000000000000     
   9.3750000000000000E-002  0.89062500000000000        0.0000000000000000     
   7.1874999999999994E-002  0.88437500000000002        0.0000000000000000     
   8.2812499999999997E-002  0.88593750000000004        0.0000000000000000     
   8.4375000000000006E-002  0.89687499999999998        0.0000000000000000     
   7.3437500000000003E-002  0.89531249999999996        0.0000000000000000     
  0.10937500000000000       0.87500000000000000        0.0000000000000000     
  0.12500000000000000       0.87500000000000000        0.0000000000000000     
  0.12500000000000000       0.89062500000000000        0.0000000000000000     
  0.10312499999999999       0.88437500000000002        0.0000000000000000     
  0.11406250000000000       0.88593750000000004        0.0000000000000000     
  0.11562500000000001       0.89687499999999998        0.0000000000000000     
  0.10468750000000000       0.89531249999999996        0.0000000000000000     
  0.14062500000000000       0.96875000000000000        0.0000000000000000     
  0.15625000000000000       0.96875000000000000        0.0000000000000000     
  0.15625000000000000       0.98437500000000000        0.0000000000000000     
  0.13437499999999999       0.97812500000000002        0.0000000000000000     
  0.14531250000000001       0.97968750000000004        0.0000000000000000     
  0.14687500000000001       0.99062499999999998        0.0000000000000000     
  0.13593749999999999       0.98906249999999996        0.0000000000000000     
  0.17187500000000000       0.96875000000000000        0.0000000000000000     
  0.18750000000000000       0.96875000000000000        0.0000000000000000     
  0.18750000000000000       0.98437500000000000        0.0000000000000000     
  0.16562499999999999       0.97812500000000002        0.0000000000000000     
  0.17656250000000001       0.97968750000000004        0.0000000000000000     
  0.17812500000000001       0.99062499999999998        0.0000000000000000     
[...]
 CELL_DATA       14336
 SCALARS Nutrients float
 LOOKUP_TABLE default
    0.11688432030913381159E-04
    0.11598104627540116405E-04
    0.12255402785857388615E-04
    0.12255402785115514808E-04
    0.11598104625950643833E-04
    0.11688432027139962881E-04
    0.11164256899693152071E-04
    0.10858053147914232983E-04
    0.10527794789298850874E-04
    0.10527794789721162867E-04
    0.10858053149696048103E-04
    0.11164256904547199736E-04
    0.11116090892461437888E-04
    0.11116090891970805912E-04
    0.13837218194670734034E-04
    0.14409047737651621042E-04
    0.15969345785617332118E-04
    0.16395999701092928716E-04
    0.15227504032814719186E-04
    0.15792291479525056756E-04
    0.14563607013850536826E-04
    0.13546547414370000155E-04
    0.12476190015081149110E-04
    0.12084155652882255883E-04
    0.12759947825899359847E-04
    0.12674580472833682067E-04
    0.13721731605297424222E-04
    0.13955950999294441039E-04
    0.15792291489087736858E-04
    0.15227504039202374212E-04
    0.16395999705556612777E-04
    0.15969345789099630254E-04
    0.14409047740808677161E-04
    0.13837218196035146563E-04
    0.12674580474270368531E-04
    0.12759947829317774758E-04
    0.12084155657040277941E-04
    0.12476190020269083611E-04
    0.13546547421454482082E-04
    0.14563607024860215171E-04
    0.13955951004785655686E-04
    0.13721731609779582071E-04
    0.18678442427255987360E-04
    0.18928529845783027607E-04
    0.21359421345608092400E-04
    0.21359421345737163281E-04
    0.18928529844699065992E-04
    0.18678442424018176814E-04
    0.16519973235909569194E-04
    0.15907094212502784669E-04
    0.14301360874354088719E-04
    0.14301360875014381395E-04
    0.15907094213742620676E-04
    0.16519973238854018349E-04
    0.17229966468891221926E-04
    0.17229966468557060652E-04
    0.19586215731818573676E-04
    0.21129583164204992579E-04
    0.24158767056679890237E-04
    0.25282282854083050754E-04
    0.23275834294155173980E-04
    0.24629051804353911849E-04
    0.22237183991854637125E-04
    0.20017993114900589814E-04
    0.17725777390892626307E-04
    0.16746356246618049633E-04
    0.17982233295932416133E-04
    0.17393586605252919178E-04
    0.20066373654158799401E-04
    0.20679686468109674687E-04
    0.31053477525749305431E-04
    0.34159708693016458021E-04
    0.39501312162288422947E-04
    0.41668791647118913035E-04
    0.38292581004432280783E-04
    0.40788900865078941917E-04
    0.36569542989913538856E-04
    0.32556668964111696544E-04
    0.28383114143830698279E-04
    0.26485990971261146759E-04
    0.28634488360150571273E-04
    0.27222080089296127683E-04
    0.32479921946735302815E-04
    0.33659520631172021559E-04
    0.26207543345469862109E-04
    0.27414554004603519953E-04
    0.31671103378556775157E-04
    0.32237156272514415865E-04
    0.28451480294825963984E-04
    0.28664653962850850354E-04
    0.24931735169060033965E-04
    0.23287073781357199576E-04
    0.20230392815331102826E-04
    0.19772900417191656620E-04
    0.22332091153777033736E-04
    0.22619820508153331705E-04
    0.24959789919067398243E-04
    0.25250051710374189757E-04
    0.40445803114637723474E-04
    0.43216514411628068363E-04
    0.50537792443885753188E-04
    0.52046662855464157675E-04
    0.45988057547022005538E-04
    0.46944188414178596831E-04
    0.40652341215153648898E-04
    0.37346711852912375213E-04
    0.31966716989830346160E-04
    0.30754119284642592329E-04
    0.34803734201103449881E-04
    0.34581133850520002582E-04
    0.39537255469338322103E-04
    0.40314272914932597033E-04
    0.24629051823438414572E-04
    0.23275834309705326698E-04
    0.25282282869060392359E-04
    0.24158767069092788773E-04
    0.21129583174363794141E-04
    0.19586215738291978930E-04
    0.17393586609658635692E-04
    0.17982233304747725184E-04
    0.16746356256744247202E-04
    0.17725777402754245307E-04
    0.20017993129997898390E-04
    0.22237184012934122667E-04
    0.20679686481276839122E-04
    0.20066373665627039360E-04
    0.28664653975324609901E-04
    0.28451480305650411469E-04
    0.32237156284916868791E-04
    0.31671103389647546741E-04
    0.27414554011202516476E-04
    0.26207543347351948989E-04
    0.22619820507432479562E-04
    0.22332091157283404548E-04
    0.19772900421411012333E-04
    0.20230392821362421256E-04
    0.23287073789735958010E-04
    0.24931735180514616365E-04
    0.25250051718306023115E-04
    0.24959789925689288372E-04
    0.40788900920042747234E-04
    0.38292581051253382195E-04
    0.41668791696476898453E-04
    0.39501312205478300891E-04
    0.34159708726574351627E-04
    0.31053477549581648051E-04
    0.27222080106230389835E-04
    0.28634488385058747380E-04
    0.26485990994663376213E-04
    0.28383114172867699218E-04
    0.32556669003726810847E-04
    0.36569543043850462414E-04
    0.33659520669052507254E-04
    0.32479921980585714167E-04
    0.46944188464883120689E-04
    0.45988057593668042180E-04
    0.52046662910844012024E-04
    0.50537792494941890587E-04
    0.43216514447427441541E-04
    0.40445803138308323459E-04
    0.34581133864811379637E-04
    0.34803734222922862748E-04
    0.30754119302481228171E-04
    0.31966717013456927537E-04
    0.37346711886549571432E-04
    0.40652341257696915442E-04
    0.40314272950760647357E-04
    0.39537255501849377854E-04
    0.39157033962753011263E-04
    0.40098114750593272237E-04
    0.46414249530123987113E-04
    0.46414249527612276927E-04
    0.40098114746509773833E-04
    0.39157033953618655393E-04
    0.33402283436182120539E-04
    0.32069675263362601599E-04
    0.27653037218204590107E-04
    0.27653037219525094143E-04
    0.32069675267912435687E-04
    0.33402283448054127552E-04
    0.35718697910606970406E-04
    0.35718697909343339551E-04
    0.58670840827282575163E-04
    0.61446816537162368861E-04
    0.72074673896197770958E-04
    0.73058548561485709555E-04
    0.63159156822204686648E-04
    0.62620762223208290562E-04
    0.53096066412301379700E-04
    0.50027088085723909788E-04
    0.42492431799018767487E-04
    0.41824537476598063650E-04
    0.48555331024136295904E-04
    0.49577353321881690413E-04
    0.55000121711508759476E-04
    0.55466220640352411069E-04
    0.62620762283650583009E-04
    0.63159156873983214402E-04
    0.73058548620685601180E-04
    0.72074673944764973193E-04
    0.61446816570123930943E-04
    0.58670840845155288834E-04
    0.49577353327284886478E-04
    0.48555331042383411690E-04
    0.41824537492169110977E-04
    0.42492431822745413948E-04
    0.50027088123826277458E-04
    0.53096066467061138168E-04
    0.55466220678165174785E-04
    0.55000121743689330076E-04
    0.91179609573885755220E-04
    0.93824911451692618301E-04
    0.10986131994128796481E-03
    0.10986131993082016902E-03
    0.93824911432203542149E-04
    0.91179609529366394691E-04
    0.76614948271326366097E-04
    0.73485266430000219066E-04
    0.62374938035562619361E-04
    0.62374938044680420818E-04
    0.73485266449727386015E-04
    0.76614948318815762952E-04
    0.82781076355480199083E-04
    0.82781076349826084753E-04
    0.51612452377317849560E-04
    0.57192808136644609563E-04
    0.66441217712049502266E-04
    0.70318748290896585505E-04
    0.64556100848706254197E-04
    0.68958890318042447747E-04
    0.61680850631148790089E-04
    0.54674900702741108922E-04
    0.47416993794319021744E-04
    0.44063332998430562162E-04
    0.47719258641654075488E-04
    0.45090950053130611540E-04
    0.54417591563175409213E-04
    0.56513299593942935219E-04
    0.87587807068132742775E-04
    0.97339315866556405448E-04
    0.11342522733103558013E-03
    0.12011221248634678695E-03
    0.11005876394547188697E-03
    0.11754915086126386571E-03
    0.10502533322092913958E-03
    0.92971420108064887263E-04
    0.80428233825611877492E-04
    0.74626158491466804048E-04
    0.80921446532272278511E-04
    0.76291564905900789793E-04
    0.92535431383467895154E-04
    0.96163310936488613869E-04
    0.66058390816603997022E-04
    0.71483599092033597530E-04
    0.84185507726463446499E-04
    0.87288345933386748900E-04
    0.77106199539107286639E-04
    0.79169323647749727658E-04
    0.68326803141538540736E-04
    0.62337359296511836849E-04
    0.53033707921301954079E-04
    0.50651286832394133285E-04
    0.57273449206743171829E-04
    0.56236154217462857566E-04
    0.65590542580177930922E-04
    0.67154528091949280879E-04
    0.11162192647815953855E-03
    0.12163234728182028871E-03
    0.14393404255723564336E-03
    0.14964894812033872396E-03
    0.13190792511587795576E-03
    0.13559405745549804470E-03
    0.11671197292652896128E-03
    0.10618070923313187586E-03
    0.89994249005360865191E-04
    0.85684014946531224027E-04
    0.96987244541192632282E-04
    0.94714979720792531921E-04
    0.11158825176779139162E-03
    0.11443761297233813240E-03
    0.15002235727421410049E-03
    0.16659562284564936440E-03
    0.19426088338724115155E-03
    0.20524890752545078181E-03
    0.18772733763305627904E-03
    0.19995813792542013439E-03
    0.17878693423383366424E-03
    0.15847906975771284231E-03
    0.13715138650757923984E-03
    0.12727190507375060031E-03
    0.13819065999207445035E-03
    0.13041464471174609536E-03
    0.15805298185925367510E-03
    0.16411862247984936665E-03
    0.25660138611060222258E-03
    0.28355907987046794633E-03
    0.33036417921843700329E-03
    0.34731012370055818579E-03
    0.31694522241128958960E-03
    0.33581907795218003459E-03
    0.30105585640783239648E-03
    0.26792393882147004383E-03
    0.23250415476565075676E-03
    0.21622357912832573237E-03
    0.23501646426658397257E-03
    0.22267956932759503741E-03
    0.26820634025663477084E-03
    0.27791500915647603109E-03
    0.19260320908988181427E-03
    0.21031089793047556325E-03
    0.24983363923453941104E-03
    0.25954012058321355170E-03
    0.22774862882154244610E-03
    0.23328595339103735474E-03
    0.20028168010667579940E-03
    0.18247586526201126826E-03
    0.15431460971457105439E-03
    0.14694023773925297938E-03
    0.16679559665205536323E-03
    0.16278181763891604451E-03
    0.19240975995322255067E-03
    0.19726061899733615440E-03
    0.33579492580788119485E-03
    0.36565909370300353053E-03
    0.43544964117870206240E-03
    0.45028954760525631779E-03
    0.39270054744784964372E-03
    0.39906168310737278465E-03
    0.34173004117018363195E-03
    0.31310019157304856989E-03
    0.26461133414118633662E-03
    0.25276281996362533547E-03
    0.28829880890385078604E-03
    0.28254563107914346413E-03
    0.33268790222850991474E-03
    0.34028073128905593709E-03
    0.93540158223297408435E-04
    0.99548136962826486358E-04
    0.11772457078828966635E-03
    0.12049804841911384906E-03
    0.10427415969257300605E-03
    0.10446199521958828731E-03
    0.88236593975811447913E-04
    0.82139295631561651148E-04
    0.69179125380905374791E-04
    0.67391338940282679367E-04
    0.78173218909969848108E-04
    0.78694280100192296758E-04
    0.89474628640369785145E-04
    0.90744708756516106909E-04
    0.15572366012063545396E-03
    0.16773585970489778528E-03
    0.19975187252051015301E-03
    0.20587296586555876724E-03
    0.17797120756220512899E-03
    0.17926732407141007775E-03
    0.15082843828257571869E-03
    0.13946555930255532673E-03
    0.11672574717929746916E-03
    0.11297577291742106004E-03
    0.13104312167374083790E-03
    0.13057251416661772546E-03
    0.15114229753212884175E-03
    0.15387304535284412909E-03
    0.14067523979266032810E-03
    0.14735374700250295551E-03
    0.17391895258970607426E-03
    0.17608982811312108661E-03
    0.15091081667679715557E-03
    0.14883003654963381283E-03
    0.12465471108420530144E-03
    0.11775215765777606917E-03
    0.99002711246744563444E-04
    0.97753495138533469887E-04
    0.11489506439962113749E-03
    0.11778549015113828945E-03
    0.13090368644244309280E-03
    0.13184187155648662243E-03
    0.22736501126953190038E-03
    0.24219412150147166351E-03
    0.28798797048870661535E-03
    0.29499492462919046183E-03
    0.25339172932325239882E-03
    0.25289791506229251494E-03
    0.21101032783498821521E-03
    0.19687267525939609620E-03
    0.16426898196820856270E-03
    0.16056981220359539545E-03
    0.18819106706439322455E-03
    0.19008273220312926440E-03
    0.21644925867114116159E-03
    0.21935889976526783563E-03
    0.26841159419593922609E-03
    0.29136946302719284908E-03
    0.34914638176113826657E-03
    0.36094602618602043007E-03
    0.31086230291245078470E-03
    0.31319204670309961844E-03
    0.26228903342770078840E-03
    0.24199782624778168089E-03
    0.20153560778959157861E-03
    0.19451442935432050390E-03
    0.22611698108033036680E-03
    0.22410990151189641635E-03
    0.26227433431210117176E-03
    0.26745292368591350955E-03
    0.47459197398573587821E-03
    0.51648922064251258281E-03
    0.62212774619470833336E-03
    0.64236728899776378721E-03
    0.54975698403221843428E-03
    0.55089974617077543464E-03
    0.45897602047216724689E-03
    0.42467194456597860209E-03
    0.35231240715919348366E-03
    0.34041132506121946858E-03
    0.39768444099798052000E-03
    0.39415053562401542245E-03
    0.46293048596308884919E-03
    0.47175382247233171732E-03
    0.38461388953094186472E-03
    0.41592587900883055312E-03
    0.49864181189961044767E-03
    0.51525255955866514253E-03
    0.44217461124723803122E-03
    0.44430787617781401788E-03
    0.36881648072567248600E-03
    0.34135465476334698716E-03
    0.28272363985269016989E-03
    0.27433852950064114293E-03
    0.32134991741765260445E-03
    0.32057836000030215775E-03
    0.37295689109020978367E-03
    0.37973020237977168478E-03
    0.67895321609965828512E-03
    0.74166430845479702945E-03
    0.89604852140340893012E-03
    0.92971142440271842960E-03
    0.79435567843205159237E-03
    0.79846288017951705298E-03
    0.65881077710620091110E-03
    0.60810620026445656987E-03
    0.50038402055852253432E-03
    0.48393893152624530094E-03
    0.56847700911395119671E-03
    0.56315535640730728355E-03
    0.66450620572128000097E-03
    0.67803082859307093125E-03
    0.68958890455925005224E-04
    0.64556100970005438002E-04
    0.70318748421496529884E-04
    0.66441217829310493764E-04
    0.57192808230761591295E-04
    0.51612452450703998064E-04
    0.45090950109198913939E-04
    0.47719258712945816444E-04
    0.44063333063678031861E-04
    0.47416993871920487308E-04
    0.54674900804131427046E-04
    0.61680850762025409310E-04
    0.56513299694199103332E-04
    0.54417591655038978374E-04
    0.79169323788615250572E-04
    0.77106199673112086625E-04
    0.87288346091397424841E-04
    0.84185507875883554946E-04
    0.71483599204478156402E-04
    0.66058390904539420396E-04
    0.56236154280124112060E-04
    0.57273449282740634817E-04
    0.50651286895252990402E-04
    0.53033707996114817773E-04
    0.62337359395804142455E-04
    0.68326803260202557608E-04
    0.67154528199680812908E-04
    0.65590542681317391769E-04
    0.11754915116890682846E-03
    0.11005876422150294317E-03
    0.12011221278613744257E-03
    0.11342522760425143762E-03
    0.97339316090643213586E-04
    0.87587807251828954228E-04
    0.76291565051450201617E-04
    0.80921446706187400723E-04
    0.74626158650528586890E-04
    0.80428234009186915800E-04
    0.92971420339728100182E-04
    0.10502533350948141627E-03
    0.96163311168770594520E-04
    0.92535431599512349074E-04
    0.13559405778576242500E-03
    0.13190792543637608683E-03
    0.14964894849611693568E-03
    0.14393404291853856346E-03
    0.12163234756234339779E-03
    0.11162192671195255822E-03
    0.94714979897099485441E-04
    0.96987244739495906583E-04
    0.85684015113030769298E-04
    0.89994249193634618875E-04
    0.10618070947454686390E-03
    0.11671197320642823399E-03
    0.11443761323588613201E-03
    0.11158825201934892836E-03
    0.10446199540445165596E-03
    0.10427415986486683944E-03
    0.12049804862042583860E-03
    0.11772457097123486451E-03
    0.99548137100747790510E-04
    0.93540158330120284176E-04
    0.78694280171084441452E-04
    0.78173219001490958460E-04
    0.67391339016472439163E-04
    0.69179125472035155921E-04
    0.82139295759045015725E-04
    0.88236594135566022391E-04
    0.90744708892568300726E-04
    0.89474628766295246068E-04
    0.14883003676007989396E-03
    0.15091081684880726680E-03
    0.17608982830080667416E-03
    0.17391895273729911231E-03
    0.14735374710697103900E-03
    0.14067523984536705489E-03
    0.11778549017473433698E-03
    0.11489506446730813661E-03
    0.97753495205038566673E-04
    0.99002711345327597541E-04
    0.11775215779411809733E-03
    0.12465471127260703164E-03
    0.13184187168551153276E-03
    0.13090368655127950816E-03
    0.17926732452429078486E-03
    0.17797120799699494707E-03
    0.20587296637934716058E-03
    0.19975187299842798853E-03
    0.16773586008071332066E-03
    0.15572366043579760272E-03
    0.13057251439737758113E-03
    0.13104312193613679139E-03
    0.11297577313574438495E-03
    0.11672574742420759974E-03
    0.13946555962789921809E-03
    0.15082843866793285660E-03
    0.15387304570804168991E-03
    0.15114229786915717993E-03
    0.25289791564029690191E-03
    0.25339172984794114396E-03
    0.29499492522138456158E-03
    0.28798797101929016770E-03
    0.24219412190962732339E-03
    0.22736501158294466184E-03
    0.19008273242466844138E-03
    0.18819106735498323212E-03
    0.16056981246062094321E-03
    0.16426898228113392107E-03
    0.19687267566592377230E-03
    0.21101032833873583933E-03
    0.21935890018559201149E-03
    0.21644925905770954306E-03
    0.19995813856266746937E-03
    0.18772733821350117800E-03
    0.20524890815665827043E-03
    0.19426088397251337937E-03
    0.16659562332962574876E-03
    0.15002235768339322011E-03
    0.13041464504174804452E-03
    0.13819066037332991591E-03
    0.12727190542254079733E-03
    0.13715138690303642572E-03
    0.15847907024608019126E-03
    0.17878693482830092937E-03
    0.16411862297331420053E-03
    0.15805298232294368813E-03
    0.23328595410064805610E-03
    0.22774862951579244214E-03
    0.25954012140056342871E-03
    0.24983364002093309342E-03
    0.21031089855547436813E-03
    0.19260320962663515462E-03
    0.16278181805551319408E-03
    0.16679559710365782308E-03
    0.14694023812132788495E-03
    0.15431461013447198482E-03
    0.18247586579105414223E-03
    0.20028168070713057102E-03
    0.19726061957731395196E-03
    0.19240976051151026036E-03
    0.33581907919430964340E-03
    0.31694522356773242389E-03
    0.34731012497762615539E-03
    0.33036418040250124318E-03
    0.28355908085658549245E-03
    0.25660138695781634002E-03
    0.22267957002087125726E-03
    0.23501646504819046868E-03
    0.21622357984318649302E-03
    0.23250415556555484504E-03
    0.26792393979300501653E-03
    0.30105585756703333268E-03
    0.27791501014687796474E-03
    0.26820634119419578057E-03
    0.39906168452889372597E-03
    0.39270054886861738980E-03
    0.45028954928917473048E-03
    0.43544964280472066385E-03
    0.36565909500452432488E-03
    0.33579492695068601264E-03
    0.28254563197417637260E-03
    0.28829880985671162315E-03
    0.25276282076938010393E-03
    0.26461133501620059038E-03
    0.31310019265984599711E-03
    0.34173004238629314756E-03
    0.34028073248593143510E-03
    0.33268790338844534370E-03
    0.31319204769619362607E-03
    0.31086230388715065196E-03
    0.36094602733577010488E-03
    0.34914638285609355620E-03
    0.29136946389897623458E-03
    0.26841159495716288398E-03
    0.22410990208589719706E-03
    0.22611698170430340801E-03
    0.19451442987303277431E-03
    0.20153560835655718827E-03
    0.24199782698007288881E-03
    0.26228903427235656818E-03
    0.26745292449395090305E-03
    0.26227433508931697432E-03
    0.44430787752738215308E-03
    0.44217461251626344332E-03
    0.51525256102214053375E-03
    0.49864181324654852524E-03
    0.41592588008179074170E-03
    0.38461389042306363614E-03
    0.32057836067765166452E-03
    0.32134991819843326376E-03
    0.27433853017910878741E-03
    0.28272364062225502877E-03
    0.34135465574387547109E-03
    0.36881648188082083711E-03