# vtk DataFile Version 3.0
LAPLACIEN  2D
ASCII
DATASET UNSTRUCTURED_GRID
 POINTS        7297  float
   1.5625000000000000E-002  0.96875000000000000        0.0000000000000000     
   3.1250000000000000E-002  0.96875000000000000        0.0000000000000000     
   3.1250000000000000E-002  0.98437500000000000        0.0000000000000000     
   9.3749999999999997E-003  0.97812500000000002        0.0000000000000000     
   2.0312500000000001E-002  0.97968750000000004        0.0000000000000000     
   2.1874999999999999E-002  0.99062499999999998        0.0000000000000000     
   1.0937499999999999E-002  0.98906249999999996        0.0000000000000000     
   4.6875000000000000E-002  0.96875000000000000        0.0000000000000000     
   6.2500000000000000E-002  0.96875000000000000        0.0000000000000000     
   6.2500000000000000E-002  0.98437500000000000        0.0000000000000000     
   4.0625000000000001E-002  0.97812500000000002        0.0000000000000000     
   5.1562499999999997E-002  0.97968750000000004        0.0000000000000000     
   5.3124999999999999E-002  0.99062499999999998        0.0000000000000000     
   4.2187500000000003E-002  0.98906249999999996        0.0000000000000000     
   1.5625000000000000E-002  0.93750000000000000        0.0000000000000000     
   3.1250000000000000E-002  0.93750000000000000        0.0000000000000000     
   3.1250000000000000E-002  0.95312500000000000        0.0000000000000000     
   9.3749999999999997E-003  0.94687500000000002        0.0000000000000000     
   2.0312500000000001E-002  0.94843750000000004        0.0000000000000000     
   2.1874999999999999E-002  0.95937499999999998        0.0000000000000000     
   1.0937499999999999E-002  0.95781249999999996        0.0000000000000000     
   4.6875000000000000E-002  0.93750000000000000        0.0000000000000000     
   6.2500000000000000E-002  0.93750000000000000        0.0000000000000000     
   6.2500000000000000E-002  0.95312500000000000        0.0000000000000000     
   4.0625000000000001E-002  0.94687500000000002        0.0000000000000000     
   5.1562499999999997E-002  0.94843750000000004        0.0000000000000000     
   5.3124999999999999E-002  0.95937499999999998        0.0000000000000000     
   4.2187500000000003E-002  0.95781249999999996        0.0000000000000000     
   7.8125000000000000E-002  0.96875000000000000        0.0000000000000000     
   9.3750000000000000E-002  0.96875000000000000        0.0000000000000000     
   9.3750000000000000E-002  0.98437500000000000        0.0000000000000000     
   7.1874999999999994E-002  0.97812500000000002        0.0000000000000000     
   8.2812499999999997E-002  0.97968750000000004        0.0000000000000000     
   8.4375000000000006E-002  0.99062499999999998        0.0000000000000000     
   7.3437500000000003E-002  0.98906249999999996        0.0000000000000000     
  0.10937500000000000       0.96875000000000000        0.0000000000000000     
  0.12500000000000000       0.96875000000000000        0.0000000000000000     
  0.12500000000000000       0.98437500000000000        0.0000000000000000     
  0.10312499999999999       0.97812500000000002        0.0000000000000000     
  0.11406250000000000       0.97968750000000004        0.0000000000000000     
  0.11562500000000001       0.99062499999999998        0.0000000000000000     
  0.10468750000000000       0.98906249999999996        0.0000000000000000     
   7.8125000000000000E-002  0.93750000000000000        0.0000000000000000     
   9.3750000000000000E-002  0.93750000000000000        0.0000000000000000     
   9.3750000000000000E-002  0.95312500000000000        0.0000000000000000     
   7.1874999999999994E-002  0.94687500000000002        0.0000000000000000     
   8.2812499999999997E-002  0.94843750000000004        0.0000000000000000     
   8.4375000000000006E-002  0.95937499999999998        0.0000000000000000     
   7.3437500000000003E-002  0.95781249999999996        0.0000000000000000     
  0.10937500000000000       0.93750000000000000        0.0000000000000000     
  0.12500000000000000       0.93750000000000000        0.0000000000000000     
  0.12500000000000000       0.95312500000000000        0.0000000000000000     
  0.10312499999999999       0.94687500000000002        0.0000000000000000     
  0.11406250000000000       0.94843750000000004        0.0000000000000000     
  0.11562500000000001       0.95937499999999998        0.0000000000000000     
  0.10468750000000000       0.95781249999999996        0.0000000000000000     
   1.5625000000000000E-002  0.90625000000000000        0.0000000000000000     
   3.1250000000000000E-002  0.90625000000000000        0.0000000000000000     
   3.1250000000000000E-002  0.92187500000000000        0.0000000000000000     
   9.3749999999999997E-003  0.91562500000000002        0.0000000000000000     
   2.0312500000000001E-002  0.91718750000000004        0.0000000000000000     
   2.1874999999999999E-002  0.92812499999999998        0.0000000000000000     
   1.0937499999999999E-002  0.92656249999999996        0.0000000000000000     
   4.6875000000000000E-002  0.90625000000000000        0.0000000000000000     
   6.2500000000000000E-002  0.90625000000000000        0.0000000000000000     
   6.2500000000000000E-002  0.92187500000000000        0.0000000000000000     
   4.0625000000000001E-002  0.91562500000000002        0.0000000000000000     
   5.1562499999999997E-002  0.91718750000000004        0.0000000000000000     
   5.3124999999999999E-002  0.92812499999999998        0.0000000000000000     
   4.2187500000000003E-002  0.92656249999999996        0.0000000000000000     
   1.5625000000000000E-002  0.87500000000000000        0.0000000000000000     
   3.1250000000000000E-002  0.87500000000000000        0.0000000000000000     
   3.1250000000000000E-002  0.89062500000000000        0.0000000000000000     
   9.3749999999999997E-003  0.88437500000000002        0.0000000000000000     
   2.0312500000000001E-002  0.88593750000000004        0.0000000000000000     
   2.1874999999999999E-002  0.89687499999999998        0.0000000000000000     
   1.0937499999999999E-002  0.89531249999999996        0.0000000000000000     
   4.6875000000000000E-002  0.87500000000000000        0.0000000000000000     
   6.2500000000000000E-002  0.87500000000000000        0.0000000000000000     
   6.2500000000000000E-002  0.89062500000000000        0.0000000000000000     
   4.0625000000000001E-002  0.88437500000000002        0.0000000000000000     
   5.1562499999999997E-002  0.88593750000000004        0.0000000000000000     
   5.3124999999999999E-002  0.89687499999999998        0.0000000000000000     
   4.2187500000000003E-002  0.89531249999999996        0.0000000000000000     
   7.8125000000000000E-002  0.90625000000000000        0.0000000000000000     
   9.3750000000000000E-002  0.90625000000000000        0.0000000000000000     
   9.3750000000000000E-002  0.92187500000000000        0.0000000000000000     
   7.1874999999999994E-002  0.91562500000000002        0.0000000000000000     
   8.2812499999999997E-002  0.91718750000000004        0.0000000000000000     
   8.4375000000000006E-002  0.92812499999999998        0.0000000000000000     
   7.3437500000000003E-002  0.92656249999999996        0.0000000000000000     
  0.10937500000000000       0.90625000000000000        0.0000000000000000     
  0.12500000000000000       0.90625000000000000        0.0000000000000000     
  0.12500000000000000       0.92187500000000000        0.0000000000000000     
  0.10312499999999999       0.91562500000000002        0.0000000000000000     
  0.11406250000000000       0.91718750000000004        0.0000000000000000     
  0.11562500000000001       0.92812499999999998        0.0000000000000000     
  0.10468750000000000       0.92656249999999996        0.0000000000000000     
   7.8125000000000000E-002  0.87500000000000000        0.0000000000000000     
   9.3750000000000000E-002  0.87500000000000000        0.0000000000000000     
   9.3750000000000000E-002  0.89062500000000000        0.0000000000000000     
   7.1874999999999994E-002  0.88437500000000002        0.0000000000000000     
   8.2812499999999997E-002  0.88593750000000004        0.0000000000000000     
   8.4375000000000006E-002  0.89687499999999998        0.0000000000000000     
   7.3437500000000003E-002  0.89531249999999996        0.0000000000000000     
  0.10937500000000000       0.87500000000000000        0.0000000000000000     
  0.12500000000000000       0.87500000000000000        0.0000000000000000     
  0.12500000000000000       0.89062500000000000        0.0000000000000000     
  0.10312499999999999       0.88437500000000002        0.0000000000000000     
  0.11406250000000000       0.88593750000000004        0.0000000000000000     
  0.11562500000000001       0.89687499999999998        0.0000000000000000     
  0.10468750000000000       0.89531249999999996        0.0000000000000000     
  0.14062500000000000       0.96875000000000000        0.0000000000000000     
  0.15625000000000000       0.96875000000000000        0.0000000000000000     
  0.15625000000000000       0.98437500000000000        0.0000000000000000     
  0.13437499999999999       0.97812500000000002        0.0000000000000000     
  0.14531250000000001       0.97968750000000004        0.0000000000000000     
  0.14687500000000001       0.99062499999999998        0.0000000000000000     
  0.13593749999999999       0.98906249999999996        0.0000000000000000     
  0.17187500000000000       0.96875000000000000        0.0000000000000000     
  0.18750000000000000       0.96875000000000000        0.0000000000000000     
  0.18750000000000000       0.98437500000000000        0.0000000000000000     
  0.16562499999999999       0.97812500000000002        0.0000000000000000     
  0.17656250000000001       0.97968750000000004        0.0000000000000000     
  0.17812500000000001       0.99062499999999998        0.0000000000000000     
[...]
 CELL_DATA       14336
 SCALARS Nutrients float
 LOOKUP_TABLE default
    0.13073434732085174507E-04
    0.12972314679190730506E-04
    0.13694870731118276901E-04
    0.13694870730127925979E-04
    0.12972314677654255092E-04
    0.13073434727952973401E-04
    0.12494834558782782528E-04
    0.12155953593245892672E-04
    0.11789541158630610906E-04
    0.11789541158655630565E-04
    0.12155953595353576613E-04
    0.12494834563993387018E-04
    0.12440921641728443057E-04
    0.12440921641174398807E-04
    0.15438406284783329924E-04
    0.16072360903147012525E-04
    0.17795103272025281500E-04
    0.18269322183186607542E-04
    0.16981572539876029198E-04
    0.17608447218454964918E-04
    0.16251354911832928553E-04
    0.15126975359613956001E-04
    0.13944213247828325089E-04
    0.13510390170413584147E-04
    0.14254597877867224194E-04
    0.14157177587464743121E-04
    0.15316777325698959996E-04
    0.15576819940784635845E-04
    0.17608447228916906019E-04
    0.16981572546583340906E-04
    0.18269322187775815109E-04
    0.17795103275746602169E-04
    0.16072360906475838455E-04
    0.15438406286300487906E-04
    0.14157177589218773866E-04
    0.14254597881663793577E-04
    0.13510390175143577061E-04
    0.13944213253208073588E-04
    0.15126975367295875677E-04
    0.16251354923701110365E-04
    0.15576819946757702125E-04
    0.15316777330635234232E-04
    0.20787956488278719986E-04
    0.21063496405732683067E-04
    0.23752962280964430672E-04
    0.23752962281180058156E-04
    0.21063496404627928487E-04
    0.20787956484737776677E-04
    0.18402173847887817867E-04
    0.17723495310590224355E-04
    0.15949787024504719508E-04
    0.15949787025234838191E-04
    0.17723495311912710449E-04
    0.18402173850902059149E-04
    0.19184983743771208376E-04
    0.19184983743397541486E-04
    0.21797106619163701441E-04
    0.23509675682026539309E-04
    0.26864100621045850349E-04
    0.28111333055531222483E-04
    0.25890186890316317235E-04
    0.27389339377391953991E-04
    0.24740348274990800373E-04
    0.22283902139391550756E-04
    0.19747172174183377205E-04
    0.18663337553540018080E-04
    0.20028632361447651773E-04
    0.19373232220554294821E-04
    0.22335521963250150866E-04
    0.23015388494652865774E-04
    0.34507558447450968283E-04
    0.37953909884499173423E-04
    0.43876287472383718440E-04
    0.46281044284941869819E-04
    0.42536448932426952792E-04
    0.45303695780828958078E-04
    0.40624264754047714884E-04
    0.36175724784251955075E-04
    0.31548837994919654785E-04
    0.29446673933883500945E-04
    0.31828485292059285395E-04
    0.30261691426384250051E-04
    0.36091770737672154332E-04
    0.37399474245185188113E-04
    0.29122336394740120795E-04
    0.30460446811758815593E-04
    0.35176181758454542982E-04
    0.35805399745600987324E-04
    0.31612986564293043266E-04
    0.31853733916255061367E-04
    0.27718544608360962941E-04
    0.25893054107737381960E-04
    0.22508028724802364576E-04
    0.21999324235160883258E-04
    0.24831374517796251376E-04
    0.25148701407416896068E-04
    0.27742251167048693290E-04
    0.28064939772357614208E-04
    0.44902228032880905982E-04
    0.47978057729985939650E-04
    0.56094775075770006141E-04
    0.57773833077295215011E-04
    0.51061084299073680498E-04
    0.52128420304688039412E-04
    0.45152014977209648568E-04
    0.41482717454151420795E-04
    0.35518058818969457980E-04
    0.34170404047776979726E-04
    0.38655693630416235250E-04
    0.38403758934544852391E-04
    0.43904188645375428633E-04
    0.44768410367488473589E-04
    0.27389339399433245445E-04
    0.25890186907444234836E-04
    0.28111333072313974158E-04
    0.26864100635108274399E-04
    0.23509675693146374288E-04
    0.21797106626081297549E-04
    0.19373232225006713344E-04
    0.20028632370861301510E-04
    0.18663337563837932944E-04
    0.19747172186858774639E-04
    0.22283902155779527479E-04
    0.24740348298289922200E-04
    0.23015388509091297913E-04
    0.22335521975406486510E-04
    0.31853733930866440693E-04
    0.31612986576617636923E-04
    0.35805399759593334644E-04
    0.35176181770910873979E-04
    0.30460446819150828078E-04
    0.29122336396878272511E-04
    0.25148701406572444877E-04
    0.24831374521591368943E-04
    0.21999324239712546937E-04
    0.22508028731231951122E-04
    0.25893054117021923547E-04
    0.27718544621084542997E-04
    0.28064939781147339476E-04
    0.27742251174462484686E-04
    0.45303695844854775874E-04
    0.42536448987063315500E-04
    0.46281044342897842739E-04
    0.43876287523369579210E-04
    0.37953909923924992803E-04
    0.34507558475418180163E-04
    0.30261691445821084598E-04
    0.31828485320896860898E-04
    0.29446673960023069834E-04
    0.31548838028571914638E-04
    0.36175724829930571672E-04
    0.40624264816454161539E-04
    0.37399474289277874429E-04
    0.36091770776781698386E-04
    0.52128420364617090879E-04
    0.51061084354027294315E-04
    0.57773833142328568334E-04
    0.56094775135371249082E-04
    0.47978057771777142581E-04
    0.44902228060165971736E-04
    0.38403758951029780505E-04
    0.38655693655848060678E-04
    0.34170404068735183703E-04
    0.35518058846518669265E-04
    0.41482717493857635186E-04
    0.45152015027529416181E-04
    0.44768410409611672778E-04
    0.43904188683561354409E-04
    0.43469715979017440764E-04
    0.44511016084728819212E-04
    0.51508818922682855464E-04
    0.51508818919816292683E-04
    0.44511016079990191644E-04
    0.43469715968426337303E-04
    0.37093577337910753876E-04
    0.35616244851830867102E-04
    0.30723286218375040803E-04
    0.30723286219837046775E-04
    0.35616244856867094613E-04
    0.37093577351302317667E-04
    0.39658551190425745270E-04
    0.39658551189017441187E-04
    0.65087504385476184087E-04
    0.68167906835813038471E-04
    0.79944130597877041569E-04
    0.81040804613622538445E-04
    0.70074818205364403090E-04
    0.69485454410317048991E-04
    0.58927988215583731796E-04
    0.55521282867789649473E-04
    0.47168827234409526109E-04
    0.46426486917227558762E-04
    0.53884671105440155392E-04
    0.55013740291789569768E-04
    0.61028391869144995154E-04
    0.61547023420068875050E-04
    0.69485454480362052318E-04
    0.70074818264918652642E-04
    0.81040804681093103713E-04
    0.79944130653071388925E-04
    0.68167906873312582956E-04
    0.65087504405738879146E-04
    0.55013740298071308406E-04
    0.53884671126368665782E-04
    0.46426486935171592607E-04
    0.47168827261760856945E-04
    0.55521282911720708350E-04
    0.58927988279070274208E-04
    0.61547023463588492755E-04
    0.61028391906031335219E-04
    0.10110725651220254411E-03
    0.10403025865833461069E-03
    0.12179653503543330000E-03
    0.12179653502371228847E-03
    0.10403025863633815439E-03
    0.10110725646153625871E-03
    0.84970874940272408385E-04
    0.81497540429182981406E-04
    0.69189627994293507519E-04
    0.69189628004679269864E-04
    0.81497540451511311997E-04
    0.84970874994125882257E-04
    0.91793273880002112619E-04
    0.91793273873657686766E-04
    0.57311214420518972481E-04
    0.63502954266601681290E-04
    0.73765999881529199637E-04
    0.78071724060388772437E-04
    0.71675503378793652370E-04
    0.76564325522415901471E-04
    0.68485085288330020247E-04
    0.60708947207299420823E-04
    0.52655429128943151364E-04
    0.48935271200824857036E-04
    0.52991416536630601183E-04
    0.50076514710513644261E-04
    0.60423074244239649566E-04
    0.62748770025773141696E-04
    0.97241777999786338732E-04
    0.10807342215804897662E-03
    0.12593565919429334132E-03
    0.13336606352207201211E-03
    0.12220578210017435036E-03
    0.13052854965392259100E-03
    0.11661778039860218402E-03
    0.10322933938907921528E-03
    0.89299618188085316513E-04
    0.82856567628430675986E-04
    0.89845454414969524721E-04
    0.84702192168381688084E-04
    0.10274263476385146667E-03
    0.10677257986578463458E-03
    0.73311484239516679388E-04
    0.79339020388524426398E-04
    0.93429016202423289866E-04
    0.96879540891986831394E-04
    0.85591123629971224457E-04
    0.87888261417805177899E-04
    0.75857687982397345146E-04
    0.69209185826243343814E-04
    0.58886815125697779564E-04
    0.56241526619197345380E-04
    0.63582216269558362062E-04
    0.62421690920094131580E-04
    0.72810416691251669276E-04
    0.74548784331241195380E-04
    0.12387459666379354120E-03
    0.13499740886467132212E-03
    0.15974437413122504490E-03
    0.16610252831309181803E-03
    0.14642674763776759666E-03
    0.15053661328488733475E-03
    0.12957863758197878850E-03
    0.11787817718412335610E-03
    0.99909354913599792846E-04
    0.95120579938922348749E-04
    0.10765691513115989777E-03
    0.10512262856335194893E-03
    0.12386444319271376190E-03
    0.12703278420197314691E-03
    0.16657753035548243247E-03
    0.18499515679157451536E-03
    0.21571932663895794610E-03
    0.22793319955659302597E-03
    0.20848051798001118783E-03
    0.22207334889446422236E-03
    0.19855527395106067423E-03
    0.17599491917462360409E-03
    0.15230419877188526058E-03
    0.14132899519251820994E-03
    0.15345350260192758838E-03
    0.14480982200017655966E-03
    0.17551606867799828394E-03
    0.18225601084043992596E-03
    0.28496698549111611643E-03
    0.31492930955215824550E-03
    0.36692337708744033080E-03
    0.38576545710023666660E-03
    0.35204058516813207342E-03
    0.37301914275195108923E-03
    0.33439554437935108556E-03
    0.29758274476387395601E-03
    0.25823210526642128865E-03
    0.24014338529802911268E-03
    0.26101391882587333991E-03
    0.24729716612909594066E-03
    0.29788676447163359336E-03
    0.30867714290255674403E-03
    0.21377151340545475660E-03
    0.23345703619418784911E-03
    0.27733227428532918404E-03
    0.28813739580623533082E-03
    0.25286182870219817576E-03
    0.25903975306173192142E-03
    0.22239546264968450078E-03
    0.20260565259362563889E-03
    0.17133622284756260174E-03
    0.16313577879749219658E-03
    0.18516438917842587279E-03
    0.18068397252463431492E-03
    0.21360704033915819153E-03
    0.21900408141685952039E-03
    0.37279854324627248767E-03
    0.40600645804880460335E-03
    0.48351226448867029237E-03
    0.50003707591080904810E-03
    0.43610376105850855383E-03
    0.44321142865418966745E-03
    0.37953611382346018506E-03
    0.34770875632967598390E-03
    0.29385295716033400185E-03
    0.28067485610842678829E-03
    0.32011750487175261127E-03
    0.31368973923786858940E-03
    0.36942295973325288633E-03
    0.37787234717006951048E-03
    0.10374069463842247249E-03
    0.11041525605364254173E-03
    0.13056775403124022293E-03
    0.13365843893191917211E-03
    0.11568130519394946413E-03
    0.11590827729001994077E-03
    0.97915639187341348116E-04
    0.91140963810917833177E-04
    0.76766824790210010272E-04
    0.74777173593951529510E-04
    0.86724239544922734815E-04
    0.87289881717551398663E-04
    0.99258794295613539090E-04
    0.10067361065183162130E-03
    0.17271580683568822884E-03
    0.18606309924861278403E-03
    0.22157205506976736221E-03
    0.22838771124917122009E-03
    0.19745778160722962571E-03
    0.19892731137326444030E-03
    0.16738170501370751796E-03
    0.15475527539210201760E-03
    0.12952833884985836643E-03
    0.12535532290445752139E-03
    0.14538093337672678643E-03
    0.14483495855347950005E-03
    0.16767970615258866521E-03
    0.17071950237151884517E-03
    0.15594167947451779174E-03
    0.16335186163874616696E-03
    0.19279318019789330480E-03
    0.19521258255263980843E-03
    0.16731834603658839395E-03
    0.16503469340608303275E-03
    0.13824063790991808986E-03
    0.13057234655328779876E-03
    0.10978872336122255117E-03
    0.10839486401275181279E-03
    0.12738484910736197616E-03
    0.13057820070247732475E-03
    0.14513083391465631043E-03
    0.14617733819449383291E-03
    0.25203861076678594393E-03
    0.26850573340217817218E-03
    0.31927285536087766970E-03
    0.32707777432010586320E-03
    0.28098145794626399772E-03
    0.28048313268041861774E-03
    0.23404120507689908388E-03
    0.21832989358918362174E-03
    0.18217739603965492899E-03
    0.17805562286036887465E-03
    0.20865713614758312107E-03
    0.21072639163782649983E-03
    0.23999238598203725481E-03
    0.24323416238514260039E-03
    0.29776059583811137575E-03
    0.32327750862849778755E-03
    0.38739362159817357758E-03
    0.40053502327962425388E-03
    0.34498544608097285111E-03
    0.34762826991162039739E-03
    0.29113852529821630539E-03
    0.26857656306627505438E-03
    0.22366927004517501271E-03
    0.21585247024527261846E-03
    0.25089394865189106228E-03
    0.24862703853787695377E-03
    0.29102673581266373052E-03
    0.29679352696734449205E-03
    0.52666652452370242826E-03
    0.57325309418409587433E-03
    0.69053713156679030500E-03
    0.71308183163777715593E-03
    0.61031091485933626657E-03
    0.61166657313084917078E-03
    0.50960985953314426409E-03
    0.47145737142493344875E-03
    0.39111237101263629512E-03
    0.37785819651243128655E-03
    0.44139794138952666422E-03
    0.43740470860228661786E-03
    0.51385225335500448254E-03
    0.52368034480976786982E-03
    0.42643763092505693321E-03
    0.46123489497755461352E-03
    0.55297829704142019164E-03
    0.57148437179235301361E-03
    0.49047550643382248608E-03
    0.49293466166591432681E-03
    0.40918909585510403453E-03
    0.37866001692636098476E-03
    0.31361336846384143618E-03
    0.30427510606637894275E-03
    0.35637780732988030927E-03
    0.35545816779171250134E-03
    0.41363585285957347017E-03
    0.42118066734359537167E-03
    0.75307894562623585964E-03
    0.82280517404437355199E-03
    0.99413821146893664206E-03
    0.10316400025069290269E-02
    0.88150318716731523600E-03
    0.88621445975438383792E-03
    0.73121074991095694109E-03
    0.67482520129453008040E-03
    0.55525244082292872679E-03
    0.53693461719669564013E-03
    0.63068068347556900059E-03
    0.62465515434492291207E-03
    0.73728380642429922672E-03
    0.75234998251313609224E-03
    0.76564325681140917566E-04
    0.71675503519128241480E-04
    0.78071724211832625555E-04
    0.73766000017759758263E-04
    0.63502954376113419075E-04
    0.57311214506465196577E-04
    0.50076514776432011489E-04
    0.52991416619788846826E-04
    0.48935271277017042735E-04
    0.52655429218857494424E-04
    0.60708947324539541430E-04
    0.68485085438843993819E-04
    0.62748770141866339035E-04
    0.60423074351109904941E-04
    0.87888261581126899498E-04
    0.85591123784905029500E-04
    0.96879541073766674850E-04
    0.93429016374149529865E-04
    0.79339020518525213551E-04
    0.73311484341233762495E-04
    0.62421690993584919146E-04
    0.63582216358564570607E-04
    0.56241526693024594761E-04
    0.58886815213444043541E-04
    0.69209185942058023167E-04
    0.75857688120319543765E-04
    0.74548784456526787285E-04
    0.72810416808900561207E-04
    0.13052855000581897304E-03
    0.12220578241626498276E-03
    0.13336606386548060903E-03
    0.12593565950737206009E-03
    0.10807342241560254439E-03
    0.97241778211541472017E-04
    0.84702192336962061269E-04
    0.89845454615151870465E-04
    0.82856567811501384102E-04
    0.89299618398691303915E-04
    0.10322933965441457639E-03
    0.11661778072820498415E-03
    0.10677258013210786649E-03
    0.10274263501197261107E-03
    0.15053661366273482763E-03
    0.14642674800415108813E-03
    0.16610252874182249096E-03
    0.15974437454322162650E-03
    0.13499740918514139946E-03
    0.12387459693124155155E-03
    0.10512262876605875102E-03
    0.10765691535909367206E-03
    0.95120580131086341800E-04
    0.99909355130705301221E-04
    0.11787817746102930924E-03
    0.12957863790269774445E-03
    0.12703278450378451144E-03
    0.12386444348076109854E-03
    0.11590827750162558969E-03
    0.11568130539070220735E-03
    0.13365843916112327898E-03
    0.13056775423918458886E-03
    0.11041525621054680290E-03
    0.10374069475978566488E-03
    0.87289881798451962689E-04
    0.86724239649669200764E-04
    0.74777173681782449347E-04
    0.76766824895309126531E-04
    0.91140963957105135349E-04
    0.97915639370395752541E-04
    0.10067361080729989736E-03
    0.99258794439395891108E-04
    0.16503469364508911331E-03
    0.16731834623204242560E-03
    0.19521258276600179709E-03
    0.19279318036548353035E-03
    0.16335186175733010195E-03
    0.15594167953392822188E-03
    0.13057820072938632820E-03
    0.12738484918428134981E-03
    0.10839486408831781753E-03
    0.10978872347327076639E-03
    0.13057234670812989386E-03
    0.13824063812346948864E-03
    0.14617733834099640752E-03
    0.14513083403826194462E-03
    0.19892731188887545881E-03
    0.19745778210173835655E-03
    0.22838771183251598039E-03
    0.22157205561212404911E-03
    0.18606309967531328839E-03
    0.17271580719304486986E-03
    0.14483495881633518237E-03
    0.14538093367576931545E-03
    0.12535532315397643279E-03
    0.12952833912977359046E-03
    0.15475527576287273317E-03
    0.16738170545250918224E-03
    0.17071950277577728613E-03
    0.16767970653607560858E-03
    0.28048313333663919258E-03
    0.28098145854155967462E-03
    0.32707777499213724990E-03
    0.31927285596233432544E-03
    0.26850573386502641065E-03
    0.25203861112185364443E-03
    0.21072639188993613941E-03
    0.20865713647741227551E-03
    0.17805562315190300547E-03
    0.18217739639449800990E-03
    0.21832989405004600840E-03
    0.23404120564795479202E-03
    0.24323416286185680886E-03
    0.23999238642046416461E-03
    0.22207334961952252786E-03
    0.20848051864107855296E-03
    0.22793320027579585369E-03
    0.21571932730565115499E-03
    0.18499515734367530666E-03
    0.16657753082293365126E-03
    0.14480982237795488043E-03
    0.15345350303745460972E-03
    0.14132899559111958211E-03
    0.15230419922307534414E-03
    0.17599491973085433830E-03
    0.19855527462681781328E-03
    0.18225601140282730222E-03
    0.17551606920679596558E-03
    0.25903975386981197828E-03
    0.25286182949238477681E-03
    0.28813739673498351161E-03
    0.27733227517871144891E-03
    0.23345703690503765803E-03
    0.21377151401622319113E-03
    0.18068397299998513916E-03
    0.18516438969358556504E-03
    0.16313577923407425506E-03
    0.17133622332709427219E-03
    0.20260565319678904570E-03
    0.22239546333408446587E-03
    0.21900408207746908116E-03
    0.21360704097503105631E-03
    0.37301914416128267079E-03
    0.35204058648066548871E-03
    0.38576545854952570607E-03
    0.36692337843189645275E-03
    0.31492931067240330974E-03
    0.28496698645472849859E-03
    0.24729716691846147540E-03
    0.26101391971444494553E-03
    0.24014338611089741291E-03
    0.25823210617498612443E-03
    0.29758274586641535403E-03
    0.33439554569345106456E-03
    0.30867714402689510516E-03
    0.29788676553653393141E-03
    0.44321143026851840107E-03
    0.43610376267063429706E-03
    0.50003707782008929069E-03
    0.48351226633141494498E-03
    0.40600645952513597604E-03
    0.37279854454279256213E-03
    0.31368974025514626859E-03
    0.32011750595450157338E-03
    0.28067485702545490623E-03
    0.29385295815514793361E-03
    0.34770875756425987085E-03
    0.37953611520449240940E-03
    0.37787234852884859365E-03
    0.36942296105003046523E-03
    0.34762827103915547441E-03
    0.34498544718673655220E-03
    0.40053502458342718539E-03
    0.38739362283901884049E-03
    0.32327750961686380635E-03
    0.29776059670072029667E-03
    0.24862703918982577206E-03
    0.25089394936050977286E-03
    0.21585247083515774705E-03
    0.22366927068993521822E-03
    0.26857656389782087834E-03
    0.29113852625673543100E-03
    0.29679352788430940100E-03
    0.29102673669449241178E-03
    0.49293466319636045254E-03
    0.49047550787288977589E-03
    0.57148437345146520586E-03
    0.55297829856806738139E-03
    0.46123489619349076520E-03
    0.42643763193569381989E-03
    0.35545816856041607002E-03
    0.35637780821546824472E-03
    0.30427510683584101927E-03
    0.31361336933641769872E-03
    0.37866001803778937115E-03
    0.40918909716400829989E-03