# vtk DataFile Version 3.0
LAPLACIEN  2D
ASCII
DATASET UNSTRUCTURED_GRID
 POINTS        7297  float
   1.5625000000000000E-002  0.96875000000000000        0.0000000000000000     
   3.1250000000000000E-002  0.96875000000000000        0.0000000000000000     
   3.1250000000000000E-002  0.98437500000000000        0.0000000000000000     
   9.3749999999999997E-003  0.97812500000000002        0.0000000000000000     
   2.0312500000000001E-002  0.97968750000000004        0.0000000000000000     
   2.1874999999999999E-002  0.99062499999999998        0.0000000000000000     
   1.0937499999999999E-002  0.98906249999999996        0.0000000000000000     
   4.6875000000000000E-002  0.96875000000000000        0.0000000000000000     
   6.2500000000000000E-002  0.96875000000000000        0.0000000000000000     
   6.2500000000000000E-002  0.98437500000000000        0.0000000000000000     
   4.0625000000000001E-002  0.97812500000000002        0.0000000000000000     
   5.1562499999999997E-002  0.97968750000000004        0.0000000000000000     
   5.3124999999999999E-002  0.99062499999999998        0.0000000000000000     
   4.2187500000000003E-002  0.98906249999999996        0.0000000000000000     
   1.5625000000000000E-002  0.93750000000000000        0.0000000000000000     
   3.1250000000000000E-002  0.93750000000000000        0.0000000000000000     
   3.1250000000000000E-002  0.95312500000000000        0.0000000000000000     
   9.3749999999999997E-003  0.94687500000000002        0.0000000000000000     
   2.0312500000000001E-002  0.94843750000000004        0.0000000000000000     
   2.1874999999999999E-002  0.95937499999999998        0.0000000000000000     
   1.0937499999999999E-002  0.95781249999999996        0.0000000000000000     
   4.6875000000000000E-002  0.93750000000000000        0.0000000000000000     
   6.2500000000000000E-002  0.93750000000000000        0.0000000000000000     
   6.2500000000000000E-002  0.95312500000000000        0.0000000000000000     
   4.0625000000000001E-002  0.94687500000000002        0.0000000000000000     
   5.1562499999999997E-002  0.94843750000000004        0.0000000000000000     
   5.3124999999999999E-002  0.95937499999999998        0.0000000000000000     
   4.2187500000000003E-002  0.95781249999999996        0.0000000000000000     
   7.8125000000000000E-002  0.96875000000000000        0.0000000000000000     
   9.3750000000000000E-002  0.96875000000000000        0.0000000000000000     
   9.3750000000000000E-002  0.98437500000000000        0.0000000000000000     
   7.1874999999999994E-002  0.97812500000000002        0.0000000000000000     
   8.2812499999999997E-002  0.97968750000000004        0.0000000000000000     
   8.4375000000000006E-002  0.99062499999999998        0.0000000000000000     
   7.3437500000000003E-002  0.98906249999999996        0.0000000000000000     
  0.10937500000000000       0.96875000000000000        0.0000000000000000     
  0.12500000000000000       0.96875000000000000        0.0000000000000000     
  0.12500000000000000       0.98437500000000000        0.0000000000000000     
  0.10312499999999999       0.97812500000000002        0.0000000000000000     
  0.11406250000000000       0.97968750000000004        0.0000000000000000     
  0.11562500000000001       0.99062499999999998        0.0000000000000000     
  0.10468750000000000       0.98906249999999996        0.0000000000000000     
   7.8125000000000000E-002  0.93750000000000000        0.0000000000000000     
   9.3750000000000000E-002  0.93750000000000000        0.0000000000000000     
   9.3750000000000000E-002  0.95312500000000000        0.0000000000000000     
   7.1874999999999994E-002  0.94687500000000002        0.0000000000000000     
   8.2812499999999997E-002  0.94843750000000004        0.0000000000000000     
   8.4375000000000006E-002  0.95937499999999998        0.0000000000000000     
   7.3437500000000003E-002  0.95781249999999996        0.0000000000000000     
  0.10937500000000000       0.93750000000000000        0.0000000000000000     
  0.12500000000000000       0.93750000000000000        0.0000000000000000     
  0.12500000000000000       0.95312500000000000        0.0000000000000000     
  0.10312499999999999       0.94687500000000002        0.0000000000000000     
  0.11406250000000000       0.94843750000000004        0.0000000000000000     
  0.11562500000000001       0.95937499999999998        0.0000000000000000     
  0.10468750000000000       0.95781249999999996        0.0000000000000000     
   1.5625000000000000E-002  0.90625000000000000        0.0000000000000000     
   3.1250000000000000E-002  0.90625000000000000        0.0000000000000000     
   3.1250000000000000E-002  0.92187500000000000        0.0000000000000000     
   9.3749999999999997E-003  0.91562500000000002        0.0000000000000000     
   2.0312500000000001E-002  0.91718750000000004        0.0000000000000000     
   2.1874999999999999E-002  0.92812499999999998        0.0000000000000000     
   1.0937499999999999E-002  0.92656249999999996        0.0000000000000000     
   4.6875000000000000E-002  0.90625000000000000        0.0000000000000000     
   6.2500000000000000E-002  0.90625000000000000        0.0000000000000000     
   6.2500000000000000E-002  0.92187500000000000        0.0000000000000000     
   4.0625000000000001E-002  0.91562500000000002        0.0000000000000000     
   5.1562499999999997E-002  0.91718750000000004        0.0000000000000000     
   5.3124999999999999E-002  0.92812499999999998        0.0000000000000000     
   4.2187500000000003E-002  0.92656249999999996        0.0000000000000000     
   1.5625000000000000E-002  0.87500000000000000        0.0000000000000000     
   3.1250000000000000E-002  0.87500000000000000        0.0000000000000000     
   3.1250000000000000E-002  0.89062500000000000        0.0000000000000000     
   9.3749999999999997E-003  0.88437500000000002        0.0000000000000000     
   2.0312500000000001E-002  0.88593750000000004        0.0000000000000000     
   2.1874999999999999E-002  0.89687499999999998        0.0000000000000000     
   1.0937499999999999E-002  0.89531249999999996        0.0000000000000000     
   4.6875000000000000E-002  0.87500000000000000        0.0000000000000000     
   6.2500000000000000E-002  0.87500000000000000        0.0000000000000000     
   6.2500000000000000E-002  0.89062500000000000        0.0000000000000000     
   4.0625000000000001E-002  0.88437500000000002        0.0000000000000000     
   5.1562499999999997E-002  0.88593750000000004        0.0000000000000000     
   5.3124999999999999E-002  0.89687499999999998        0.0000000000000000     
   4.2187500000000003E-002  0.89531249999999996        0.0000000000000000     
   7.8125000000000000E-002  0.90625000000000000        0.0000000000000000     
   9.3750000000000000E-002  0.90625000000000000        0.0000000000000000     
   9.3750000000000000E-002  0.92187500000000000        0.0000000000000000     
   7.1874999999999994E-002  0.91562500000000002        0.0000000000000000     
   8.2812499999999997E-002  0.91718750000000004        0.0000000000000000     
   8.4375000000000006E-002  0.92812499999999998        0.0000000000000000     
   7.3437500000000003E-002  0.92656249999999996        0.0000000000000000     
  0.10937500000000000       0.90625000000000000        0.0000000000000000     
  0.12500000000000000       0.90625000000000000        0.0000000000000000     
  0.12500000000000000       0.92187500000000000        0.0000000000000000     
  0.10312499999999999       0.91562500000000002        0.0000000000000000     
  0.11406250000000000       0.91718750000000004        0.0000000000000000     
  0.11562500000000001       0.92812499999999998        0.0000000000000000     
  0.10468750000000000       0.92656249999999996        0.0000000000000000     
   7.8125000000000000E-002  0.87500000000000000        0.0000000000000000     
   9.3750000000000000E-002  0.87500000000000000        0.0000000000000000     
   9.3750000000000000E-002  0.89062500000000000        0.0000000000000000     
   7.1874999999999994E-002  0.88437500000000002        0.0000000000000000     
   8.2812499999999997E-002  0.88593750000000004        0.0000000000000000     
   8.4375000000000006E-002  0.89687499999999998        0.0000000000000000     
   7.3437500000000003E-002  0.89531249999999996        0.0000000000000000     
  0.10937500000000000       0.87500000000000000        0.0000000000000000     
  0.12500000000000000       0.87500000000000000        0.0000000000000000     
  0.12500000000000000       0.89062500000000000        0.0000000000000000     
  0.10312499999999999       0.88437500000000002        0.0000000000000000     
  0.11406250000000000       0.88593750000000004        0.0000000000000000     
  0.11562500000000001       0.89687499999999998        0.0000000000000000     
  0.10468750000000000       0.89531249999999996        0.0000000000000000     
  0.14062500000000000       0.96875000000000000        0.0000000000000000     
  0.15625000000000000       0.96875000000000000        0.0000000000000000     
  0.15625000000000000       0.98437500000000000        0.0000000000000000     
  0.13437499999999999       0.97812500000000002        0.0000000000000000     
  0.14531250000000001       0.97968750000000004        0.0000000000000000     
  0.14687500000000001       0.99062499999999998        0.0000000000000000     
  0.13593749999999999       0.98906249999999996        0.0000000000000000     
  0.17187500000000000       0.96875000000000000        0.0000000000000000     
  0.18750000000000000       0.96875000000000000        0.0000000000000000     
  0.18750000000000000       0.98437500000000000        0.0000000000000000     
  0.16562499999999999       0.97812500000000002        0.0000000000000000     
  0.17656250000000001       0.97968750000000004        0.0000000000000000     
  0.17812500000000001       0.99062499999999998        0.0000000000000000     
[...]
 CELL_DATA       14336
 SCALARS Nutrients float
 LOOKUP_TABLE default
    0.13712962584415189766E-04
    0.13606038689772100914E-04
    0.14372869251028579329E-04
    0.14372869250130839602E-04
    0.13606038687787236750E-04
    0.13712962579921513962E-04
    0.13099691480234666803E-04
    0.12740016836084670765E-04
    0.12351909557146863760E-04
    0.12351909557863033505E-04
    0.12740016837980266127E-04
    0.13099691485939643767E-04
    0.13042201422984563686E-04
    0.13042201422412003295E-04
    0.16217802250578805014E-04
    0.16884704017299664115E-04
    0.18699173631044507560E-04
    0.19193223181177346270E-04
    0.17836345287761361781E-04
    0.18489379180329870868E-04
    0.17064941121120553395E-04
    0.15882319312992057830E-04
    0.14633999413220416901E-04
    0.14175639119994197707E-04
    0.14963708668667755121E-04
    0.14862235093242312316E-04
    0.16085504879106081558E-04
    0.16358560770449283382E-04
    0.18489379191430525633E-04
    0.17836345295274920106E-04
    0.19193223186553877739E-04
    0.18699173635325401911E-04
    0.16884704021287508783E-04
    0.16217802252310801044E-04
    0.14862235094998821480E-04
    0.14963708672782458220E-04
    0.14175639124647622231E-04
    0.14633999419412134572E-04
    0.15882319321273976682E-04
    0.17064941133942579008E-04
    0.16358560777090580730E-04
    0.16085504884476165412E-04
    0.21851192752184074732E-04
    0.22146572902640293404E-04
    0.24980544880975799859E-04
    0.24980544881130573108E-04
    0.22146572901513465146E-04
    0.21851192748521768543E-04
    0.19340547432615519207E-04
    0.18628718047602115882E-04
    0.16758514235201490299E-04
    0.16758514236086653282E-04
    0.18628718049132060672E-04
    0.19340547436067768002E-04
    0.20169404156510504009E-04
    0.20169404156151273948E-04
    0.22895680165486585658E-04
    0.24674413432069342402E-04
    0.28181509191520101387E-04
    0.29463657439030823472E-04
    0.27131914723375195306E-04
    0.28674794255148348824E-04
    0.25919352851864304514E-04
    0.23367887702032251614E-04
    0.20723196437499463729E-04
    0.19593230317826334477E-04
    0.21026835511348046439E-04
    0.20349968035663088060E-04
    0.23434928842326301752E-04
    0.24138672374686081194E-04
    0.36148999758976533279E-04
    0.39700504896666606049E-04
    0.45875593569285422018E-04
    0.48332556349348999912E-04
    0.44403577507598567897E-04
    0.47237518691099222054E-04
    0.42387139572614492174E-04
    0.37785973682657841811E-04
    0.32986079967472231741E-04
    0.30810262492858393681E-04
    0.33301284832821464413E-04
    0.31700656938241826913E-04
    0.37728473062070183900E-04
    0.39074101965947335437E-04
    0.30646930615737138267E-04
    0.32048184311490503652E-04
    0.37028496852447739557E-04
    0.37666782349797014973E-04
    0.33224788151335664594E-04
    0.33436972917588449151E-04
    0.29091187838823166485E-04
    0.27200140499958859398E-04
    0.23648264321099334815E-04
    0.23122667119633891051E-04
    0.26108320489552571758E-04
    0.26451352227236866988E-04
    0.29168616665619172105E-04
    0.29499323502110502763E-04
    0.47279772445143607596E-04
    0.50456196557497450526E-04
    0.59010456442366073654E-04
    0.60692615794408223391E-04
    0.53562674386304205644E-04
    0.54569678057377354701E-04
    0.47245602741154295637E-04
    0.43474538319997184800E-04
    0.37230644596019025388E-04
    0.35856449859106736308E-04
    0.40604856839053606640E-04
    0.40397673391894552391E-04
    0.46105271721007395360E-04
    0.46979263565353283883E-04
    0.28674794276924834061E-04
    0.27131914741126834088E-04
    0.29463657456063270296E-04
    0.28181509205645734423E-04
    0.24674413443559832222E-04
    0.22895680172951961360E-04
    0.20349968040877006143E-04
    0.21026835521441948336E-04
    0.19593230329381473241E-04
    0.20723196451085519837E-04
    0.23367887719166288181E-04
    0.25919352875960253952E-04
    0.24138672389716768935E-04
    0.23434928855377426061E-04
    0.33436972931884542486E-04
    0.33224788163814486009E-04
    0.37666782364132417413E-04
    0.37028496865464704721E-04
    0.32048184319248634270E-04
    0.30646930617954507893E-04
    0.26451352226442671956E-04
    0.26108320493701430614E-04
    0.23122667124472207620E-04
    0.23648264328063368656E-04
    0.27200140509633771366E-04
    0.29091187851851342978E-04
    0.29499323511289365132E-04
    0.29168616673323790570E-04
    0.47237518754941626724E-04
    0.44403577561672189021E-04
    0.48332556406395964178E-04
    0.45875593619399286085E-04
    0.39700504935378878098E-04
    0.36148999786383449804E-04
    0.31700656957596902452E-04
    0.33301284861462860309E-04
    0.30810262519426097067E-04
    0.32986080000875633313E-04
    0.37785973728380931025E-04
    0.42387139634953603098E-04
    0.39074102009615211014E-04
    0.37728473100959194456E-04
    0.54569678116346772049E-04
    0.53562674440579420608E-04
    0.60692615858914979719E-04
    0.59010456502022671892E-04
    0.50456196599017453836E-04
    0.47279772472448737867E-04
    0.40397673408308079016E-04
    0.40604856864338739514E-04
    0.35856449879651303603E-04
    0.37230644623206750115E-04
    0.43474538358970044841E-04
    0.47245602790448204707E-04
    0.46979263606913958327E-04
    0.46105271758774243114E-04
    0.45839589692816650867E-04
    0.46975042267052911742E-04
    0.54430313592863549023E-04
    0.54430313590027614953E-04
    0.46975042262447112493E-04
    0.45839589682299964333E-04
    0.39072582338726435968E-04
    0.37524704139324086590E-04
    0.32342666422555645046E-04
    0.32342666424138126209E-04
    0.37524704144598120296E-04
    0.39072582352627717082E-04
    0.41821080860223469882E-04
    0.41821080858812170690E-04
    0.68902660611387111524E-04
    0.72134992611922897545E-04
    0.84670854950225863528E-04
    0.85749289418150302059E-04
    0.74020151632621592331E-04
    0.73255951436337229292E-04
    0.62058195336032079574E-04
    0.58545541278337726065E-04
    0.49708400587615344537E-04
    0.48964232904198552461E-04
    0.56914438785126482846E-04
    0.58158850171364488842E-04
    0.64485678358550799672E-04
    0.65000415854957302626E-04
    0.73255951507345614011E-04
    0.74020151693527015289E-04
    0.85749289488116294151E-04
    0.84670855007554056285E-04
    0.72134992650703074531E-04
    0.68902660632276732937E-04
    0.58158850177563794234E-04
    0.56914438806309984034E-04
    0.48964232922171046613E-04
    0.49708400614978933633E-04
    0.58545541322743462206E-04
    0.62058195400006052177E-04
    0.65000415899148570025E-04
    0.64485678396174797014E-04
    0.10733504652986470662E-03
    0.11055183983310685916E-03
    0.12961637442340971714E-03
    0.12961637441096990667E-03
    0.11055183981019700318E-03
    0.10733504647744288106E-03
    0.90080883977663561268E-04
    0.86434208329710314174E-04
    0.73291567394389745970E-04
    0.73291567405127535208E-04
    0.86434208352918759431E-04
    0.90080884033747754005E-04
    0.97465633154150693599E-04
    0.97465633147495616719E-04
    0.59827953384579041804E-04
    0.66172023507414604862E-04
    0.76820383890264249262E-04
    0.81188029454729097574E-04
    0.74505480314072402323E-04
    0.79477395494579426293E-04
    0.71145611750484779776E-04
    0.63145564455573081485E-04
    0.54826337758326895093E-04
    0.50993002093682531731E-04
    0.55227040120226651417E-04
    0.52266301583315216532E-04
    0.62912871663392015893E-04
    0.65291770199944019625E-04
    0.10104589471952068656E-03
    0.11206415926068150936E-03
    0.13047332340407544735E-03
    0.13795682850714240022E-03
    0.12637364517506779397E-03
    0.13478249282159314340E-03
    0.12052921431569787634E-03
    0.10684271496987053033E-03
    0.92544100647032375285E-04
    0.85946300381480682218E-04
    0.93202053877477708207E-04
    0.88017033311310572752E-04
    0.10645437972304129407E-03
    0.11054819222431988915E-03
    0.77058398854574889866E-04
    0.83216395004006145321E-04
    0.97985131820572460835E-04
    0.10141012373717998689E-03
    0.89458631872027936558E-04
    0.91630006241244678486E-04
    0.79065840967918162908E-04
    0.72279883563705467028E-04
    0.61522450573092004960E-04
    0.58845271677652030891E-04
    0.66616358090531416539E-04
    0.65548926529446782945E-04
    0.76234101302402856306E-04
    0.77976628662093059067E-04
    0.12967527403094349309E-03
    0.14093783307778990797E-03
    0.16670012446508508880E-03
    0.17295726538371246003E-03
    0.15225633105995963878E-03
    0.15610858447822736276E-03
    0.13436274427423817264E-03
    0.12251173540452745567E-03
    0.10390619769616316883E-03
    0.99097469755553591899E-04
    0.11230741199376300602E-03
    0.10996046619070790171E-03
    0.12908276809537385255E-03
    0.13223262166661836083E-03
    0.17213979355911821086E-03
    0.19075351183298706664E-03
    0.22222494597804929011E-03
    0.23444936377043320056E-03
    0.21439204219061720053E-03
    0.22804775116816623651E-03
    0.20408835024364292763E-03
    0.18115901474665175338E-03
    0.15698476958208944752E-03
    0.14581549678370427396E-03
    0.15832186829478685111E-03
    0.14966626517803462777E-03
    0.18085287207067691139E-03
    0.18765878494591596245E-03
    0.29278976825834941190E-03
    0.32290826050217078446E-03
    0.37585871601020898712E-03
    0.39461222031070741691E-03
    0.36006750128996536887E-03
    0.38103928596909509251E-03
    0.34188751155792435890E-03
    0.30465997633290139166E-03
    0.26471917588927532366E-03
    0.24640648736993625003E-03
    0.26780238576602305662E-03
    0.25414976539005044737E-03
    0.30525297119769078833E-03
    0.31609267299520608105E-03
    0.22250838958717526913E-03
    0.24228620927175387439E-03
    0.28761560363752583210E-03
    0.29816237149756202440E-03
    0.26135500933553587827E-03
    0.26704587057281949699E-03
    0.22928228564057212655E-03
    0.20936693419842863093E-03
    0.17720346710134590121E-03
    0.16902976903761384743E-03
    0.19208268038636863262E-03
    0.18797150731795974287E-03
    0.22131367693209973027E-03
    0.22663827546359538228E-03
    0.38548958019494474966E-03
    0.41863203617940544527E-03
    0.49810931598974353754E-03
    0.51409379269749713292E-03
    0.44797030138178130232E-03
    0.45421824722181695921E-03
    0.38903593863404075000E-03
    0.35718626055200635360E-03
    0.30214117624296783077E-03
    0.28909187096833776276E-03
    0.33003548475485323596E-03
    0.32428678835417921100E-03
    0.38037094782699158117E-03
    0.38864461459669943488E-03
    0.10990771435594877371E-03
    0.11678382474366845673E-03
    0.13814951669326581800E-03
    0.14116143050673819466E-03
    0.12193901325650861520E-03
    0.12183038940751106936E-03
    0.10282676483728325008E-03
    0.95925026414964996760E-04
    0.80784973481109312700E-04
    0.78812816981054263491E-04
    0.91570372055589657691E-04
    0.92355209443813128891E-04
    0.10477847125818669487E-03
    0.10616807553516547453E-03
    0.18252988988729250321E-03
    0.19609829703313814910E-03
    0.23348645005600110014E-03
    0.24007980403617046414E-03
    0.20716797113665719209E-03
    0.20801189453952654315E-03
    0.17491166118502326924E-03
    0.16216840038843052308E-03
    0.13577301011950376189E-03
    0.13167484776296242374E-03
    0.15300523864382451259E-03
    0.15288384471324236715E-03
    0.17632526524625751082E-03
    0.17928619796877263200E-03
    0.16627454790242636473E-03
    0.17409422443847189389E-03
    0.20567043382473191703E-03
    0.20800716382508965927E-03
    0.17793452310147953943E-03
    0.17508147518923060175E-03
    0.14646891871264474511E-03
    0.13857945570440959428E-03
    0.11644337561923703145E-03
    0.11508480838898313848E-03
    0.13548176730407998723E-03
    0.13902452714671702716E-03
    0.15441730998374091489E-03
    0.15543200802250529318E-03
    0.26894181822330418680E-03
    0.28591596950923480521E-03
    0.34009072937368593770E-03
    0.34759990381194697277E-03
    0.29793186630901338048E-03
    0.29634695660780957906E-03
    0.24702487972931791525E-03
    0.23109506037116933587E-03
    0.19281038043365223756E-03
    0.18882010124770149144E-03
    0.22175255771915227429E-03
    0.22451342209131567207E-03
    0.25495381251477056313E-03
    0.25807995300484645870E-03
    0.31299570832664581248E-03
    0.33866873114292211575E-03
    0.40557671511101298870E-03
    0.41820612399747798945E-03
    0.35960038291778977440E-03
    0.36111409976456932585E-03
    0.30232361003210329485E-03
    0.27974026284778086889E-03
    0.23311944741426143053E-03
    0.22550445918678477491E-03
    0.26259316902598129262E-03
    0.26112044113986123328E-03
    0.30420685883905462321E-03
    0.30978150535848473536E-03
    0.54954830197248094679E-03
    0.59602844888511491688E-03
    0.71727164123235314253E-03
    0.73875982201500409868E-03
    0.63146098027284827507E-03
    0.63087110499902409461E-03
    0.52557322313211021856E-03
    0.48764394705438945292E-03
    0.40491056620320880046E-03
    0.39210415188212606940E-03
    0.45874196752279612415E-03
    0.45618232610379377996E-03
    0.53322434456644308889E-03
    0.54264517398166264676E-03
    0.45345195811422029210E-03
    0.48873407628198908045E-03
    0.58571957839025252934E-03
    0.60345967512370074243E-03
    0.51678147810334880592E-03
    0.51724003363075288751E-03
    0.42909803585159793935E-03
    0.39847298663318414481E-03
    0.33019338156434527949E-03
    0.32120217275531415561E-03
    0.37706313228895053718E-03
    0.37748279055047865172E-03
    0.43712370298218817654E-03
    0.44436629238832098688E-03
    0.79495144941210595796E-03
    0.86485381508836318629E-03
    0.10439314616148679705E-02
    0.10797453233623479762E-02
    0.92091015492687063916E-03
    0.92208483711900062711E-03
    0.76063445795320784853E-03
    0.70454196201997446730E-03
    0.58027124406730449472E-03
    0.56273998270590474928E-03
    0.66234725731994495337E-03
    0.65880479398576280090E-03
    0.77296800044746039049E-03
    0.78736127435046995328E-03
    0.79477395654752800965E-04
    0.74505480454819205099E-04
    0.81188029606357780057E-04
    0.76820384026700209990E-04
    0.66172023616573096027E-04
    0.59827953469953782935E-04
    0.52266301648287054934E-04
    0.55227040202867244733E-04
    0.50993002168839399223E-04
    0.54826337848132960238E-04
    0.63145564572790759106E-04
    0.71145611902079567389E-04
    0.65291770316065921216E-04
    0.62912871769669063602E-04
    0.91630006405329813939E-04
    0.89458632028362923831E-04
    0.10141012392192306330E-03
    0.97985131995529013444E-04
    0.83216395135528501803E-04
    0.77058398957468589828E-04
    0.65548926602612065913E-04
    0.66616358179081284390E-04
    0.58845271750868325571E-04
    0.61522450660076135795E-04
    0.72279883679409896572E-04
    0.79065841105802617738E-04
    0.77976628787690006731E-04
    0.76234101420382592530E-04
    0.13478249317929068469E-03
    0.12637364549623531147E-03
    0.13795682885591655105E-03
    0.13047332372254164803E-03
    0.11206415952154350651E-03
    0.10104589493339527246E-03
    0.88017033480677737902E-04
    0.93202054079505555783E-04
    0.85946300566000738246E-04
    0.92544100860366920085E-04
    0.10684271523912629873E-03
    0.12052921465076959552E-03
    0.11054819249445177421E-03
    0.10645437997424040712E-03
    0.15610858486340612231E-03
    0.15225633143396233391E-03
    0.17295726582259218686E-03
    0.16670012488707831259E-03
    0.14093783340556406561E-03
    0.12967527430434897754E-03
    0.10996046639678403822E-03
    0.11230741222520716945E-03
    0.99097469949473260633E-04
    0.10390619791552435983E-03
    0.12251173568596733900E-03
    0.13436274460015769404E-03
    0.13223262197428704628E-03
    0.12908276838913244097E-03
    0.12183038962416151097E-03
    0.12193901345873275758E-03
    0.14116143074314761101E-03
    0.13814951690824532789E-03
    0.11678382490584871673E-03
    0.10990771448166217824E-03
    0.92355209527386712058E-04
    0.91570372163185339187E-04
    0.78812817070453847689E-04
    0.80784973587945727415E-04
    0.95925026564391407133E-04
    0.10282676502438433069E-03
    0.10616807569491529208E-03
    0.10477847140609820376E-03
    0.17508147543663393655E-03
    0.17793452330417739685E-03
    0.20800716404574808461E-03
    0.20567043399913651587E-03
    0.17409422456140364222E-03
    0.16627454796471499926E-03
    0.13902452717446888938E-03
    0.13548176738381695837E-03
    0.11508480846727654865E-03
    0.11644337573518275019E-03
    0.13857945586493361349E-03
    0.14646891893423905377E-03
    0.15543200817448582637E-03
    0.15441731011203138667E-03
    0.20801189506872898457E-03
    0.20716797164556811223E-03
    0.24007980463720978337E-03
    0.23348645061670012966E-03
    0.19609829747358603885E-03
    0.18252989025739914494E-03
    0.15288384498400481065E-03
    0.15300523895132845352E-03
    0.13167484801858539336E-03
    0.13577301040608045959E-03
    0.16216840076897111995E-03
    0.17491166163538496812E-03
    0.17928619838451944181E-03
    0.17632526564112209889E-03
    0.29634695728609892649E-03
    0.29793186692494039473E-03
    0.34759990450894791498E-03
    0.34009072999735637808E-03
    0.28591596998966582136E-03
    0.26894181859199044237E-03
    0.22451342235253448016E-03
    0.22175255806085669512E-03
    0.18882010155008788969E-03
    0.19281038080111803385E-03
    0.23109506084857840951E-03
    0.24702488031953773705E-03
    0.25807995349877194298E-03
    0.25495381296916213307E-03
    0.22804775190690714632E-03
    0.21439204286424019602E-03
    0.23444936450342385441E-03
    0.22222494665790056630E-03
    0.19075351239569672199E-03
    0.17213979403519995000E-03
    0.14966626556240359672E-03
    0.15832186873787068029E-03
    0.14581549718912587411E-03
    0.15698477004139649196E-03
    0.18115901531333172998E-03
    0.20408835093253444417E-03
    0.18765878551891114565E-03
    0.18085287260939151926E-03
    0.26704587139787832250E-03
    0.26135501014407710053E-03
    0.29816237244879298038E-03
    0.28761560455479800395E-03
    0.24228621000026820983E-03
    0.22250839021375776812E-03
    0.18797150780427713656E-03
    0.19208268091294985265E-03
    0.16902976948264295215E-03
    0.17720346759047205616E-03
    0.20936693481415487804E-03
    0.22928228633892197889E-03
    0.22663827613917888635E-03
    0.22131367758284914990E-03
    0.38103928740395990628E-03
    0.36006750262732077975E-03
    0.39461222178728517455E-03
    0.37585871738148106088E-03
    0.32290826164431792522E-03
    0.29278976924139942482E-03
    0.25414976619461205135E-03
    0.26780238667175086057E-03
    0.24640648819846701616E-03
    0.26471917681509003284E-03
    0.30465997745633005295E-03
    0.34188751289625587699E-03
    0.31609267414103734079E-03
    0.30525297228327981803E-03
    0.45421824886942565799E-03
    0.44797030302948476037E-03
    0.51409379465147035746E-03
    0.49810931787730970428E-03
    0.41863203769182584253E-03
    0.38548958152425321201E-03
    0.32428678939695922264E-03
    0.33003548586220621481E-03
    0.28909187190494310248E-03
    0.30214117725827779144E-03
    0.35718626181260247328E-03
    0.38903594004260444537E-03
    0.38864461598570726724E-03
    0.38037094917382758110E-03
    0.36111410092340103699E-03
    0.35960038405557690454E-03
    0.41820612534149246165E-03
    0.40557671639070028233E-03
    0.33866873216251993338E-03
    0.31299570921707129539E-03
    0.26112044181226363396E-03
    0.26259316975521621593E-03
    0.22550445979304002816E-03
    0.23311944807590274519E-03
    0.27974026370231253784E-03
    0.30232361101589934728E-03
    0.30978150630219794190E-03
    0.30420685974711188975E-03
    0.51724003521054463198E-03
    0.51678147959217371130E-03
    0.60345967684135714149E-03
    0.58571957997600283211E-03
    0.48873407754281873727E-03
    0.45345195916477896644E-03
    0.37748279134608284839E-03
    0.37706313320552426599E-03
    0.32120217354991465212E-03
    0.33019338246625051184E-03
    0.39847298778153384356E-03
    0.42909803720367502679E-03