# vtk DataFile Version 3.0
LAPLACIEN  2D
ASCII
DATASET UNSTRUCTURED_GRID
FIELD FieldData 1
TIME 1 1 double
7.8000
 POINTS        7297  float
   1.5625000000000000E-002  0.96875000000000000        0.0000000000000000     
   3.1250000000000000E-002  0.96875000000000000        0.0000000000000000     
   3.1250000000000000E-002  0.98437500000000000        0.0000000000000000     
   9.3749999999999997E-003  0.97812500000000002        0.0000000000000000     
   2.0312500000000001E-002  0.97968750000000004        0.0000000000000000     
   2.1874999999999999E-002  0.99062499999999998        0.0000000000000000     
   1.0937499999999999E-002  0.98906249999999996        0.0000000000000000     
   4.6875000000000000E-002  0.96875000000000000        0.0000000000000000     
   6.2500000000000000E-002  0.96875000000000000        0.0000000000000000     
   6.2500000000000000E-002  0.98437500000000000        0.0000000000000000     
   4.0625000000000001E-002  0.97812500000000002        0.0000000000000000     
   5.1562499999999997E-002  0.97968750000000004        0.0000000000000000     
   5.3124999999999999E-002  0.99062499999999998        0.0000000000000000     
   4.2187500000000003E-002  0.98906249999999996        0.0000000000000000     
   1.5625000000000000E-002  0.93750000000000000        0.0000000000000000     
   3.1250000000000000E-002  0.93750000000000000        0.0000000000000000     
   3.1250000000000000E-002  0.95312500000000000        0.0000000000000000     
   9.3749999999999997E-003  0.94687500000000002        0.0000000000000000     
   2.0312500000000001E-002  0.94843750000000004        0.0000000000000000     
   2.1874999999999999E-002  0.95937499999999998        0.0000000000000000     
   1.0937499999999999E-002  0.95781249999999996        0.0000000000000000     
   4.6875000000000000E-002  0.93750000000000000        0.0000000000000000     
   6.2500000000000000E-002  0.93750000000000000        0.0000000000000000     
   6.2500000000000000E-002  0.95312500000000000        0.0000000000000000     
   4.0625000000000001E-002  0.94687500000000002        0.0000000000000000     
   5.1562499999999997E-002  0.94843750000000004        0.0000000000000000     
   5.3124999999999999E-002  0.95937499999999998        0.0000000000000000     
   4.2187500000000003E-002  0.95781249999999996        0.0000000000000000     
   7.8125000000000000E-002  0.96875000000000000        0.0000000000000000     
   9.3750000000000000E-002  0.96875000000000000        0.0000000000000000     
   9.3750000000000000E-002  0.98437500000000000        0.0000000000000000     
   7.1874999999999994E-002  0.97812500000000002        0.0000000000000000     
   8.2812499999999997E-002  0.97968750000000004        0.0000000000000000     
   8.4375000000000006E-002  0.99062499999999998        0.0000000000000000     
   7.3437500000000003E-002  0.98906249999999996        0.0000000000000000     
  0.10937500000000000       0.96875000000000000        0.0000000000000000     
  0.12500000000000000       0.96875000000000000        0.0000000000000000     
  0.12500000000000000       0.98437500000000000        0.0000000000000000     
  0.10312499999999999       0.97812500000000002        0.0000000000000000     
  0.11406250000000000       0.97968750000000004        0.0000000000000000     
  0.11562500000000001       0.99062499999999998        0.0000000000000000     
  0.10468750000000000       0.98906249999999996        0.0000000000000000     
   7.8125000000000000E-002  0.93750000000000000        0.0000000000000000     
   9.3750000000000000E-002  0.93750000000000000        0.0000000000000000     
   9.3750000000000000E-002  0.95312500000000000        0.0000000000000000     
   7.1874999999999994E-002  0.94687500000000002        0.0000000000000000     
   8.2812499999999997E-002  0.94843750000000004        0.0000000000000000     
   8.4375000000000006E-002  0.95937499999999998        0.0000000000000000     
   7.3437500000000003E-002  0.95781249999999996        0.0000000000000000     
  0.10937500000000000       0.93750000000000000        0.0000000000000000     
  0.12500000000000000       0.93750000000000000        0.0000000000000000     
  0.12500000000000000       0.95312500000000000        0.0000000000000000     
  0.10312499999999999       0.94687500000000002        0.0000000000000000     
  0.11406250000000000       0.94843750000000004        0.0000000000000000     
  0.11562500000000001       0.95937499999999998        0.0000000000000000     
  0.10468750000000000       0.95781249999999996        0.0000000000000000     
   1.5625000000000000E-002  0.90625000000000000        0.0000000000000000     
   3.1250000000000000E-002  0.90625000000000000        0.0000000000000000     
   3.1250000000000000E-002  0.92187500000000000        0.0000000000000000     
   9.3749999999999997E-003  0.91562500000000002        0.0000000000000000     
   2.0312500000000001E-002  0.91718750000000004        0.0000000000000000     
   2.1874999999999999E-002  0.92812499999999998        0.0000000000000000     
   1.0937499999999999E-002  0.92656249999999996        0.0000000000000000     
   4.6875000000000000E-002  0.90625000000000000        0.0000000000000000     
   6.2500000000000000E-002  0.90625000000000000        0.0000000000000000     
   6.2500000000000000E-002  0.92187500000000000        0.0000000000000000     
   4.0625000000000001E-002  0.91562500000000002        0.0000000000000000     
   5.1562499999999997E-002  0.91718750000000004        0.0000000000000000     
   5.3124999999999999E-002  0.92812499999999998        0.0000000000000000     
   4.2187500000000003E-002  0.92656249999999996        0.0000000000000000     
   1.5625000000000000E-002  0.87500000000000000        0.0000000000000000     
   3.1250000000000000E-002  0.87500000000000000        0.0000000000000000     
   3.1250000000000000E-002  0.89062500000000000        0.0000000000000000     
   9.3749999999999997E-003  0.88437500000000002        0.0000000000000000     
   2.0312500000000001E-002  0.88593750000000004        0.0000000000000000     
   2.1874999999999999E-002  0.89687499999999998        0.0000000000000000     
   1.0937499999999999E-002  0.89531249999999996        0.0000000000000000     
   4.6875000000000000E-002  0.87500000000000000        0.0000000000000000     
   6.2500000000000000E-002  0.87500000000000000        0.0000000000000000     
   6.2500000000000000E-002  0.89062500000000000        0.0000000000000000     
   4.0625000000000001E-002  0.88437500000000002        0.0000000000000000     
   5.1562499999999997E-002  0.88593750000000004        0.0000000000000000     
   5.3124999999999999E-002  0.89687499999999998        0.0000000000000000     
   4.2187500000000003E-002  0.89531249999999996        0.0000000000000000     
   7.8125000000000000E-002  0.90625000000000000        0.0000000000000000     
   9.3750000000000000E-002  0.90625000000000000        0.0000000000000000     
   9.3750000000000000E-002  0.92187500000000000        0.0000000000000000     
   7.1874999999999994E-002  0.91562500000000002        0.0000000000000000     
   8.2812499999999997E-002  0.91718750000000004        0.0000000000000000     
   8.4375000000000006E-002  0.92812499999999998        0.0000000000000000     
   7.3437500000000003E-002  0.92656249999999996        0.0000000000000000     
  0.10937500000000000       0.90625000000000000        0.0000000000000000     
  0.12500000000000000       0.90625000000000000        0.0000000000000000     
  0.12500000000000000       0.92187500000000000        0.0000000000000000     
  0.10312499999999999       0.91562500000000002        0.0000000000000000     
  0.11406250000000000       0.91718750000000004        0.0000000000000000     
  0.11562500000000001       0.92812499999999998        0.0000000000000000     
  0.10468750000000000       0.92656249999999996        0.0000000000000000     
   7.8125000000000000E-002  0.87500000000000000        0.0000000000000000     
   9.3750000000000000E-002  0.87500000000000000        0.0000000000000000     
   9.3750000000000000E-002  0.89062500000000000        0.0000000000000000     
   7.1874999999999994E-002  0.88437500000000002        0.0000000000000000     
   8.2812499999999997E-002  0.88593750000000004        0.0000000000000000     
   8.4375000000000006E-002  0.89687499999999998        0.0000000000000000     
   7.3437500000000003E-002  0.89531249999999996        0.0000000000000000     
  0.10937500000000000       0.87500000000000000        0.0000000000000000     
  0.12500000000000000       0.87500000000000000        0.0000000000000000     
  0.12500000000000000       0.89062500000000000        0.0000000000000000     
  0.10312499999999999       0.88437500000000002        0.0000000000000000     
  0.11406250000000000       0.88593750000000004        0.0000000000000000     
  0.11562500000000001       0.89687499999999998        0.0000000000000000     
  0.10468750000000000       0.89531249999999996        0.0000000000000000     
  0.14062500000000000       0.96875000000000000        0.0000000000000000     
  0.15625000000000000       0.96875000000000000        0.0000000000000000     
  0.15625000000000000       0.98437500000000000        0.0000000000000000     
  0.13437499999999999       0.97812500000000002        0.0000000000000000     
  0.14531250000000001       0.97968750000000004        0.0000000000000000     
  0.14687500000000001       0.99062499999999998        0.0000000000000000     
  0.13593749999999999       0.98906249999999996        0.0000000000000000     
  0.17187500000000000       0.96875000000000000        0.0000000000000000     
  0.18750000000000000       0.96875000000000000        0.0000000000000000     
  0.18750000000000000       0.98437500000000000        0.0000000000000000     
  0.16562499999999999       0.97812500000000002        0.0000000000000000     
  0.17656250000000001       0.97968750000000004        0.0000000000000000     
[...]
 CELL_DATA       14336
 SCALARS Nutrient float
 LOOKUP_TABLE default
    0.44794087146400761099E-02
    0.44793233633960895940E-02
    0.44799751687906600242E-02
    0.44799751687316126392E-02
    0.44793233636310266638E-02
    0.44794087144341236673E-02
    0.44788906587980162680E-02
    0.44785854680408987774E-02
    0.44782557067684506183E-02
    0.44782557054163186702E-02
    0.44785854687377788311E-02
    0.44788906585106237623E-02
    0.44788429501146122258E-02
    0.44788429498945746959E-02
    0.44815470107781914949E-02
    0.44821168325279332756E-02
    0.44836643345009625714E-02
    0.44840921703561062439E-02
    0.44829322701818666991E-02
    0.44834890781765574658E-02
    0.44822725239784567963E-02
    0.44812609529365308308E-02
    0.44801940845749180925E-02
    0.44798093747273649845E-02
    0.44804768169973601191E-02
    0.44803936899116339476E-02
    0.44814359083409907245E-02
    0.44816659455011315094E-02
    0.44834890782190876812E-02
    0.44829322701500700851E-02
    0.44840921703748499311E-02
    0.44836643344884387352E-02
    0.44821168325878055216E-02
    0.44815470107068986969E-02
    0.44803936900568467824E-02
    0.44804768168587322946E-02
    0.44798093749114035328E-02
    0.44801940844045188075E-02
    0.44812609530308017761E-02
    0.44822725239541810760E-02
    0.44816659455492839637E-02
    0.44814359083226269417E-02
    0.44863587612057253748E-02
    0.44866076953176837333E-02
    0.44890259805517576316E-02
    0.44890259805460391157E-02
    0.44866076953327038365E-02
    0.44863587611836761720E-02
    0.44842146337872495002E-02
    0.44836037048476880956E-02
    0.44820090286035391483E-02
    0.44820090285332949906E-02
    0.44836037048930771354E-02
    0.44842146337603647557E-02
    0.44849188869772608004E-02
    0.44849188869643084876E-02
    0.44872640825524938435E-02
    0.44888041215936083303E-02
    0.44918209393125458143E-02
    0.44929443041097361089E-02
    0.44909484760964346606E-02
    0.44922989447700248378E-02
    0.44899158125307672002E-02
    0.44877040513237615588E-02
    0.44854170651967666117E-02
    0.44844490474753272158E-02
    0.44856708994240072561E-02
    0.44850838589063860701E-02
    0.44877503424230122397E-02
    0.44883588622526707571E-02
    0.44986968947178657130E-02
    0.45018000245181056737E-02
    0.45071294976866370374E-02
    0.45092953768560064404E-02
    0.45059309238454610738E-02
    0.45084262937006465422E-02
    0.45042142938327795962E-02
    0.45002088264684365557E-02
    0.44960443152324809993E-02
    0.44941520562506347483E-02
    0.44962918987545685140E-02
    0.44948788216040563848E-02
    0.45001286595543468425E-02
    0.45013068489635349456E-02
    0.44938534984903409294E-02
    0.44950567499584788769E-02
    0.44992977268843046754E-02
    0.44998629806630970410E-02
    0.44960925426481279654E-02
    0.44963084546049405729E-02
    0.44925898307236157223E-02
    0.44909481818003159359E-02
    0.44879053906682368422E-02
    0.44874474644136770965E-02
    0.44899953094446965265E-02
    0.44902806891098647965E-02
    0.44926119744465187883E-02
    0.44929025989757067142E-02
    0.45080433100318714756E-02
    0.45108110599948484862E-02
    0.45181105513820204317E-02
    0.45196198904373860450E-02
    0.45135851630603296414E-02
    0.45145475375106330559E-02
    0.45082729161514071420E-02
    0.45049704030775310562E-02
    0.44996055724717664431E-02
    0.44983916367897095259E-02
    0.45024266736695076757E-02
    0.45022003595935125575E-02
    0.45071474917875746155E-02
    0.45079251396512596065E-02
    0.44922989448030531054E-02
    0.44909484761118927815E-02
    0.44929443041339242257E-02
    0.44918209393278426059E-02
    0.44888041216197297964E-02
    0.44872640825457665859E-02
    0.44850838589440096202E-02
    0.44856708994111035155E-02
    0.44844490475178175326E-02
    0.44854170651865716418E-02
    0.44877040513570899335E-02
    0.44899158125526203791E-02
    0.44883588622773402596E-02
    0.44877503424370973270E-02
    0.44963084546272222286E-02
    0.44960925426597488780E-02
    0.44998629806817496551E-02
    0.44992977268972925500E-02
    0.44950567499724269210E-02
    0.44938534984874890441E-02
    0.44902806891211431012E-02
    0.44899953094379206966E-02
    0.44874474644377394458E-02
    0.44879053906635392110E-02
    0.44909481818212141496E-02
    0.44925898307343883550E-02
    0.44929025989912515712E-02
    0.44926119744541940723E-02
    0.45084262937705723781E-02
    0.45059309239035179318E-02
    0.45092953769189300650E-02
    0.45071294977409963323E-02
    0.45018000245642736043E-02
    0.44986968947469882507E-02
    0.44948788216339760279E-02
    0.44962918987846260677E-02
    0.44941520562852667678E-02
    0.44960443152673298592E-02
    0.45002088265208997978E-02
    0.45042142938982098962E-02
    0.45013068490138991723E-02
    0.45001286595975761515E-02
    0.45145475375745159827E-02
    0.45135851631167523898E-02
    0.45196198905041217245E-02
    0.45181105514417278790E-02
    0.45108110600398411416E-02
    0.45080433100600043536E-02
    0.45022003596162122815E-02
    0.45024266736954435264E-02
    0.44983916368185284870E-02
    0.44996055725010754636E-02
    0.45049704031223302900E-02
    0.45082729162042025836E-02
    0.45079251396971976862E-02
    0.45071474918283397498E-02
    0.45067531906923252727E-02
    0.45076882240932545157E-02
    0.45139777132394377432E-02
    0.45139777132354504813E-02
    0.45076882240893479184E-02
    0.45067531906783616161E-02
    0.45010205699242142666E-02
    0.44996922134269727242E-02
    0.44952927573505925204E-02
    0.44952927573468819469E-02
    0.44996922134364269671E-02
    0.45010205699362228898E-02
    0.45033261723729251652E-02
    0.45033261723702580279E-02
    0.45261854656333628741E-02
    0.45289536832637221353E-02
    0.45395410252263759115E-02
    0.45405271333764131436E-02
    0.45306711423743224049E-02
    0.45301465718087501749E-02
    0.45206551576147582100E-02
    0.45175897329808303512E-02
    0.45100805374320655089E-02
    0.45094110630573064000E-02
    0.45161143217007371220E-02
    0.45171286256060995054E-02
    0.45225365523321606545E-02
    0.45230038769733969459E-02
    0.45301465718789336173E-02
    0.45306711424327964638E-02
    0.45405271334427932048E-02
    0.45395410252795122263E-02
    0.45289536833011496617E-02
    0.45261854656523147281E-02
    0.45171286256140115792E-02
    0.45161143217213673209E-02
    0.45094110630786313557E-02
    0.45100805374597898595E-02
    0.45175897330264370988E-02
    0.45206551576776532117E-02
    0.45230038770173418283E-02
    0.45225365523689740888E-02
    0.45585614767385202253E-02
    0.45611894817425141513E-02
    0.45771524422796730849E-02
    0.45771524422677711472E-02
    0.45611894817214129749E-02
    0.45585614766893616315E-02
    0.45440582779540557301E-02
    0.45409379649785294730E-02
    0.45298736441646931736E-02
    0.45298736441739860872E-02
    0.45409379650004338264E-02
    0.45440582780054668624E-02
    0.45501922961608421564E-02
    0.45501922961545242935E-02
    0.45192171325500419751E-02
    0.45247963594495137565E-02
    0.45340301232117581620E-02
    0.45379074509434404530E-02
    0.45321613101232584991E-02
    0.45365660636766027419E-02
    0.45292959881069287664E-02
    0.45222952726271421764E-02
    0.45150467122671142026E-02
    0.45116950505844554895E-02
    0.45153428342580587823E-02
    0.45127129097021862966E-02
    0.45220317171815425927E-02
    0.45241275353630934497E-02
    0.45551509443194689725E-02
    0.45649036370313976138E-02
    0.45809725993938435820E-02
    0.45876642252627415977E-02
    0.45776304940938648477E-02
    0.45851255499198256133E-02
    0.45726120496203401591E-02
    0.45605617795068343831E-02
    0.45480279082671312696E-02
    0.45422277558564904884E-02
    0.45485111834732919883E-02
    0.45438761462960582452E-02
    0.45601156194919412537E-02
    0.45637447781621915885E-02
    0.45335905659593372236E-02
    0.45390138809670299569E-02
    0.45516845579346284709E-02
    0.45547924567619921601E-02
    0.45446465008162203678E-02
    0.45467235147861303005E-02
    0.45359046103678668169E-02
    0.45299159334845871816E-02
    0.45206317489918206032E-02
    0.45182463341229351164E-02
    0.45248466174001560763E-02
    0.45238011229204741839E-02
    0.45331470632158686954E-02
    0.45347131553728206241E-02
    0.45790648550129917083E-02
    0.45890805895199629494E-02
    0.46113381938510051086E-02
    0.46170664216715036690E-02
    0.45993805525787242322E-02
    0.46030926053674823054E-02
    0.45842430420707722116E-02
    0.45737079936292853941E-02
    0.45575470952919049095E-02
    0.45532286054874330714E-02
    0.45644982396064641764E-02
    0.45622083630510413751E-02
    0.45790769071091591211E-02
    0.45819319527580070622E-02
    0.46175424924645184707E-02
    0.46341229783016281429E-02
    0.46617706984330691683E-02
    0.46727688855851511052E-02
    0.46552709603932644622E-02
    0.46675127759618498594E-02
    0.46463487196339572569E-02
    0.46260426684422333368E-02
    0.46047233275358177146E-02
    0.45948435586579024215E-02
    0.46057479469592821353E-02
    0.45979623668352268342E-02
    0.46256007623744939405E-02
    0.46316695545434048362E-02
    0.47240898404689269860E-02
    0.47510660907471658279E-02
    0.47978529912655063297E-02
    0.48148221354138735426E-02
    0.47844848768979078915E-02
    0.48033814933387897553E-02
    0.47686184503175589253E-02
    0.47354764809033160489E-02
    0.47000604009065603817E-02
    0.46837763309412446325E-02
    0.47025521865807226943E-02
    0.46901964261580920967E-02
    0.47357380489243365573E-02
    0.47454537563914383699E-02
    0.46599410160096344999E-02
    0.46776645192255121922E-02
    0.47171309086860516852E-02
    0.47268679431511535782E-02
    0.46951507352411834054E-02
    0.47007312995653218607E-02
    0.46677690615029810914E-02
    0.46499486824213088002E-02
    0.46218179430438533634E-02
    0.46144308641962996850E-02
    0.46342339655179943039E-02
    0.46301868201161959851E-02
    0.46598241352459705833E-02
    0.46646864284999598263E-02
    0.48030214874124647559E-02
    0.48329233858329535140E-02
    0.49026497491421851607E-02
    0.49175423646357421803E-02
    0.48600487335288943685E-02
    0.48664776826118335065E-02
    0.48091924327506646239E-02
    0.47805337291184852103E-02
    0.47320730383767885610E-02
    0.47202027733420194935E-02
    0.47556700785362166287E-02
    0.47498613191323327265E-02
    0.48000373404733370775E-02
    0.48076508569359155745E-02
    0.45609285654036818905E-02
    0.45669308495161512959E-02
    0.45850425257326432940E-02
    0.45878243217945162760E-02
    0.45716722061052723208E-02
    0.45718863777149173350E-02
    0.45557124436654541574E-02
    0.45496167348735919167E-02
    0.45366967024634665198E-02
    0.45349027438769144369E-02
    0.45456399198295612332E-02
    0.45461448331577244616E-02
    0.45569062215224560852E-02
    0.45581801881601734239E-02
    0.46229284645947837581E-02
    0.46349415370205227296E-02
    0.46668642145404441723E-02
    0.46730095839565052168E-02
    0.46452166236943840880E-02
    0.46465612248055539538E-02
    0.46181979838161284907E-02
    0.46068274643871406915E-02
    0.45841443000294440635E-02
    0.45803810573506967968E-02
    0.45983770695023334224E-02
    0.45978739471529278537E-02
    0.46184293885489398346E-02
    0.46211699594660036669E-02
    0.46078253226832111694E-02
    0.46144812605927610499E-02
    0.46409286118017376369E-02
    0.46431068454085696814E-02
    0.46180503504965096997E-02
    0.46160087009461002114E-02
    0.45919331802298530426E-02
    0.45850375433399729805E-02
    0.45663633334798682181E-02
    0.45651090632667827920E-02
    0.45821716215209504913E-02
    0.45850416904624716891E-02
    0.45981147005680908860E-02
    0.45990560064216815667E-02
    0.46941544286613710174E-02
    0.47089652446154067755E-02
    0.47545722474320378445E-02
    0.47616083518905224364E-02
    0.47202080498242619463E-02
    0.47197920889064286579E-02
    0.46780580420526986923E-02
    0.46639178572121069155E-02
    0.46314258541703479458E-02
    0.46277104884101865831E-02
    0.46552019600499001256E-02
    0.46570464510487293713E-02
    0.46833616165386834224E-02
    0.46862825209870008838E-02
    0.47353726500159133359E-02
    0.47583501757572591734E-02
    0.48159962733348386094E-02
    0.48278469676187509702E-02
    0.47779222946275059711E-02
    0.47803346309801516070E-02
    0.47295361675236827562E-02
    0.47092222281552124918E-02
    0.46688319319777406638E-02
    0.46617867015102893227E-02
    0.46932818026604351813E-02
    0.46912136159705597818E-02
    0.47293785997185155273E-02
    0.47345768672576839589E-02
    0.49412503591268353703E-02
    0.49832007146110674986E-02
    0.50886697071410146725E-02
    0.51090019959268845318E-02
    0.50166146510791263455E-02
    0.50178940622765651550E-02
    0.49261042877850255706E-02
    0.48917493094855733771E-02
    0.48194778926837099006E-02
    0.48075333913376152098E-02
    0.48646499528607264895E-02
    0.48610120303290618032E-02
    0.49298241603417929796E-02
    0.49386852136447910444E-02
    0.48508747410726024002E-02
    0.48821881676982216078E-02
    0.49646276261477674183E-02
    0.49813093232956703535E-02
    0.49085519964814647645E-02
    0.49108310975402042625E-02
    0.48355654413910686626E-02
    0.48080772805834635919E-02
    0.47496058632339769809E-02
    0.47411846719743484108E-02
    0.47879835284773061832E-02
    0.47871178803737092847E-02
    0.48394539490933322079E-02
    0.48462569976051115411E-02
    0.51444863131762065198E-02
    0.52072472334138853595E-02
    0.53612395339506435307E-02
    0.53950525754865637923E-02
    0.52601769599417112777E-02
    0.52645343912493319447E-02
    0.51251981062048358045E-02
    0.50744228333928402888E-02
    0.49669185262276949536E-02
    0.49503998112159714254E-02
    0.50346133890711557840E-02
    0.50291098654534956841E-02
    0.51304603442874933614E-02
    0.51440461783677027610E-02
    0.45365660638364791943E-02
    0.45321613102641883017E-02
    0.45379074510952868704E-02
    0.45340301233477067061E-02
    0.45247963595615474028E-02
    0.45192171326379508220E-02
    0.45127129097733090918E-02
    0.45153428343440897910E-02
    0.45116950506652164082E-02
    0.45150467123599678787E-02
    0.45222952727470211096E-02
    0.45292959882574455183E-02
    0.45241275354816470541E-02
    0.45220317172905985861E-02
    0.45467235149473806538E-02
    0.45446465009681439803E-02
    0.45547924569389079338E-02
    0.45516845581002694093E-02
    0.45390138810948634646E-02
    0.45335905660594767383E-02
    0.45238011229955538833E-02
    0.45248466174891031552E-02
    0.45182463342002760279E-02
    0.45206317490809532975E-02
    0.45299159336009272789E-02
    0.45359046105053696732E-02
    0.45347131554971248368E-02
    0.45331470633324117553E-02
    0.45851255502587706311E-02
    0.45776304943987034674E-02
    0.45876642255931179490E-02
    0.45809725996947044807E-02
    0.45649036372817182114E-02
    0.45551509445264631165E-02
    0.45438761464636932483E-02
    0.45485111836706549476E-02
    0.45422277560386737499E-02
    0.45480279084746553717E-02
    0.45605617797654001214E-02
    0.45726120499376340933E-02
    0.45637447784213532043E-02
    0.45601156197338007375E-02
    0.46030926057272552807E-02
    0.45993805529262457230E-02
    0.46170664220754878068E-02
    0.46113381942371961877E-02
    0.45890805898242932950E-02
    0.45790648552674652338E-02
    0.45622083632471397210E-02
    0.45644982398263585915E-02
    0.45532286056758604700E-02
    0.45575470955030276954E-02
    0.45737079938961994890E-02
    0.45842430423787385377E-02
    0.45819319530466945389E-02
    0.45790769073845941778E-02
    0.45718863779168972608E-02
    0.45716722062919415773E-02
    0.45878243220106047079E-02
    0.45850425259273911577E-02
    0.45669308496652004717E-02
    0.45609285655185006353E-02
    0.45461448332366691250E-02
    0.45456399199307944911E-02
    0.45349027439640478623E-02
    0.45366967025661977114E-02
    0.45496167350149415223E-02
    0.45557124438412874637E-02
    0.45581801883091818337E-02
    0.45569062216600387388E-02
    0.46160087011685628847E-02
    0.46180503506775428396E-02
    0.46431068456052188020E-02
    0.46409286119550342831E-02
    0.46144812607023964410E-02
    0.46078253227379442972E-02
    0.45850416904881291166E-02
    0.45821716215931783053E-02
    0.45651090633390956075E-02
    0.45663633335855206841E-02
    0.45850375434851762743E-02
    0.45919331804297946684E-02
    0.45990560065582979793E-02
    0.45981147006831594309E-02
    0.46465612252844547270E-02
    0.46452166241523675655E-02
    0.46730095844941567373E-02
    0.46668642150385613449E-02
    0.46349415374157178910E-02
    0.46229284649260751761E-02
    0.45978739473992022088E-02
    0.45983770697826621340E-02
    0.45803810575876574215E-02
    0.45841443002942738882E-02
    0.46068274647346717232E-02
    0.46181979842266490666E-02
    0.46211699598426043273E-02
    0.46184293889059780183E-02
    0.47197920895050045342E-02
    0.47202080503665356376E-02
    0.47616083525002300333E-02
    0.47545722479765623394E-02
    0.47089652450368005981E-02
    0.46941544289847408206E-02
    0.46570464512798188245E-02
    0.46552019603529580516E-02
    0.46277104886807895676E-02
    0.46314258544982835411E-02
    0.46639178576356717446E-02
    0.46780580425767551850E-02
    0.46862825214231398560E-02
    0.46833616169396274573E-02
    0.46675127766411137961E-02
    0.46552709610130759560E-02
    0.46727688862576209974E-02
    0.46617706990563822014E-02
    0.46341229788218855912E-02
    0.46175424929068920391E-02
    0.45979623671965749385E-02
    0.46057479473738402800E-02
    0.45948435590391877026E-02
    0.46047233279651149374E-02
    0.46260426689675795964E-02
    0.46463487202676907739E-02
    0.46316695550739821544E-02
    0.46256007628740197085E-02
    0.47007313003152575645E-02
    0.46951507359726972132E-02
    0.47268679440074087492E-02
    0.47171309095071795731E-02
    0.46776645198841684814E-02
    0.46599410165767581049E-02
    0.46301868205616686369E-02
    0.46342339660008832064E-02
    0.46144308646097649540E-02
    0.46218179434962744501E-02
    0.46499486829858467998E-02
    0.46677690621418806149E-02
    0.46646864291151318022E-02
    0.46598241358380048174E-02
    0.48033814946362475562E-02
    0.47844848781053109926E-02
    0.48148221367438556739E-02
    0.47978529924997482051E-02
    0.47510660917808918841E-02
    0.47240898413603614817E-02
    0.46901964268935385227E-02
    0.47025521874067372982E-02
    0.46837763316995911431E-02
    0.47000604017514938798E-02
    0.47354764819233360548E-02
    0.47686184515275502338E-02
    0.47454537574305212522E-02
    0.47357380499091061149E-02
    0.48664776840853414541E-02
    0.48600487349984870453E-02
    0.49175423663700380469E-02
    0.49026497508141229226E-02
    0.48329233871791084723E-02
    0.48030214885965635818E-02
    0.47498613200665203496E-02
    0.47556700795313190666E-02
    0.47202027741896895180E-02
    0.47320730392955007160E-02
    0.47805337302521304713E-02
    0.48091924340166588778E-02
    0.48076508581792049002E-02
    0.48000373416781346239E-02
    0.47803346320092615640E-02
    0.47779222956353673002E-02
    0.48278469688022894804E-02
    0.48159962744594901965E-02
    0.47583501766578634173E-02
    0.47353726508025982891E-02
    0.46912136165688927969E-02
    0.46932818033116998138E-02
    0.46617867020569709463E-02
    0.46688319325739607857E-02
    0.47092222289194128268E-02
    0.47295361684038155284E-02
    0.47345768680967887862E-02
    0.47293786005253007215E-02
    0.49108310989198098936E-02
    0.49085519977772355468E-02
    0.49813093247861204779E-02
    0.49646276275171841511E-02
    0.48821881687932822819E-02
    0.48508747419832793160E-02
    0.47871178810692388561E-02
    0.47879835292794093587E-02
    0.47411846726754984863E-02
    0.47496058640274481724E-02
    0.48080772815902528619E-02
    0.48355654425761094434E-02