# vtk DataFile Version 3.0
LAPLACIEN  2D
ASCII
DATASET UNSTRUCTURED_GRID
FIELD FieldData 1
TIME 1 1 double
17.6000
 POINTS        7297  float
   1.5625000000000000E-002  0.96875000000000000        0.0000000000000000     
   3.1250000000000000E-002  0.96875000000000000        0.0000000000000000     
   3.1250000000000000E-002  0.98437500000000000        0.0000000000000000     
   9.3749999999999997E-003  0.97812500000000002        0.0000000000000000     
   2.0312500000000001E-002  0.97968750000000004        0.0000000000000000     
   2.1874999999999999E-002  0.99062499999999998        0.0000000000000000     
   1.0937499999999999E-002  0.98906249999999996        0.0000000000000000     
   4.6875000000000000E-002  0.96875000000000000        0.0000000000000000     
   6.2500000000000000E-002  0.96875000000000000        0.0000000000000000     
   6.2500000000000000E-002  0.98437500000000000        0.0000000000000000     
   4.0625000000000001E-002  0.97812500000000002        0.0000000000000000     
   5.1562499999999997E-002  0.97968750000000004        0.0000000000000000     
   5.3124999999999999E-002  0.99062499999999998        0.0000000000000000     
   4.2187500000000003E-002  0.98906249999999996        0.0000000000000000     
   1.5625000000000000E-002  0.93750000000000000        0.0000000000000000     
   3.1250000000000000E-002  0.93750000000000000        0.0000000000000000     
   3.1250000000000000E-002  0.95312500000000000        0.0000000000000000     
   9.3749999999999997E-003  0.94687500000000002        0.0000000000000000     
   2.0312500000000001E-002  0.94843750000000004        0.0000000000000000     
   2.1874999999999999E-002  0.95937499999999998        0.0000000000000000     
   1.0937499999999999E-002  0.95781249999999996        0.0000000000000000     
   4.6875000000000000E-002  0.93750000000000000        0.0000000000000000     
   6.2500000000000000E-002  0.93750000000000000        0.0000000000000000     
   6.2500000000000000E-002  0.95312500000000000        0.0000000000000000     
   4.0625000000000001E-002  0.94687500000000002        0.0000000000000000     
   5.1562499999999997E-002  0.94843750000000004        0.0000000000000000     
   5.3124999999999999E-002  0.95937499999999998        0.0000000000000000     
   4.2187500000000003E-002  0.95781249999999996        0.0000000000000000     
   7.8125000000000000E-002  0.96875000000000000        0.0000000000000000     
   9.3750000000000000E-002  0.96875000000000000        0.0000000000000000     
   9.3750000000000000E-002  0.98437500000000000        0.0000000000000000     
   7.1874999999999994E-002  0.97812500000000002        0.0000000000000000     
   8.2812499999999997E-002  0.97968750000000004        0.0000000000000000     
   8.4375000000000006E-002  0.99062499999999998        0.0000000000000000     
   7.3437500000000003E-002  0.98906249999999996        0.0000000000000000     
  0.10937500000000000       0.96875000000000000        0.0000000000000000     
  0.12500000000000000       0.96875000000000000        0.0000000000000000     
  0.12500000000000000       0.98437500000000000        0.0000000000000000     
  0.10312499999999999       0.97812500000000002        0.0000000000000000     
  0.11406250000000000       0.97968750000000004        0.0000000000000000     
  0.11562500000000001       0.99062499999999998        0.0000000000000000     
  0.10468750000000000       0.98906249999999996        0.0000000000000000     
   7.8125000000000000E-002  0.93750000000000000        0.0000000000000000     
   9.3750000000000000E-002  0.93750000000000000        0.0000000000000000     
   9.3750000000000000E-002  0.95312500000000000        0.0000000000000000     
   7.1874999999999994E-002  0.94687500000000002        0.0000000000000000     
   8.2812499999999997E-002  0.94843750000000004        0.0000000000000000     
   8.4375000000000006E-002  0.95937499999999998        0.0000000000000000     
   7.3437500000000003E-002  0.95781249999999996        0.0000000000000000     
  0.10937500000000000       0.93750000000000000        0.0000000000000000     
  0.12500000000000000       0.93750000000000000        0.0000000000000000     
  0.12500000000000000       0.95312500000000000        0.0000000000000000     
  0.10312499999999999       0.94687500000000002        0.0000000000000000     
  0.11406250000000000       0.94843750000000004        0.0000000000000000     
  0.11562500000000001       0.95937499999999998        0.0000000000000000     
  0.10468750000000000       0.95781249999999996        0.0000000000000000     
   1.5625000000000000E-002  0.90625000000000000        0.0000000000000000     
   3.1250000000000000E-002  0.90625000000000000        0.0000000000000000     
   3.1250000000000000E-002  0.92187500000000000        0.0000000000000000     
   9.3749999999999997E-003  0.91562500000000002        0.0000000000000000     
   2.0312500000000001E-002  0.91718750000000004        0.0000000000000000     
   2.1874999999999999E-002  0.92812499999999998        0.0000000000000000     
   1.0937499999999999E-002  0.92656249999999996        0.0000000000000000     
   4.6875000000000000E-002  0.90625000000000000        0.0000000000000000     
   6.2500000000000000E-002  0.90625000000000000        0.0000000000000000     
   6.2500000000000000E-002  0.92187500000000000        0.0000000000000000     
   4.0625000000000001E-002  0.91562500000000002        0.0000000000000000     
   5.1562499999999997E-002  0.91718750000000004        0.0000000000000000     
   5.3124999999999999E-002  0.92812499999999998        0.0000000000000000     
   4.2187500000000003E-002  0.92656249999999996        0.0000000000000000     
   1.5625000000000000E-002  0.87500000000000000        0.0000000000000000     
   3.1250000000000000E-002  0.87500000000000000        0.0000000000000000     
   3.1250000000000000E-002  0.89062500000000000        0.0000000000000000     
   9.3749999999999997E-003  0.88437500000000002        0.0000000000000000     
   2.0312500000000001E-002  0.88593750000000004        0.0000000000000000     
   2.1874999999999999E-002  0.89687499999999998        0.0000000000000000     
   1.0937499999999999E-002  0.89531249999999996        0.0000000000000000     
   4.6875000000000000E-002  0.87500000000000000        0.0000000000000000     
   6.2500000000000000E-002  0.87500000000000000        0.0000000000000000     
   6.2500000000000000E-002  0.89062500000000000        0.0000000000000000     
   4.0625000000000001E-002  0.88437500000000002        0.0000000000000000     
   5.1562499999999997E-002  0.88593750000000004        0.0000000000000000     
   5.3124999999999999E-002  0.89687499999999998        0.0000000000000000     
   4.2187500000000003E-002  0.89531249999999996        0.0000000000000000     
   7.8125000000000000E-002  0.90625000000000000        0.0000000000000000     
   9.3750000000000000E-002  0.90625000000000000        0.0000000000000000     
   9.3750000000000000E-002  0.92187500000000000        0.0000000000000000     
   7.1874999999999994E-002  0.91562500000000002        0.0000000000000000     
   8.2812499999999997E-002  0.91718750000000004        0.0000000000000000     
   8.4375000000000006E-002  0.92812499999999998        0.0000000000000000     
   7.3437500000000003E-002  0.92656249999999996        0.0000000000000000     
  0.10937500000000000       0.90625000000000000        0.0000000000000000     
  0.12500000000000000       0.90625000000000000        0.0000000000000000     
  0.12500000000000000       0.92187500000000000        0.0000000000000000     
  0.10312499999999999       0.91562500000000002        0.0000000000000000     
  0.11406250000000000       0.91718750000000004        0.0000000000000000     
  0.11562500000000001       0.92812499999999998        0.0000000000000000     
  0.10468750000000000       0.92656249999999996        0.0000000000000000     
   7.8125000000000000E-002  0.87500000000000000        0.0000000000000000     
   9.3750000000000000E-002  0.87500000000000000        0.0000000000000000     
   9.3750000000000000E-002  0.89062500000000000        0.0000000000000000     
   7.1874999999999994E-002  0.88437500000000002        0.0000000000000000     
   8.2812499999999997E-002  0.88593750000000004        0.0000000000000000     
   8.4375000000000006E-002  0.89687499999999998        0.0000000000000000     
   7.3437500000000003E-002  0.89531249999999996        0.0000000000000000     
  0.10937500000000000       0.87500000000000000        0.0000000000000000     
  0.12500000000000000       0.87500000000000000        0.0000000000000000     
  0.12500000000000000       0.89062500000000000        0.0000000000000000     
  0.10312499999999999       0.88437500000000002        0.0000000000000000     
  0.11406250000000000       0.88593750000000004        0.0000000000000000     
  0.11562500000000001       0.89687499999999998        0.0000000000000000     
  0.10468750000000000       0.89531249999999996        0.0000000000000000     
  0.14062500000000000       0.96875000000000000        0.0000000000000000     
  0.15625000000000000       0.96875000000000000        0.0000000000000000     
  0.15625000000000000       0.98437500000000000        0.0000000000000000     
  0.13437499999999999       0.97812500000000002        0.0000000000000000     
  0.14531250000000001       0.97968750000000004        0.0000000000000000     
  0.14687500000000001       0.99062499999999998        0.0000000000000000     
  0.13593749999999999       0.98906249999999996        0.0000000000000000     
  0.17187500000000000       0.96875000000000000        0.0000000000000000     
  0.18750000000000000       0.96875000000000000        0.0000000000000000     
  0.18750000000000000       0.98437500000000000        0.0000000000000000     
  0.16562499999999999       0.97812500000000002        0.0000000000000000     
  0.17656250000000001       0.97968750000000004        0.0000000000000000     
[...]
 CELL_DATA       14336
 SCALARS Nutrient float
 LOOKUP_TABLE default
    0.11916224225904183814E-01
    0.11916141671547458153E-01
    0.11916794832643557919E-01
    0.11916794832481513930E-01
    0.11916141672196107690E-01
    0.11916224225350560695E-01
    0.11915706825417283002E-01
    0.11915400238921290341E-01
    0.11915068968642252359E-01
    0.11915068964927427037E-01
    0.11915400240831760387E-01
    0.11915706824618624987E-01
    0.11915658993866205459E-01
    0.11915658993263333540E-01
    0.11918373197165609695E-01
    0.11918945504620383907E-01
    0.11920498382639425211E-01
    0.11920928527976078562E-01
    0.11919764349378338120E-01
    0.11920321896423707181E-01
    0.11919101571048291641E-01
    0.11918086573938658362E-01
    0.11917014032470096135E-01
    0.11916631511063549564E-01
    0.11917298058283752604E-01
    0.11917216055794902993E-01
    0.11918262963717590752E-01
    0.11918492060098945934E-01
    0.11920321896516872240E-01
    0.11919764349272447129E-01
    0.11920928528011954378E-01
    0.11920498382594083009E-01
    0.11918945504775006750E-01
    0.11918373196965443422E-01
    0.11917216056189020024E-01
    0.11917298057893066857E-01
    0.11916631511563259213E-01
    0.11917014031987612291E-01
    0.11918086574180289730E-01
    0.11919101570954273098E-01
    0.11918492060215040568E-01
    0.11918262963656094805E-01
    0.11923203208150793750E-01
    0.11923453333932720541E-01
    0.11925880367099623083E-01
    0.11925880367085087835E-01
    0.11923453333978286522E-01
    0.11923203208101430459E-01
    0.11921051532352566760E-01
    0.11920438087655029283E-01
    0.11918837552945461822E-01
    0.11918837552751521472E-01
    0.11920438087775306335E-01
    0.11921051532268443079E-01
    0.11921758519050402667E-01
    0.11921758519015657890E-01
    0.11924112021225468164E-01
    0.11925658009933275128E-01
    0.11928685636964940497E-01
    0.11929813153473052892E-01
    0.11927810487829643496E-01
    0.11929165187813471627E-01
    0.11926773724436212296E-01
    0.11924554015247744443E-01
    0.11922257912169340402E-01
    0.11921287236414408045E-01
    0.11922512839971827897E-01
    0.11921923499418059927E-01
    0.11924600655692023723E-01
    0.11925211015444754648E-01
    0.11935585938060194050E-01
    0.11938699980895304750E-01
    0.11944047590686845961E-01
    0.11946221286429917902E-01
    0.11942845667412731528E-01
    0.11945349320897856102E-01
    0.11941122981875910633E-01
    0.11937103641230401366E-01
    0.11932924417609571191E-01
    0.11931025343719240187E-01
    0.11933172882627770053E-01
    0.11931754448642748964E-01
    0.11937023095205476914E-01
    0.11938205557931126991E-01
    0.11930725049077099686E-01
    0.11931932881990190212E-01
    0.11936188644681022461E-01
    0.11936755952709265927E-01
    0.11932972435059101615E-01
    0.11933188892622952071E-01
    0.11929457401349366150E-01
    0.11927809691337864714E-01
    0.11924755976735338867E-01
    0.11924295739847032283E-01
    0.11926853328344675514E-01
    0.11927139510384068138E-01
    0.11929479463659098740E-01
    0.11929771429330920246E-01
    0.11944964166286901538E-01
    0.11947741657173037780E-01
    0.11955064982524724396E-01
    0.11956579767346929219E-01
    0.11950525163799484429E-01
    0.11951490435664466686E-01
    0.11945195055334914200E-01
    0.11941881124813534185E-01
    0.11936497962314695717E-01
    0.11935279253916098244E-01
    0.11939328743023025839E-01
    0.11939101405137828374E-01
    0.11944065789325945121E-01
    0.11944846326681376678E-01
    0.11929165187847801805E-01
    0.11927810487826670180E-01
    0.11929813153494176620E-01
    0.11928685636968337086E-01
    0.11925658009973810411E-01
    0.11924112021185685750E-01
    0.11921923499504674671E-01
    0.11922512839910472462E-01
    0.11921287236499648887E-01
    0.11922257912109277336E-01
    0.11924554015297043549E-01
    0.11926773724441345342E-01
    0.11925211015475029042E-01
    0.11924600655695604193E-01
    0.11933188892644762749E-01
    0.11932972435058602015E-01
    0.11936755952725712840E-01
    0.11936188644687701146E-01
    0.11931932882009553196E-01
    0.11930725049062939139E-01
    0.11927139510413490783E-01
    0.11926853328313512942E-01
    0.11924295739899034088E-01
    0.11924755976702137994E-01
    0.11927809691368774017E-01
    0.11929457401343511458E-01
    0.11929771429349004738E-01
    0.11929479463659771812E-01
    0.11945349320956000563E-01
    0.11942845667456382375E-01
    0.11946221286481076632E-01
    0.11944047590728418609E-01
    0.11938699980935177369E-01
    0.11935585938074928791E-01
    0.11931754448674109295E-01
    0.11933172882641649576E-01
    0.11931025343752555551E-01
    0.11932924417628033853E-01
    0.11937103641275734894E-01
    0.11941122981927334776E-01
    0.11938205557972425552E-01
    0.11937023095237581441E-01
    0.11951490435717334118E-01
    0.11950525163843671306E-01
    0.11956579767403984274E-01
    0.11955064982574457183E-01
    0.11947741657212195693E-01
    0.11944964166306420647E-01
    0.11939101405159940894E-01
    0.11939328743036634745E-01
    0.11935279253944438421E-01
    0.11936497962331310899E-01
    0.11941881124851344217E-01
    0.11945195055374323648E-01
    0.11944846326719719271E-01
    0.11944065789357836277E-01
    0.11943669405948409076E-01
    0.11944607843839473438E-01
    0.11950918035304588724E-01
    0.11950918035300168649E-01
    0.11944607843839646910E-01
    0.11943669405934923336E-01
    0.11937917370545562262E-01
    0.11936584354163792127E-01
    0.11932169331217804334E-01
    0.11932169331203709706E-01
    0.11936584354178320436E-01
    0.11937917370549651006E-01
    0.11940231067968674894E-01
    0.11940231067964610437E-01
    0.11963165952819551988E-01
    0.11965943192891575694E-01
    0.11976564279477555988E-01
    0.11977553841950747127E-01
    0.11967666345493985919E-01
    0.11967140105766969210E-01
    0.11957618315710471374E-01
    0.11954542446500494857E-01
    0.11947008279816742973E-01
    0.11946336166748608085E-01
    0.11953061841163832232E-01
    0.11954079435763492398E-01
    0.11959505335571935306E-01
    0.11959974447107588752E-01
    0.11967140105828768734E-01
    0.11967666345544622497E-01
    0.11977553842011256016E-01
    0.11976564279525226189E-01
    0.11965943192926143529E-01
    0.11963165952835997166E-01
    0.11954079435771529372E-01
    0.11953061841178943409E-01
    0.11946336166768890472E-01
    0.11947008279836529229E-01
    0.11954542446541245246E-01
    0.11957618315763742997E-01
    0.11959974447146470844E-01
    0.11959505335603635642E-01
    0.11995644653269244007E-01
    0.11998281491356488013E-01
    0.12014292885866265093E-01
    0.12014292885854744794E-01
    0.11998281491337667998E-01
    0.11995644653224108236E-01
    0.11981096296515482413E-01
    0.11977966371956255340E-01
    0.11966866369535016784E-01
    0.11966866369542373746E-01
    0.11977966371977167431E-01
    0.11981096296562436174E-01
    0.11987250239795936221E-01
    0.11987250239789951425E-01
    0.11956175892072295683E-01
    0.11961774071746920575E-01
    0.11971037104317358915E-01
    0.11974928047346102000E-01
    0.11969163614628484937E-01
    0.11973582557318477801E-01
    0.11966288975773989658E-01
    0.11959264996973245979E-01
    0.11951992579131199418E-01
    0.11948628994603378156E-01
    0.11952289633978447486E-01
    0.11949649953707475528E-01
    0.11959000454913982364E-01
    0.11961103714664722206E-01
    0.11992224983575218780E-01
    0.12002007928531640765E-01
    0.12018124893176317450E-01
    0.12024838183684508075E-01
    0.12014774494198654856E-01
    0.12022292334132577904E-01
    0.12009741619565477908E-01
    0.11997653707882622795E-01
    0.11985081116639888579E-01
    0.11979261898704528927E-01
    0.11985565670809082001E-01
    0.11980914569402209904E-01
    0.11997205726750654817E-01
    0.12000846798144223365E-01
    0.11970595298708043216E-01
    0.11976035883511572389E-01
    0.11988745438695743231E-01
    0.11991864174242843760E-01
    0.11981686392207082856E-01
    0.11983770098070613622E-01
    0.11972918170782186065E-01
    0.11966909200374605329E-01
    0.11957595158574774521E-01
    0.11955201224916528480E-01
    0.11961823584249171512E-01
    0.11960774160320679013E-01
    0.11970150642601493432E-01
    0.11971722171241429636E-01
    0.12016208956725378185E-01
    0.12026254886709598219E-01
    0.12048576263395364624E-01
    0.12054322013155710155E-01
    0.12036585690750124453E-01
    0.12040309222075233977E-01
    0.12021405420143927226E-01
    0.12010837741186981484E-01
    0.11994628163602348916E-01
    0.11990295301173530332E-01
    0.12001599675536048922E-01
    0.11999301590272511836E-01
    0.12016221869348123544E-01
    0.12019086063054424535E-01
    0.12054802694383767378E-01
    0.12071431425514773245E-01
    0.12099157146413892436E-01
    0.12110186723546353255E-01
    0.12092641464577523480E-01
    0.12104918407537699002E-01
    0.12083695084237261463E-01
    0.12063330228444068062E-01
    0.12041949213962680615E-01
    0.12032039014739063718E-01
    0.12042975849477215167E-01
    0.12035165526905632419E-01
    0.12062885825040009155E-01
    0.12068972833389974078E-01
    0.12161646190663078990E-01
    0.12188695910823782106E-01
    0.12235604317632214552E-01
    0.12252618994785347689E-01
    0.12222206911561448936E-01
    0.12241155087502633703E-01
    0.12206301512776556589E-01
    0.12173069063161352787E-01
    0.12137557648834944313E-01
    0.12121227368542668648E-01
    0.12140053925530502540E-01
    0.12127661849621442294E-01
    0.12173329396567357172E-01
    0.12183072001951971222E-01
    0.12097315691460192033E-01
    0.12115087726641627155E-01
    0.12154659609486017161E-01
    0.12164422576318320579E-01
    0.12132623666510749735E-01
    0.12138221249087361234E-01
    0.12105171129217126222E-01
    0.12087299191439299442E-01
    0.12059089984047862559E-01
    0.12051680323274152618E-01
    0.12071538869680977987E-01
    0.12067478597404528162E-01
    0.12097200362369435467E-01
    0.12102076728156906105E-01
    0.12240770179558727038E-01
    0.12270748495073358769E-01
    0.12340645452326890266E-01
    0.12355575427322290985E-01
    0.12297946806095343825E-01
    0.12304396173457210831E-01
    0.12246970402441874348E-01
    0.12218234998038968869E-01
    0.12169648852194587391E-01
    0.12157744667825730323E-01
    0.12193302723011978025E-01
    0.12187476275147494237E-01
    0.12237784029027096513E-01
    0.12245418123429418697E-01
    0.11998018256119584793E-01
    0.12004038888470331889E-01
    0.12022203910393377407E-01
    0.12024994637875185619E-01
    0.12008794173401424882E-01
    0.12009008760699236076E-01
    0.11992786448665939542E-01
    0.11986671500446828900E-01
    0.11973711446823161533E-01
    0.11971911275050640261E-01
    0.11982682540028179868E-01
    0.11983188644600227882E-01
    0.11993983408348436390E-01
    0.11995261639714319829E-01
    0.12060199826949398461E-01
    0.12072246173595667373E-01
    0.12104257111794435031E-01
    0.12110419352502829748E-01
    0.12082549731354834052E-01
    0.12083898100287229077E-01
    0.12055456269838451047E-01
    0.12044052123992810346E-01
    0.12021303480545733958E-01
    0.12017528581181659633E-01
    0.12035577586661403912E-01
    0.12035072558333522602E-01
    0.12055687512593093666E-01
    0.12058436196454863296E-01
    0.12045056734805881238E-01
    0.12051731588252723865E-01
    0.12078254562861236859E-01
    0.12080438824799520983E-01
    0.12055309696106745326E-01
    0.12053261189945775264E-01
    0.12029116082230660936E-01
    0.12022199927063267205E-01
    0.12003469923136977568E-01
    0.12002212133663522908E-01
    0.12019326753491743273E-01
    0.12022205724523097117E-01
    0.12035317027355087183E-01
    0.12036260943052989880E-01
    0.12131627740859456110E-01
    0.12146477514323338401E-01
    0.12192204770458228355E-01
    0.12199258134472763804E-01
    0.12157747123134212894E-01
    0.12157327931218644620E-01
    0.12115482088959005427E-01
    0.12101304137019815860E-01
    0.12068721591288517417E-01
    0.12064996225763022566E-01
    0.12092566426655402753E-01
    0.12094416548682197093E-01
    0.12120803090356631337E-01
    0.12123731372043701840E-01
    0.12172947390805774828E-01
    0.12195983900212311463E-01
    0.12253775596569585135E-01
    0.12265654952613209636E-01
    0.12215605611716204640E-01
    0.12218024176789596055E-01
    0.12167095962958026853E-01
    0.12146728397532294275E-01
    0.12106230281974954613E-01
    0.12099165180622041896E-01
    0.12130745629288036680E-01
    0.12128671489985799054E-01
    0.12166937505197298122E-01
    0.12172149321250231441E-01
    0.12379331809912894058E-01
    0.12421379212881274862E-01
    0.12527089964023978633E-01
    0.12547467039989095017E-01
    0.12454871459634342043E-01
    0.12456155390718287590E-01
    0.12364153360538140264E-01
    0.12329714017020628261E-01
    0.12257267008549401280E-01
    0.12245291349368001704E-01
    0.12302547762357259400E-01
    0.12298901109240721607E-01
    0.12367878298410996118E-01
    0.12376760644580136334E-01
    0.12288751616020165969E-01
    0.12320138663388637001E-01
    0.12402777452462460106E-01
    0.12419494688209782238E-01
    0.12346561258849189299E-01
    0.12348842565152347295E-01
    0.12273393604520116754E-01
    0.12245838224560351426E-01
    0.12187218598909109468E-01
    0.12178776301707815513E-01
    0.12225697174894774658E-01
    0.12224832403052431420E-01
    0.12277296462828140439E-01
    0.12284115352395704596E-01
    0.12583047039836618361E-01
    0.12645939791186876569E-01
    0.12800266363681813211E-01
    0.12834144250270046461E-01
    0.12698977989459001026E-01
    0.12703339933980272586E-01
    0.12563699414182808931E-01
    0.12512811449154843946E-01
    0.12405060603914592685E-01
    0.12388504886648435063E-01
    0.12472916363610244903E-01
    0.12467404528473599590E-01
    0.12568979624889007815E-01
    0.12582593737576548004E-01
    0.11973582557458027631E-01
    0.11969163614749332714E-01
    0.11974928047478312215E-01
    0.11971037104434169990E-01
    0.11961774071843005174E-01
    0.11956175892144120174E-01
    0.11949649953766430105E-01
    0.11952289634047999489E-01
    0.11948628994670864104E-01
    0.11951992579207048467E-01
    0.11959264997076540088E-01
    0.11966288975904629949E-01
    0.11961103714765929443E-01
    0.11959000455005985158E-01
    0.11983770098212612881E-01
    0.11981686392340769320E-01
    0.11991864174402453933E-01
    0.11988745438844769856E-01
    0.11976035883625477801E-01
    0.11970595298795280725E-01
    0.11960774160385326953E-01
    0.11961823584323495739E-01
    0.11955201224982163477E-01
    0.11957595158648371900E-01
    0.11966909200475321640E-01
    0.11972918170900764823E-01
    0.11971722171350181185E-01
    0.11970150642702941796E-01
    0.12022292334442239922E-01
    0.12014774494475067429E-01
    0.12024838183986369042E-01
    0.12018124893449713339E-01
    0.12002007928757321351E-01
    0.11992224983759158449E-01
    0.11980914569548920673E-01
    0.11985565670983114664E-01
    0.11979261898864931868E-01
    0.11985081116823460487E-01
    0.11997653708115967389E-01
    0.12009741619854623351E-01
    0.12000846798377595714E-01
    0.11997205726967474435E-01
    0.12040309222406942596E-01
    0.12036585691071069112E-01
    0.12054322013533782729E-01
    0.12048576263756544460E-01
    0.12026254886991639970E-01
    0.12016208956959657794E-01
    0.11999301590449821392E-01
    0.12001599675734445777E-01
    0.11990295301341637180E-01
    0.11994628163790672232E-01
    0.12010837741429813280E-01
    0.12021405420424699159E-01
    0.12019086063319125990E-01
    0.12016221869600446012E-01
    0.12009008760885012818E-01
    0.12008794173573618738E-01
    0.12024994638078111836E-01
    0.12022203910575767968E-01
    0.12004038888609359567E-01
    0.11998018256226311920E-01
    0.11983188644672052373E-01
    0.11982682540119036010E-01
    0.11971911275128629959E-01
    0.11973711446913398379E-01
    0.11986671500575529770E-01
    0.11992786448825955639E-01
    0.11995261639851140939E-01
    0.11993983408474568134E-01
    0.12053261190156712435E-01
    0.12055309696278672035E-01
    0.12080438824988447982E-01
    0.12078254563008169672E-01
    0.12051731588357809943E-01
    0.12045056734858635913E-01
    0.12022205724546803848E-01
    0.12019326753559111259E-01
    0.12002212133731163246E-01
    0.12003469923234965158E-01
    0.12022199927200445668E-01
    0.12029116082419563649E-01
    0.12036260943182467906E-01
    0.12035317027464076389E-01
    0.12083898100741128148E-01
    0.12082549731790142092E-01
    0.12110419353018648039E-01
    0.12104257112272167468E-01
    0.12072246173972707786E-01
    0.12060199827265217012E-01
    0.12035072558564870529E-01
    0.12035577586924058394E-01
    0.12017528581401468180E-01
    0.12021303480790685586E-01
    0.12044052124319411939E-01
    0.12055456270225037643E-01
    0.12058436196811073149E-01
    0.12055687512930839123E-01
    0.12157327931797384801E-01
    0.12157747123659154095E-01
    0.12199258135066793837E-01
    0.12192204770987983414E-01
    0.12146477514732407013E-01
    0.12131627741173250240E-01
    0.12094416548903984959E-01
    0.12092566426946154551E-01
    0.12064996226021470344E-01
    0.12068721591601204793E-01
    0.12101304137427364854E-01
    0.12115482089463773530E-01
    0.12123731372464750453E-01
    0.12120803090743662023E-01
    0.12104918408177756453E-01
    0.12092641465159193609E-01
    0.12110186724180542137E-01
    0.12099157147000013865E-01
    0.12071431426000912152E-01
    0.12054802694794041623E-01
    0.12035165527237020114E-01
    0.12042975849859470158E-01
    0.12032039015089453574E-01
    0.12041949214358990336E-01
    0.12063330228934687760E-01
    0.12083695084833185815E-01
    0.12068972833885267121E-01
    0.12062885825505124948E-01
    0.12138221249799300422E-01
    0.12132623667206214255E-01
    0.12164422577138747639E-01
    0.12154659610272934567E-01
    0.12115087727268622139E-01
    0.12097315691998334480E-01
    0.12067478597822164574E-01
    0.12071538870133544791E-01
    0.12051680323658118046E-01
    0.12059089984468541676E-01
    0.12087299191970319115E-01
    0.12105171129819295578E-01
    0.12102076728738645622E-01
    0.12097200362929105832E-01
    0.12241155088750286725E-01
    0.12222206912720138400E-01
    0.12252618996066347301E-01
    0.12235604318818925004E-01
    0.12188695911813035924E-01
    0.12161646191512410012E-01
    0.12127661850316870384E-01
    0.12140053926314134380E-01
    0.12121227369260011500E-01
    0.12137557649636773402E-01
    0.12173069064136241360E-01
    0.12206301513938198552E-01
    0.12183072002945388376E-01
    0.12173329397507402089E-01
    0.12304396174882241063E-01
    0.12297946807518507495E-01
    0.12355575429010740712E-01
    0.12340645453954291605E-01
    0.12270748496377902048E-01
    0.12240770180703814535E-01
    0.12187476276044226578E-01
    0.12193302723966776765E-01
    0.12157744668634012583E-01
    0.12169648853071386024E-01
    0.12218234999128866139E-01
    0.12246970403660583510E-01
    0.12245418124629085799E-01
    0.12237784030189404610E-01
    0.12218024177784357620E-01
    0.12215605612692019555E-01
    0.12265654953765883078E-01
    0.12253775597664431571E-01
    0.12195983901085829734E-01
    0.12172947391568170183E-01
    0.12128671490560651719E-01
    0.12130745629912849382E-01
    0.12099165181142852721E-01
    0.12106230282542292456E-01
    0.12146728398266417107E-01
    0.12167095963804622216E-01
    0.12172149322059806070E-01
    0.12166937505975746608E-01
    0.12348842566502685539E-01
    0.12346561260118796982E-01
    0.12419494689675110097E-01
    0.12402777453808818894E-01
    0.12320138664462531447E-01
    0.12288751616913109674E-01
    0.12224832403729991859E-01
    0.12225697175676094111E-01
    0.12178776302388014466E-01
    0.12187218599678886072E-01
    0.12245838225542166749E-01
    0.12273393605677042004E-01