# vtk DataFile Version 3.0
LAPLACIEN  2D
ASCII
DATASET UNSTRUCTURED_GRID
FIELD FieldData 1
TIME 1 1 double
3.4000
 POINTS        7297  float
   1.5625000000000000E-002  0.96875000000000000        0.0000000000000000     
   3.1250000000000000E-002  0.96875000000000000        0.0000000000000000     
   3.1250000000000000E-002  0.98437500000000000        0.0000000000000000     
   9.3749999999999997E-003  0.97812500000000002        0.0000000000000000     
   2.0312500000000001E-002  0.97968750000000004        0.0000000000000000     
   2.1874999999999999E-002  0.99062499999999998        0.0000000000000000     
   1.0937499999999999E-002  0.98906249999999996        0.0000000000000000     
   4.6875000000000000E-002  0.96875000000000000        0.0000000000000000     
   6.2500000000000000E-002  0.96875000000000000        0.0000000000000000     
   6.2500000000000000E-002  0.98437500000000000        0.0000000000000000     
   4.0625000000000001E-002  0.97812500000000002        0.0000000000000000     
   5.1562499999999997E-002  0.97968750000000004        0.0000000000000000     
   5.3124999999999999E-002  0.99062499999999998        0.0000000000000000     
   4.2187500000000003E-002  0.98906249999999996        0.0000000000000000     
   1.5625000000000000E-002  0.93750000000000000        0.0000000000000000     
   3.1250000000000000E-002  0.93750000000000000        0.0000000000000000     
   3.1250000000000000E-002  0.95312500000000000        0.0000000000000000     
   9.3749999999999997E-003  0.94687500000000002        0.0000000000000000     
   2.0312500000000001E-002  0.94843750000000004        0.0000000000000000     
   2.1874999999999999E-002  0.95937499999999998        0.0000000000000000     
   1.0937499999999999E-002  0.95781249999999996        0.0000000000000000     
   4.6875000000000000E-002  0.93750000000000000        0.0000000000000000     
   6.2500000000000000E-002  0.93750000000000000        0.0000000000000000     
   6.2500000000000000E-002  0.95312500000000000        0.0000000000000000     
   4.0625000000000001E-002  0.94687500000000002        0.0000000000000000     
   5.1562499999999997E-002  0.94843750000000004        0.0000000000000000     
   5.3124999999999999E-002  0.95937499999999998        0.0000000000000000     
   4.2187500000000003E-002  0.95781249999999996        0.0000000000000000     
   7.8125000000000000E-002  0.96875000000000000        0.0000000000000000     
   9.3750000000000000E-002  0.96875000000000000        0.0000000000000000     
   9.3750000000000000E-002  0.98437500000000000        0.0000000000000000     
   7.1874999999999994E-002  0.97812500000000002        0.0000000000000000     
   8.2812499999999997E-002  0.97968750000000004        0.0000000000000000     
   8.4375000000000006E-002  0.99062499999999998        0.0000000000000000     
   7.3437500000000003E-002  0.98906249999999996        0.0000000000000000     
  0.10937500000000000       0.96875000000000000        0.0000000000000000     
  0.12500000000000000       0.96875000000000000        0.0000000000000000     
  0.12500000000000000       0.98437500000000000        0.0000000000000000     
  0.10312499999999999       0.97812500000000002        0.0000000000000000     
  0.11406250000000000       0.97968750000000004        0.0000000000000000     
  0.11562500000000001       0.99062499999999998        0.0000000000000000     
  0.10468750000000000       0.98906249999999996        0.0000000000000000     
   7.8125000000000000E-002  0.93750000000000000        0.0000000000000000     
   9.3750000000000000E-002  0.93750000000000000        0.0000000000000000     
   9.3750000000000000E-002  0.95312500000000000        0.0000000000000000     
   7.1874999999999994E-002  0.94687500000000002        0.0000000000000000     
   8.2812499999999997E-002  0.94843750000000004        0.0000000000000000     
   8.4375000000000006E-002  0.95937499999999998        0.0000000000000000     
   7.3437500000000003E-002  0.95781249999999996        0.0000000000000000     
  0.10937500000000000       0.93750000000000000        0.0000000000000000     
  0.12500000000000000       0.93750000000000000        0.0000000000000000     
  0.12500000000000000       0.95312500000000000        0.0000000000000000     
  0.10312499999999999       0.94687500000000002        0.0000000000000000     
  0.11406250000000000       0.94843750000000004        0.0000000000000000     
  0.11562500000000001       0.95937499999999998        0.0000000000000000     
  0.10468750000000000       0.95781249999999996        0.0000000000000000     
   1.5625000000000000E-002  0.90625000000000000        0.0000000000000000     
   3.1250000000000000E-002  0.90625000000000000        0.0000000000000000     
   3.1250000000000000E-002  0.92187500000000000        0.0000000000000000     
   9.3749999999999997E-003  0.91562500000000002        0.0000000000000000     
   2.0312500000000001E-002  0.91718750000000004        0.0000000000000000     
   2.1874999999999999E-002  0.92812499999999998        0.0000000000000000     
   1.0937499999999999E-002  0.92656249999999996        0.0000000000000000     
   4.6875000000000000E-002  0.90625000000000000        0.0000000000000000     
   6.2500000000000000E-002  0.90625000000000000        0.0000000000000000     
   6.2500000000000000E-002  0.92187500000000000        0.0000000000000000     
   4.0625000000000001E-002  0.91562500000000002        0.0000000000000000     
   5.1562499999999997E-002  0.91718750000000004        0.0000000000000000     
   5.3124999999999999E-002  0.92812499999999998        0.0000000000000000     
   4.2187500000000003E-002  0.92656249999999996        0.0000000000000000     
   1.5625000000000000E-002  0.87500000000000000        0.0000000000000000     
   3.1250000000000000E-002  0.87500000000000000        0.0000000000000000     
   3.1250000000000000E-002  0.89062500000000000        0.0000000000000000     
   9.3749999999999997E-003  0.88437500000000002        0.0000000000000000     
   2.0312500000000001E-002  0.88593750000000004        0.0000000000000000     
   2.1874999999999999E-002  0.89687499999999998        0.0000000000000000     
   1.0937499999999999E-002  0.89531249999999996        0.0000000000000000     
   4.6875000000000000E-002  0.87500000000000000        0.0000000000000000     
   6.2500000000000000E-002  0.87500000000000000        0.0000000000000000     
   6.2500000000000000E-002  0.89062500000000000        0.0000000000000000     
   4.0625000000000001E-002  0.88437500000000002        0.0000000000000000     
   5.1562499999999997E-002  0.88593750000000004        0.0000000000000000     
   5.3124999999999999E-002  0.89687499999999998        0.0000000000000000     
   4.2187500000000003E-002  0.89531249999999996        0.0000000000000000     
   7.8125000000000000E-002  0.90625000000000000        0.0000000000000000     
   9.3750000000000000E-002  0.90625000000000000        0.0000000000000000     
   9.3750000000000000E-002  0.92187500000000000        0.0000000000000000     
   7.1874999999999994E-002  0.91562500000000002        0.0000000000000000     
   8.2812499999999997E-002  0.91718750000000004        0.0000000000000000     
   8.4375000000000006E-002  0.92812499999999998        0.0000000000000000     
   7.3437500000000003E-002  0.92656249999999996        0.0000000000000000     
  0.10937500000000000       0.90625000000000000        0.0000000000000000     
  0.12500000000000000       0.90625000000000000        0.0000000000000000     
  0.12500000000000000       0.92187500000000000        0.0000000000000000     
  0.10312499999999999       0.91562500000000002        0.0000000000000000     
  0.11406250000000000       0.91718750000000004        0.0000000000000000     
  0.11562500000000001       0.92812499999999998        0.0000000000000000     
  0.10468750000000000       0.92656249999999996        0.0000000000000000     
   7.8125000000000000E-002  0.87500000000000000        0.0000000000000000     
   9.3750000000000000E-002  0.87500000000000000        0.0000000000000000     
   9.3750000000000000E-002  0.89062500000000000        0.0000000000000000     
   7.1874999999999994E-002  0.88437500000000002        0.0000000000000000     
   8.2812499999999997E-002  0.88593750000000004        0.0000000000000000     
   8.4375000000000006E-002  0.89687499999999998        0.0000000000000000     
   7.3437500000000003E-002  0.89531249999999996        0.0000000000000000     
  0.10937500000000000       0.87500000000000000        0.0000000000000000     
  0.12500000000000000       0.87500000000000000        0.0000000000000000     
  0.12500000000000000       0.89062500000000000        0.0000000000000000     
  0.10312499999999999       0.88437500000000002        0.0000000000000000     
  0.11406250000000000       0.88593750000000004        0.0000000000000000     
  0.11562500000000001       0.89687499999999998        0.0000000000000000     
  0.10468750000000000       0.89531249999999996        0.0000000000000000     
  0.14062500000000000       0.96875000000000000        0.0000000000000000     
  0.15625000000000000       0.96875000000000000        0.0000000000000000     
  0.15625000000000000       0.98437500000000000        0.0000000000000000     
  0.13437499999999999       0.97812500000000002        0.0000000000000000     
  0.14531250000000001       0.97968750000000004        0.0000000000000000     
  0.14687500000000001       0.99062499999999998        0.0000000000000000     
  0.13593749999999999       0.98906249999999996        0.0000000000000000     
  0.17187500000000000       0.96875000000000000        0.0000000000000000     
  0.18750000000000000       0.96875000000000000        0.0000000000000000     
  0.18750000000000000       0.98437500000000000        0.0000000000000000     
  0.16562499999999999       0.97812500000000002        0.0000000000000000     
  0.17656250000000001       0.97968750000000004        0.0000000000000000     
[...]
 CELL_DATA       14336
 SCALARS Nutrient float
 LOOKUP_TABLE default
    0.28391614726226755729E-02
    0.28390634438248971497E-02
    0.28397738007222041168E-02
    0.28397738006840063732E-02
    0.28390634439700518712E-02
    0.28391614724882479476E-02
    0.28385926782517035237E-02
    0.28382591049658872050E-02
    0.28378983237865966494E-02
    0.28378983229390987962E-02
    0.28382591054045870627E-02
    0.28385926780758762890E-02
    0.28385400705381595883E-02
    0.28385400703995825045E-02
    0.28414763159715526394E-02
    0.28420930998043119134E-02
    0.28437590209126036370E-02
    0.28442205030424464081E-02
    0.28429776839842368745E-02
    0.28435827212160173436E-02
    0.28422710323890696717E-02
    0.28411739470273751455E-02
    0.28400167423115328831E-02
    0.28395921855995940111E-02
    0.28403209769365246433E-02
    0.28402267614759408448E-02
    0.28413593567351816578E-02
    0.28416120750525001096E-02
    0.28435827212613569437E-02
    0.28429776839786918309E-02
    0.28442205030681224839E-02
    0.28437590209150387550E-02
    0.28420930998495821246E-02
    0.28414763159300428751E-02
    0.28402267615698392582E-02
    0.28403209768559051045E-02
    0.28395921857210671552E-02
    0.28400167422131805672E-02
    0.28411739470983552597E-02
    0.28422710323907397767E-02
    0.28416120750937427265E-02
    0.28413593567327161821E-02
    0.28466294013827515147E-02
    0.28468883586237584034E-02
    0.28494496498925841847E-02
    0.28494496498868951591E-02
    0.28468883586289070627E-02
    0.28466294013587425081E-02
    0.28443437527319983052E-02
    0.28436863878221543822E-02
    0.28419733492463139686E-02
    0.28419733492038566115E-02
    0.28436863878543773045E-02
    0.28443437527241170228E-02
    0.28450908219607900021E-02
    0.28450908219515218082E-02
    0.28476030424345920647E-02
    0.28492437749441604927E-02
    0.28524346655524638813E-02
    0.28536245020831076460E-02
    0.28515221770679397353E-02
    0.28529537757955771710E-02
    0.28504343116646756184E-02
    0.28480846544070132463E-02
    0.28456493489912681842E-02
    0.28446099973502567484E-02
    0.28459156763359339491E-02
    0.28452826268542835177E-02
    0.28481303040630051755E-02
    0.28487794281878524305E-02
    0.28596593824169016032E-02
    0.28629113049104420487E-02
    0.28684644703831948913E-02
    0.28707250316126150559E-02
    0.28672337115078680957E-02
    0.28698397030144091706E-02
    0.28654547552539742956E-02
    0.28612650054548453317E-02
    0.28569003168212557531E-02
    0.28549078119232901632E-02
    0.28571522598076766301E-02
    0.28556603383799454739E-02
    0.28611740863292017822E-02
    0.28624091873491372927E-02
    0.28545326665733107736E-02
    0.28557995127774806442E-02
    0.28602394734015931972E-02
    0.28608368767807364035E-02
    0.28569002866877866824E-02
    0.28571405582091188857E-02
    0.28532387425713010183E-02
    0.28514976397892373601E-02
    0.28482794277485700730E-02
    0.28477881323971479012E-02
    0.28504781985307404979E-02
    0.28507741644673784479E-02
    0.28532389841121629827E-02
    0.28535486123481309910E-02
    0.28693442034609323646E-02
    0.28722235222184188189E-02
    0.28797713773826907890E-02
    0.28813408313740399534E-02
    0.28751201554842215243E-02
    0.28761371540839586643E-02
    0.28696430623747159160E-02
    0.28661941959509449999E-02
    0.28606033120622898283E-02
    0.28593248702863545939E-02
    0.28635243175440189614E-02
    0.28632751335337866538E-02
    0.28684379382645252589E-02
    0.28692520393120740825E-02
    0.28529537758583420684E-02
    0.28515221771136822250E-02
    0.28536245021353007049E-02
    0.28524346655937741525E-02
    0.28492437749867410152E-02
    0.28476030424494092053E-02
    0.28452826268940733037E-02
    0.28459156763496911736E-02
    0.28446099973985852771E-02
    0.28456493490096731666E-02
    0.28480846544588879835E-02
    0.28504343117168552332E-02
    0.28487794282333923912E-02
    0.28481303040992916875E-02
    0.28571405582562638993E-02
    0.28569002867212742180E-02
    0.28608368768184462561E-02
    0.28602394734297239068E-02
    0.28557995128007354797E-02
    0.28545326665772143351E-02
    0.28507741644786402727E-02
    0.28504781985381880995E-02
    0.28477881324251706242E-02
    0.28482794277633169573E-02
    0.28514976398248039618E-02
    0.28532387426081248609E-02
    0.28535486123782371169E-02
    0.28532389841340187638E-02
    0.28698397031414399350E-02
    0.28672337116185495250E-02
    0.28707250317294265643E-02
    0.28684644704866936980E-02
    0.28629113049984497748E-02
    0.28596593824827920387E-02
    0.28556603384400176468E-02
    0.28571522598762498155E-02
    0.28549078119919409774E-02
    0.28569003168965136953E-02
    0.28612650055520006884E-02
    0.28654547553719836306E-02
    0.28624091874446685145E-02
    0.28611740864157423660E-02
    0.28761371541993455310E-02
    0.28751201555857349400E-02
    0.28813408314854222110E-02
    0.28797713774812243835E-02
    0.28722235222961439716E-02
    0.28693442035145006255E-02
    0.28632751335782879488E-02
    0.28635243176005787530E-02
    0.28593248703432808458E-02
    0.28606033121269689931E-02
    0.28661941960351701615E-02
    0.28696430624757618237E-02
    0.28692520393961665377E-02
    0.28684379383406163021E-02
    0.28679918291487694650E-02
    0.28689558989073108558E-02
    0.28754671501702417334E-02
    0.28754671501634164639E-02
    0.28689558988970889977E-02
    0.28679918291220594939E-02
    0.28620317789674852571E-02
    0.28606403023280790356E-02
    0.28560415619034700691E-02
    0.28560415619042446231E-02
    0.28606403023413778594E-02
    0.28620317789929575029E-02
    0.28644253097854554049E-02
    0.28644253097815531445E-02
    0.28880423147038952747E-02
    0.28908874397935687209E-02
    0.29017449538603148906E-02
    0.29027590778267870972E-02
    0.28926624601748251661E-02
    0.28921392454882314735E-02
    0.28823846815205045151E-02
    0.28792095861136630074E-02
    0.28714506648175657996E-02
    0.28707503721920320065E-02
    0.28776744763601975856E-02
    0.28787184029739174181E-02
    0.28842961574260346166E-02
    0.28847806876572952388E-02
    0.28921392455972033328E-02
    0.28926624602636078799E-02
    0.29027590779213286593E-02
    0.29017449539345731985E-02
    0.28908874398471656048E-02
    0.28880423147299889852E-02
    0.28787184029878420434E-02
    0.28776744763960378400E-02
    0.28707503722294335120E-02
    0.28714506648684916430E-02
    0.28792095861863769776E-02
    0.28823846816201184086E-02
    0.28847806877252313469E-02
    0.28842961574831699027E-02
    0.29211664227551969487E-02
    0.29238405569404317397E-02
    0.29400916653278120864E-02
    0.29400916653118170686E-02
    0.29238405569112263689E-02
    0.29211664226874568644E-02
    0.29063615069651643937E-02
    0.29031651108126577468E-02
    0.28918304243592150501E-02
    0.28918304243723057072E-02
    0.29031651108418813322E-02
    0.29063615070343776919E-02
    0.29126240593505656369E-02
    0.29126240593420177870E-02
    0.28809906714819780334E-02
    0.28867589636176233144E-02
    0.28962574004973463959E-02
    0.29002520487792535046E-02
    0.28943628519325212065E-02
    0.28989024520231776449E-02
    0.28914297132969397908E-02
    0.28842064622211006399E-02
    0.28767146817304679179E-02
    0.28732370919450898362E-02
    0.28770079365472503441E-02
    0.28742708624294463840E-02
    0.28839234215570211037E-02
    0.28860902301551878864E-02
    0.29178874507765507201E-02
    0.29278600511825712133E-02
    0.29442233123667792966E-02
    0.29510486201344086205E-02
    0.29408609257239263363E-02
    0.29485082209783405188E-02
    0.29357711223312408372E-02
    0.29234701126237129347E-02
    0.29106607894420558069E-02
    0.29047141854146737126E-02
    0.29111351835383134784E-02
    0.29063705888857922603E-02
    0.29229976574720959587E-02
    0.29267085894004369641E-02
    0.28956992583370408378E-02
    0.29012745139789315914E-02
    0.29142336171647997486E-02
    0.29174243530399979023E-02
    0.29070773790371281717E-02
    0.29092337235253683085E-02
    0.28981664334656793459E-02
    0.28919929089841140205E-02
    0.28824403905830038759E-02
    0.28799639466946897956E-02
    0.28867469755716680842E-02
    0.28856499072868729144E-02
    0.28952811291966962931E-02
    0.28968981199120726402E-02
    0.29421309363748156251E-02
    0.29523290527532224277E-02
    0.29749032950720528251E-02
    0.29807310638035183770E-02
    0.29628348594692866663E-02
    0.29666445278914068545E-02
    0.29475274423732449394E-02
    0.29367788124602415764E-02
    0.29203181959729564848E-02
    0.29158879388754320797E-02
    0.29273535828048978177E-02
    0.29249892726236062165E-02
    0.29421966819464309695E-02
    0.29451135564644900094E-02
    0.29813501386096092662E-02
    0.29981698572502418938E-02
    0.30261280216098518196E-02
    0.30372694521464366040E-02
    0.30196126986957940071E-02
    0.30320163424565282038E-02
    0.30106183128673124141E-02
    0.29900450491417386242E-02
    0.29684305519235604405E-02
    0.29583908650733345587E-02
    0.29694417439198239270E-02
    0.29615111986576801544E-02
    0.29895722096330255846E-02
    0.29957294560047837730E-02
    0.30890251213234257155E-02
    0.31162474177134566466E-02
    0.31633460758354946078E-02
    0.31804600727624449119E-02
    0.31499665268692779441E-02
    0.31690261964452885561E-02
    0.31340301326815574699E-02
    0.31006179015108173425E-02
    0.30649010736365049634E-02
    0.30484512499615117574E-02
    0.30673762053660758378E-02
    0.30548678373151305979E-02
    0.31008458213927828605E-02
    0.31106521636437289846E-02
    0.30240679558229577491E-02
    0.30419931264108255979E-02
    0.30817896073497604709E-02
    0.30916360507430478213E-02
    0.30597068376846999621E-02
    0.30653961828008740101E-02
    0.30321587637694123740E-02
    0.30141077530555552243E-02
    0.29856591127348001101E-02
    0.29781460863506263939E-02
    0.29981521549934195964E-02
    0.29940142935823100753E-02
    0.30240249257972181239E-02
    0.30289560569146225036E-02
    0.31682581689539369638E-02
    0.31983679332899185750E-02
    0.32684207296437973837E-02
    0.32834250012742866379E-02
    0.32257278519599100197E-02
    0.32322698193178395557E-02
    0.31747153021808470139E-02
    0.31458213199690317728E-02
    0.30970401539872805148E-02
    0.30850371215229949011E-02
    0.31207060812258068973E-02
    0.31147973338364115178E-02
    0.31653596978462360603E-02
    0.31730447387586899373E-02
    0.29235872870035997662E-02
    0.29297064230066989163E-02
    0.29481272885662958977E-02
    0.29509598295355929549E-02
    0.29345531449800586754E-02
    0.29347937902713559441E-02
    0.29183291170261239228E-02
    0.29120852510383689327E-02
    0.28988738975800642551E-02
    0.28970227198358918137E-02
    0.29079980413110923139E-02
    0.29085036856500521424E-02
    0.29195040787044612002E-02
    0.29208096419153710237E-02
    0.29865347243336966450E-02
    0.29986946640691331152E-02
    0.30309524087836609528E-02
    0.30371649439100314831E-02
    0.30091103580927687153E-02
    0.30105000525855103201E-02
    0.29818290137479139083E-02
    0.29702820766209065383E-02
    0.29472777346457794227E-02
    0.29434364401997371342E-02
    0.29616824086863380132E-02
    0.29611568640741966867E-02
    0.29820037624588000870E-02
    0.29847868326804464188E-02
    0.29712230096005775443E-02
    0.29779648741800382981E-02
    0.30047376062061125976E-02
    0.30069384446963455179E-02
    0.29815815980790065336E-02
    0.29795189558137454358E-02
    0.29551156226556231539E-02
    0.29481058939003698671E-02
    0.29291209174354031555E-02
    0.29278401942449171561E-02
    0.29451893457982463408E-02
    0.29481062578410226552E-02
    0.29613763019330609574E-02
    0.29623319910592939980E-02
    0.30584856274763097365E-02
    0.30734111987855972092E-02
    0.31193672557563128893E-02
    0.31264416286797143928E-02
    0.30847361686222860878E-02
    0.30843177989697341708E-02
    0.30422416553784314280E-02
    0.30279597456501819962E-02
    0.29951292824743239000E-02
    0.29913668562543843134E-02
    0.30191549206099671868E-02
    0.30210231447771736073E-02
    0.30475862037663355338E-02
    0.30505321935457205794E-02
    0.31000229300676600611E-02
    0.31231648934457950997E-02
    0.31811559479178390213E-02
    0.31930829013071672200E-02
    0.31428988055433250588E-02
    0.31453681450410303500E-02
    0.30942582576612273279E-02
    0.30737510548964831932E-02
    0.30330243029262288559E-02
    0.30258868261783954286E-02
    0.30576361332149675637E-02
    0.30555290278055074332E-02
    0.30940179215590349338E-02
    0.30992655940122459945E-02
    0.33069797875886495012E-02
    0.33490984845343939498E-02
    0.34549016518415176340E-02
    0.34753113902093639778E-02
    0.33826800778274119380E-02
    0.33840219212009975056E-02
    0.32919334920959771734E-02
    0.32573818772795625279E-02
    0.31847761822466412289E-02
    0.31727325873974502810E-02
    0.32300976324341253848E-02
    0.32264110754221717557E-02
    0.32955563465953403683E-02
    0.33044692130609434368E-02
    0.32162267446668221099E-02
    0.32476704741563867072E-02
    0.33304638497399924324E-02
    0.33471914449405108793E-02
    0.32741351825323612539E-02
    0.32764231035860443518E-02
    0.32008164064870497402E-02
    0.31731718528509663020E-02
    0.31143502018535448340E-02
    0.31058684191193207565E-02
    0.31529656118592119286E-02
    0.31521073166890139008E-02
    0.32047202971101662085E-02
    0.32115546364608615892E-02
    0.35108765964822897902E-02
    0.35737671392547989274E-02
    0.37280936799361642613E-02
    0.37619508236037368758E-02
    0.36267988272778942799E-02
    0.36311696402893532849E-02
    0.34915138970748518105E-02
    0.34405821974924010939E-02
    0.33327368546517636277E-02
    0.33161517292263518672E-02
    0.34006529937166633110E-02
    0.33951485805039918406E-02
    0.34967777271542503995E-02
    0.35103962025505048433E-02
    0.28989024522735164571E-02
    0.28943628521576371393E-02
    0.29002520490177948961E-02
    0.28962574007139270556E-02
    0.28867589638018370697E-02
    0.28809906716335612065E-02
    0.28742708625586893545E-02
    0.28770079366981903685E-02
    0.28732370920875739510E-02
    0.28767146818904818471E-02
    0.28842064624160345526E-02
    0.28914297135313560098E-02
    0.28860902303494079604E-02
    0.28839234217385521092E-02
    0.29092337237713828887E-02
    0.29070773792657929151E-02
    0.29174243532943287469E-02
    0.29142336174007607390E-02
    0.29012745141694584392E-02
    0.28956992584900495200E-02
    0.28856499074109520468E-02
    0.28867469757179642538E-02
    0.28799639468279772739E-02
    0.28824403907346460296E-02
    0.28919929091701128063E-02
    0.28981664336826819771E-02
    0.28968981201048485570E-02
    0.28952811293778977011E-02
    0.29485082214480437882E-02
    0.29408609261520313703E-02
    0.29510486205914453726E-02
    0.29442233127870811107E-02
    0.29278600515422015076E-02
    0.29178874510823208863E-02
    0.29063705891456473318E-02
    0.29111351838354000525E-02
    0.29047141856929259603E-02
    0.29106607897518448937E-02
    0.29234701129945400017E-02
    0.29357711227712374007E-02
    0.29267085897727107904E-02
    0.29229976578231645253E-02
    0.29666445283762226011E-02
    0.29628348599326104901E-02
    0.29807310643247793627E-02
    0.29749032955673519393E-02
    0.29523290531572685819E-02
    0.29421309367172777949E-02
    0.29249892729026789884E-02
    0.29273535831169338051E-02
    0.29158879391542181884E-02
    0.29203181962817199163E-02
    0.29367788128340003261E-02
    0.29475274427995289475E-02
    0.29451135568590528641E-02
    0.29421966823232571439E-02
    0.29347937905452583726E-02
    0.29345531452287655465E-02
    0.29509598298124925519E-02
    0.29481272888136748379E-02
    0.29297064232016471405E-02
    0.29235872871532305080E-02
    0.29085036857616221838E-02
    0.29079980414547829289E-02
    0.28970227199662632218E-02
    0.28988738977334719236E-02
    0.29120852512368347424E-02
    0.29183291172700564012E-02
    0.29208096421184915302E-02
    0.29195040788916851345E-02
    0.29795189560878321787E-02
    0.29815815982998762970E-02
    0.30069384449297209029E-02
    0.30047376063867606288E-02
    0.29779648743112107148E-02
    0.29712230096644574352E-02
    0.29481062578753077300E-02
    0.29451893458906025849E-02
    0.29278401943402549562E-02
    0.29291209175725599345E-02
    0.29481058940827031822E-02
    0.29551156229047745479E-02
    0.29623319912281589200E-02
    0.29613763020752085359E-02
    0.30105000531765436188E-02
    0.30091103586517595030E-02
    0.30371649445482995673E-02
    0.30309524093730323864E-02
    0.29986946645471357353E-02
    0.29865347247348700971E-02
    0.29611568643869014099E-02
    0.29616824090439430178E-02
    0.29434364405141492591E-02
    0.29472777349964255841E-02
    0.29702820770626491009E-02
    0.29818290142652500822E-02
    0.29847868331484574654E-02
    0.29820037629021004313E-02
    0.30843177996599446464E-02
    0.30847361692433027808E-02
    0.31264416293657168629E-02
    0.31193672563668522861E-02
    0.30734111992653146035E-02
    0.30584856278439188915E-02
    0.30210231450505599556E-02
    0.30191549209679677084E-02
    0.29913668565820653381E-02
    0.29951292828688789484E-02
    0.30279597461478516100E-02
    0.30422416559903729151E-02
    0.30505321940512970628E-02
    0.30475862042309239709E-02
    0.30320163433136312209E-02
    0.30196126994848728788E-02
    0.30372694529922738930E-02
    0.30261280223983773145E-02
    0.29981698579237942535E-02
    0.29813501391930800379E-02
    0.29615111991522428785E-02
    0.29694417444761454089E-02
    0.29583908655920415978E-02
    0.29684305524974303851E-02
    0.29900450498234745420E-02
    0.30106183136694377074E-02
    0.29957294566928158695E-02
    0.29895722102855270749E-02
    0.30653961837228951501E-02
    0.30597068385779398712E-02
    0.30916360517632942087E-02
    0.30817896083255467629E-02
    0.30419931272131326035E-02
    0.30240679565202762541E-02
    0.29940142941517148417E-02
    0.29981521556104455579E-02
    0.29781460868958027112E-02
    0.29856591133271635080E-02
    0.30141077537710453914E-02
    0.30321587645723287012E-02
    0.30289560576799898738E-02
    0.30240249265343320528E-02
    0.31690261979736900934E-02
    0.31499665282983973537E-02
    0.31804600743189840976E-02
    0.31633460772869611589E-02
    0.31162474189510565130E-02
    0.30890251224049316940E-02
    0.30548678382315576883E-02
    0.30673762063826055801E-02
    0.30484512509053162538E-02
    0.30649010746750188564E-02
    0.31006179027378640185E-02
    0.31340301341121401188E-02
    0.31106521648911291712E-02
    0.31008458225808455296E-02
    0.32322698210167908651E-02
    0.32257278536435402515E-02
    0.32834250032254598019E-02
    0.32684207315224530349E-02
    0.31983679348301244719E-02
    0.31682581703171438202E-02
    0.31147973349421129857E-02
    0.31207060824037318424E-02
    0.30850371225503983239E-02
    0.30970401550949296435E-02
    0.31458213213042276156E-02
    0.31747153036630784521E-02
    0.31730447402029738659E-02
    0.31653596992463543629E-02
    0.31453681462291034274E-02
    0.31428988066979856274E-02
    0.31930829026376966566E-02
    0.31811559491792601104E-02
    0.31231648944729491560E-02
    0.31000229309663639155E-02
    0.30555290285110446244E-02
    0.30576361339854129032E-02
    0.30258868268437143570E-02
    0.30330243036505244794E-02
    0.30737510557988473141E-02
    0.30942582586938080329E-02
    0.30992655949869220636E-02
    0.30940179224956433635E-02
    0.32764231051040579312E-02
    0.32741351839524522951E-02
    0.33471914465536601636E-02
    0.33304638512205715466E-02
    0.32476704753534178967E-02
    0.32162267456636488630E-02
    0.31521073174675838177E-02
    0.31529656127580120602E-02
    0.31058684199186678901E-02
    0.31143502027556717315E-02
    0.31731718539756755687E-02
    0.32008164078053172839E-02