# vtk DataFile Version 3.0
LAPLACIEN  2D
ASCII
DATASET UNSTRUCTURED_GRID
FIELD FieldData 1
TIME 1 1 double
12.1000
 POINTS        7297  float
   1.5625000000000000E-002  0.96875000000000000        0.0000000000000000     
   3.1250000000000000E-002  0.96875000000000000        0.0000000000000000     
   3.1250000000000000E-002  0.98437500000000000        0.0000000000000000     
   9.3749999999999997E-003  0.97812500000000002        0.0000000000000000     
   2.0312500000000001E-002  0.97968750000000004        0.0000000000000000     
   2.1874999999999999E-002  0.99062499999999998        0.0000000000000000     
   1.0937499999999999E-002  0.98906249999999996        0.0000000000000000     
   4.6875000000000000E-002  0.96875000000000000        0.0000000000000000     
   6.2500000000000000E-002  0.96875000000000000        0.0000000000000000     
   6.2500000000000000E-002  0.98437500000000000        0.0000000000000000     
   4.0625000000000001E-002  0.97812500000000002        0.0000000000000000     
   5.1562499999999997E-002  0.97968750000000004        0.0000000000000000     
   5.3124999999999999E-002  0.99062499999999998        0.0000000000000000     
   4.2187500000000003E-002  0.98906249999999996        0.0000000000000000     
   1.5625000000000000E-002  0.93750000000000000        0.0000000000000000     
   3.1250000000000000E-002  0.93750000000000000        0.0000000000000000     
   3.1250000000000000E-002  0.95312500000000000        0.0000000000000000     
   9.3749999999999997E-003  0.94687500000000002        0.0000000000000000     
   2.0312500000000001E-002  0.94843750000000004        0.0000000000000000     
   2.1874999999999999E-002  0.95937499999999998        0.0000000000000000     
   1.0937499999999999E-002  0.95781249999999996        0.0000000000000000     
   4.6875000000000000E-002  0.93750000000000000        0.0000000000000000     
   6.2500000000000000E-002  0.93750000000000000        0.0000000000000000     
   6.2500000000000000E-002  0.95312500000000000        0.0000000000000000     
   4.0625000000000001E-002  0.94687500000000002        0.0000000000000000     
   5.1562499999999997E-002  0.94843750000000004        0.0000000000000000     
   5.3124999999999999E-002  0.95937499999999998        0.0000000000000000     
   4.2187500000000003E-002  0.95781249999999996        0.0000000000000000     
   7.8125000000000000E-002  0.96875000000000000        0.0000000000000000     
   9.3750000000000000E-002  0.96875000000000000        0.0000000000000000     
   9.3750000000000000E-002  0.98437500000000000        0.0000000000000000     
   7.1874999999999994E-002  0.97812500000000002        0.0000000000000000     
   8.2812499999999997E-002  0.97968750000000004        0.0000000000000000     
   8.4375000000000006E-002  0.99062499999999998        0.0000000000000000     
   7.3437500000000003E-002  0.98906249999999996        0.0000000000000000     
  0.10937500000000000       0.96875000000000000        0.0000000000000000     
  0.12500000000000000       0.96875000000000000        0.0000000000000000     
  0.12500000000000000       0.98437500000000000        0.0000000000000000     
  0.10312499999999999       0.97812500000000002        0.0000000000000000     
  0.11406250000000000       0.97968750000000004        0.0000000000000000     
  0.11562500000000001       0.99062499999999998        0.0000000000000000     
  0.10468750000000000       0.98906249999999996        0.0000000000000000     
   7.8125000000000000E-002  0.93750000000000000        0.0000000000000000     
   9.3750000000000000E-002  0.93750000000000000        0.0000000000000000     
   9.3750000000000000E-002  0.95312500000000000        0.0000000000000000     
   7.1874999999999994E-002  0.94687500000000002        0.0000000000000000     
   8.2812499999999997E-002  0.94843750000000004        0.0000000000000000     
   8.4375000000000006E-002  0.95937499999999998        0.0000000000000000     
   7.3437500000000003E-002  0.95781249999999996        0.0000000000000000     
  0.10937500000000000       0.93750000000000000        0.0000000000000000     
  0.12500000000000000       0.93750000000000000        0.0000000000000000     
  0.12500000000000000       0.95312500000000000        0.0000000000000000     
  0.10312499999999999       0.94687500000000002        0.0000000000000000     
  0.11406250000000000       0.94843750000000004        0.0000000000000000     
  0.11562500000000001       0.95937499999999998        0.0000000000000000     
  0.10468750000000000       0.95781249999999996        0.0000000000000000     
   1.5625000000000000E-002  0.90625000000000000        0.0000000000000000     
   3.1250000000000000E-002  0.90625000000000000        0.0000000000000000     
   3.1250000000000000E-002  0.92187500000000000        0.0000000000000000     
   9.3749999999999997E-003  0.91562500000000002        0.0000000000000000     
   2.0312500000000001E-002  0.91718750000000004        0.0000000000000000     
   2.1874999999999999E-002  0.92812499999999998        0.0000000000000000     
   1.0937499999999999E-002  0.92656249999999996        0.0000000000000000     
   4.6875000000000000E-002  0.90625000000000000        0.0000000000000000     
   6.2500000000000000E-002  0.90625000000000000        0.0000000000000000     
   6.2500000000000000E-002  0.92187500000000000        0.0000000000000000     
   4.0625000000000001E-002  0.91562500000000002        0.0000000000000000     
   5.1562499999999997E-002  0.91718750000000004        0.0000000000000000     
   5.3124999999999999E-002  0.92812499999999998        0.0000000000000000     
   4.2187500000000003E-002  0.92656249999999996        0.0000000000000000     
   1.5625000000000000E-002  0.87500000000000000        0.0000000000000000     
   3.1250000000000000E-002  0.87500000000000000        0.0000000000000000     
   3.1250000000000000E-002  0.89062500000000000        0.0000000000000000     
   9.3749999999999997E-003  0.88437500000000002        0.0000000000000000     
   2.0312500000000001E-002  0.88593750000000004        0.0000000000000000     
   2.1874999999999999E-002  0.89687499999999998        0.0000000000000000     
   1.0937499999999999E-002  0.89531249999999996        0.0000000000000000     
   4.6875000000000000E-002  0.87500000000000000        0.0000000000000000     
   6.2500000000000000E-002  0.87500000000000000        0.0000000000000000     
   6.2500000000000000E-002  0.89062500000000000        0.0000000000000000     
   4.0625000000000001E-002  0.88437500000000002        0.0000000000000000     
   5.1562499999999997E-002  0.88593750000000004        0.0000000000000000     
   5.3124999999999999E-002  0.89687499999999998        0.0000000000000000     
   4.2187500000000003E-002  0.89531249999999996        0.0000000000000000     
   7.8125000000000000E-002  0.90625000000000000        0.0000000000000000     
   9.3750000000000000E-002  0.90625000000000000        0.0000000000000000     
   9.3750000000000000E-002  0.92187500000000000        0.0000000000000000     
   7.1874999999999994E-002  0.91562500000000002        0.0000000000000000     
   8.2812499999999997E-002  0.91718750000000004        0.0000000000000000     
   8.4375000000000006E-002  0.92812499999999998        0.0000000000000000     
   7.3437500000000003E-002  0.92656249999999996        0.0000000000000000     
  0.10937500000000000       0.90625000000000000        0.0000000000000000     
  0.12500000000000000       0.90625000000000000        0.0000000000000000     
  0.12500000000000000       0.92187500000000000        0.0000000000000000     
  0.10312499999999999       0.91562500000000002        0.0000000000000000     
  0.11406250000000000       0.91718750000000004        0.0000000000000000     
  0.11562500000000001       0.92812499999999998        0.0000000000000000     
  0.10468750000000000       0.92656249999999996        0.0000000000000000     
   7.8125000000000000E-002  0.87500000000000000        0.0000000000000000     
   9.3750000000000000E-002  0.87500000000000000        0.0000000000000000     
   9.3750000000000000E-002  0.89062500000000000        0.0000000000000000     
   7.1874999999999994E-002  0.88437500000000002        0.0000000000000000     
   8.2812499999999997E-002  0.88593750000000004        0.0000000000000000     
   8.4375000000000006E-002  0.89687499999999998        0.0000000000000000     
   7.3437500000000003E-002  0.89531249999999996        0.0000000000000000     
  0.10937500000000000       0.87500000000000000        0.0000000000000000     
  0.12500000000000000       0.87500000000000000        0.0000000000000000     
  0.12500000000000000       0.89062500000000000        0.0000000000000000     
  0.10312499999999999       0.88437500000000002        0.0000000000000000     
  0.11406250000000000       0.88593750000000004        0.0000000000000000     
  0.11562500000000001       0.89687499999999998        0.0000000000000000     
  0.10468750000000000       0.89531249999999996        0.0000000000000000     
  0.14062500000000000       0.96875000000000000        0.0000000000000000     
  0.15625000000000000       0.96875000000000000        0.0000000000000000     
  0.15625000000000000       0.98437500000000000        0.0000000000000000     
  0.13437499999999999       0.97812500000000002        0.0000000000000000     
  0.14531250000000001       0.97968750000000004        0.0000000000000000     
  0.14687500000000001       0.99062499999999998        0.0000000000000000     
  0.13593749999999999       0.98906249999999996        0.0000000000000000     
  0.17187500000000000       0.96875000000000000        0.0000000000000000     
  0.18750000000000000       0.96875000000000000        0.0000000000000000     
  0.18750000000000000       0.98437500000000000        0.0000000000000000     
  0.16562499999999999       0.97812500000000002        0.0000000000000000     
  0.17656250000000001       0.97968750000000004        0.0000000000000000     
[...]
 CELL_DATA       14336
 SCALARS Nutrient float
 LOOKUP_TABLE default
    0.68798485714659423154E-02
    0.68797653349035453596E-02
    0.68804171361956803846E-02
    0.68804171361039889732E-02
    0.68797653352708773924E-02
    0.68798485711489935912E-02
    0.68793319020993377519E-02
    0.68790260567593132859E-02
    0.68786958496439348440E-02
    0.68786958475368347593E-02
    0.68790260578438693420E-02
    0.68793319016482636780E-02
    0.68792839330568426523E-02
    0.68792839327144889028E-02
    0.68819911032090260242E-02
    0.68825618768339905454E-02
    0.68841107752187049099E-02
    0.68845398263404737615E-02
    0.68833785498341572631E-02
    0.68839348081443469882E-02
    0.68827177522878899701E-02
    0.68817051598762026682E-02
    0.68806358970975008485E-02
    0.68802535805759859611E-02
    0.68809190932546376168E-02
    0.68808370341941500065E-02
    0.68818808613186907910E-02
    0.68821097252649548331E-02
    0.68839348082011591820E-02
    0.68833785497773468040E-02
    0.68845398263633296107E-02
    0.68841107751946130702E-02
    0.68825618769234363573E-02
    0.68819911030962802739E-02
    0.68808370344187195014E-02
    0.68809190930350016754E-02
    0.68802535808600026948E-02
    0.68806358968267920459E-02
    0.68817051600164828168E-02
    0.68827177522399699688E-02
    0.68821097253339274386E-02
    0.68818808612856078796E-02
    0.68868088399262868474E-02
    0.68870581761817650790E-02
    0.68894792795570819130E-02
    0.68894792795487873327E-02
    0.68870581762069879583E-02
    0.68868088398965198599E-02
    0.68846625541332581028E-02
    0.68840505159196733673E-02
    0.68824541467503311601E-02
    0.68824541466403202014E-02
    0.68840505159886390338E-02
    0.68846625540872211438E-02
    0.68853674582889552724E-02
    0.68853674582691854963E-02
    0.68877151973402864563E-02
    0.68892572018502415757E-02
    0.68922774465564372662E-02
    0.68934022495845508061E-02
    0.68914042429895870645E-02
    0.68927559614295821899E-02
    0.68903702114615382121E-02
    0.68881559918892087610E-02
    0.68858657090252912980E-02
    0.68848978754159489979E-02
    0.68861199703679548331E-02
    0.68855323543884879370E-02
    0.68882025316025141323E-02
    0.68888111753693370004E-02
    0.68991612610697630389E-02
    0.69022679101615894495E-02
    0.69076032287198815829E-02
    0.69097715979974895159E-02
    0.69064035531505585386E-02
    0.69089016949775124490E-02
    0.69046849865244492792E-02
    0.69006750845494336383E-02
    0.68965058267919177384E-02
    0.68946114645279622454E-02
    0.68967536963362814292E-02
    0.68953388868514845986E-02
    0.69005947840779678290E-02
    0.69017743404752281491E-02
    0.68943123050248687408E-02
    0.68955170226131252270E-02
    0.68997627624049970296E-02
    0.69003286367424233883E-02
    0.68965539921279610941E-02
    0.68967700920209203813E-02
    0.68930473886674378803E-02
    0.68914036809153821767E-02
    0.68883575927208093997E-02
    0.68878986917827360673E-02
    0.68904497900756306664E-02
    0.68907353828857381348E-02
    0.68930693883927666651E-02
    0.68933605760585483710E-02
    0.69085179288461513389E-02
    0.69112888102377456265E-02
    0.69185959278758044425E-02
    0.69201070430423309784E-02
    0.69140659072762520113E-02
    0.69150292158974080783E-02
    0.69087479118243606130E-02
    0.69054417348750739974E-02
    0.69000710827222186405E-02
    0.68988555317612805864E-02
    0.69028952619176681474E-02
    0.69026686284776690369E-02
    0.69076212607608608943E-02
    0.69083998622078597596E-02
    0.68927559614592581044E-02
    0.68914042429957132405E-02
    0.68934022496041930800E-02
    0.68922774465648931758E-02
    0.68892572018784056787E-02
    0.68877151973210926084E-02
    0.68855323544401081035E-02
    0.68861199703373864034E-02
    0.68848978754703620692E-02
    0.68858657089967629031E-02
    0.68881559919248399812E-02
    0.68903702114745789958E-02
    0.68888111753928780653E-02
    0.68882025316107159049E-02
    0.68967700920398167241E-02
    0.68965539921331808770E-02
    0.69003286367579604391E-02
    0.68997627624141780536E-02
    0.68955170226274418999E-02
    0.68943123050178292330E-02
    0.68907353829022969377E-02
    0.68904497900598750404E-02
    0.68878986918144155874E-02
    0.68883575927052723489E-02
    0.68914036809372839279E-02
    0.68930473886699436883E-02
    0.68933605760729405043E-02
    0.68930693883965275456E-02
    0.69089016950366751932E-02
    0.69064035531976233212E-02
    0.69097715980500299532E-02
    0.69076032287641838184E-02
    0.69022679102005175117E-02
    0.68991612610899196584E-02
    0.68953388868778879572E-02
    0.68967536963566713690E-02
    0.68946114645576633134E-02
    0.68965058268168214287E-02
    0.69006750845940463893E-02
    0.69046849865790514353E-02
    0.69017743405171685586E-02
    0.69005947841123092823E-02
    0.69150292159514438473E-02
    0.69140659073232933751E-02
    0.69201070431005153386E-02
    0.69185959279276058875E-02
    0.69112888102768168033E-02
    0.69085179288684789647E-02
    0.69026686284973477400E-02
    0.69028952619360301954E-02
    0.68988555317862970337E-02
    0.69000710827432200703E-02
    0.69054417349127435177E-02
    0.69087479118670053202E-02
    0.69083998622466481765E-02
    0.69076212607944694269E-02
    0.69072263108919083885E-02
    0.69081624281312290631E-02
    0.69144585454045488435E-02
    0.69144585454008061776E-02
    0.69081624281293364798E-02
    0.69072263108797384359E-02
    0.69014874548713085745E-02
    0.69001576180893866089E-02
    0.68957531654172997751E-02
    0.68957531654099757726E-02
    0.69001576180998296442E-02
    0.69014874548792596795E-02
    0.69037956551028824281E-02
    0.69037956550999611538E-02
    0.69266792003944803457E-02
    0.69294503058312155799E-02
    0.69400484844276784033E-02
    0.69410357389914556156E-02
    0.69311695987806969457E-02
    0.69306445153945375054E-02
    0.69211433651872383485E-02
    0.69180745637407569520E-02
    0.69105573543258814670E-02
    0.69098870361660649081E-02
    0.69165974680116763113E-02
    0.69176128241648579542E-02
    0.69230265207038468867E-02
    0.69234944216676188797E-02
    0.69306445154573136785E-02
    0.69311695988329988585E-02
    0.69410357390525222188E-02
    0.69400484844765290837E-02
    0.69294503058657521896E-02
    0.69266792004118006923E-02
    0.69176128241720336379E-02
    0.69165974680287277757E-02
    0.69098870361850132926E-02
    0.69105573543482828186E-02
    0.69180745637814674426E-02
    0.69211433652426098545E-02
    0.69234944217070118477E-02
    0.69230265207365576999E-02
    0.69590882205750352260E-02
    0.69617190888605429491E-02
    0.69776976157307360818E-02
    0.69776976157194629813E-02
    0.69617190888411331282E-02
    0.69590882205294276111E-02
    0.69445705109415136608E-02
    0.69414471027425782290E-02
    0.69303713154424458759E-02
    0.69303713154506918839E-02
    0.69414471027632726127E-02
    0.69445705109893755488E-02
    0.69507109338169644278E-02
    0.69507109338110282040E-02
    0.69197038971695930959E-02
    0.69252892307921946544E-02
    0.69345323709266142725E-02
    0.69384141024317795912E-02
    0.69326620545940315782E-02
    0.69370714789742495346E-02
    0.69297937656751492155E-02
    0.69227855601374684025E-02
    0.69155294123021343947E-02
    0.69121737436638654856E-02
    0.69158258105913627059E-02
    0.69131926975236762667E-02
    0.69225216457150335822E-02
    0.69246199586318456926E-02
    0.69556747571190881418E-02
    0.69654371498035320964E-02
    0.69815215351124700408E-02
    0.69882201761886390476E-02
    0.69781767472035073976E-02
    0.69856792394473558871E-02
    0.69731537162721242418E-02
    0.69610913254275078380E-02
    0.69485450713709763851E-02
    0.69427386481268659260E-02
    0.69490287405928876860E-02
    0.69443884749369327869E-02
    0.69606445343334587619E-02
    0.69642776140069915722E-02
    0.69340921037584091896E-02
    0.69395209520418787291E-02
    0.69522040769051480710E-02
    0.69553155480293728588E-02
    0.69451592989504869896E-02
    0.69472384819715699705E-02
    0.69364089794446484594E-02
    0.69304137649082693876E-02
    0.69211200018962099750E-02
    0.69187318385693363787E-02
    0.69253392265106565595E-02
    0.69242924686465680273E-02
    0.69336482026121732877E-02
    0.69352160466309648382E-02
    0.69796111596067446359E-02
    0.69896366229582861107E-02
    0.70119146877601016415E-02
    0.70176486207820338789E-02
    0.69999464870671374364E-02
    0.70036622494710027917E-02
    0.69847952301681634144E-02
    0.69742496893857907139E-02
    0.69580731526337497722E-02
    0.69537500236347520033E-02
    0.69650308421939418485E-02
    0.69627382925408244640E-02
    0.69796234724574073016E-02
    0.69824814691714373951E-02
    0.70181261511482106660E-02
    0.70347221469193883109E-02
    0.70623950100103492777E-02
    0.70734032496953007027E-02
    0.70558900753643141734E-02
    0.70681433007502535160E-02
    0.70469600935542395584E-02
    0.70266351140085636998E-02
    0.70052959990678769636E-02
    0.69954062764952694084E-02
    0.70063212387447880783E-02
    0.69985276391390984635E-02
    0.70261923489845466706E-02
    0.70322670816446259875E-02
    0.71247688312360731022E-02
    0.71517687151322929806E-02
    0.71985947538082250413E-02
    0.72155784863272001348E-02
    0.71852171709497723862E-02
    0.72041304966773134222E-02
    0.71693382341639416352E-02
    0.71361670812976427808E-02
    0.71007203807187391220E-02
    0.70844212980897902990E-02
    0.71032135824335767768E-02
    0.70908461012956338146E-02
    0.71364282247124407113E-02
    0.71461526505798341619E-02
    0.70605615264924242308E-02
    0.70783006136151023491E-02
    0.71178009872631753732E-02
    0.71275463365941408092E-02
    0.70958028444364955670E-02
    0.71013889098485959150E-02
    0.70683983595459694282E-02
    0.70505613884766487470E-02
    0.70224054174978919537E-02
    0.70150110638230508270E-02
    0.70348319997858062974E-02
    0.70307806022414697303E-02
    0.70604451177970059192E-02
    0.70653119295552213250E-02
    0.72037623743713766200E-02
    0.72336888910258956981E-02
    0.73034702390409027978E-02
    0.73183748355813140959E-02
    0.72608377474062185328E-02
    0.72672732765957431464E-02
    0.72099427396717843258E-02
    0.71812593790283544420E-02
    0.71327582705390775789E-02
    0.71208770768928847036E-02
    0.71563736055692628649E-02
    0.71505591759902752125E-02
    0.72007776142844507825E-02
    0.72083977297070596021E-02
    0.69614573822328260078E-02
    0.69674655773731440297E-02
    0.69855943378389377327E-02
    0.69883790810081510003E-02
    0.69722113887954739742E-02
    0.69724257028968388006E-02
    0.69562362492136984790E-02
    0.69501343240644837540E-02
    0.69372014726527802403E-02
    0.69354054918387055689E-02
    0.69461536243793520901E-02
    0.69466588990898360881E-02
    0.69574309975823211277E-02
    0.69587063567319428631E-02
    0.70235156982242910248E-02
    0.70355394650751749280E-02
    0.70674905379255236262E-02
    0.70736413957303038644E-02
    0.70458237240708723736E-02
    0.70471695670968137817E-02
    0.70187810577088342173E-02
    0.70073996665930282646E-02
    0.69846954764777018781E-02
    0.69809284559614855417E-02
    0.69989415204760466530E-02
    0.69984377468963491695E-02
    0.70190123601056976857E-02
    0.70217555662024826527E-02
    0.70083997505825824242E-02
    0.70150617501831633721E-02
    0.70415334226628708419E-02
    0.70437136281443811850E-02
    0.70186337059523467435E-02
    0.70165898548987283567E-02
    0.69924919850242774066E-02
    0.69855897130139624901E-02
    0.69668975960698441979E-02
    0.69656421928302016469E-02
    0.69827214983753747163E-02
    0.69855944564730064472E-02
    0.69986797397447461991E-02
    0.69996218898425036428E-02
    0.70948066670928761068E-02
    0.71096300378974764192E-02
    0.71552756867359311455E-02
    0.71623174152466969125E-02
    0.71208814313238177202E-02
    0.71204644425297948865E-02
    0.70786944078941281544E-02
    0.70645420635192706163E-02
    0.70320209233561076570E-02
    0.70283023310592522212E-02
    0.70558191725010989750E-02
    0.70576654520133168258E-02
    0.70840035816201931546E-02
    0.70869268662303776946E-02
    0.71360575324703173078E-02
    0.71590540927130279919E-02
    0.72167470600894203375E-02
    0.72286070038408405808E-02
    0.71786421662511290184E-02
    0.71810565092517509092E-02
    0.71302162336719506971E-02
    0.71098850633666242638E-02
    0.70694600530386564330E-02
    0.70624084087676378477E-02
    0.70939310173333018292E-02
    0.70918608708361724480E-02
    0.71300584134773928313E-02
    0.71352610408238793804E-02
    0.73420984869044560173E-02
    0.73840801380789808719E-02
    0.74896270412956496287E-02
    0.75099737644333721537E-02
    0.74175192812866320297E-02
    0.74188001275719180072E-02
    0.73269419503576970615E-02
    0.72925598216789771361E-02
    0.72202318423946650061E-02
    0.72082772920237445091E-02
    0.72654389169424246978E-02
    0.72617982107010797116E-02
    0.73306634899367997468E-02
    0.73395313947069726682E-02
    0.72516569073477026020E-02
    0.72829940676914861966E-02
    0.73654977341790408424E-02
    0.73821909042152706465E-02
    0.73093768171523599078E-02
    0.73116566702798929320E-02
    0.72363319496729465452E-02
    0.72088221314634852097E-02
    0.71503030017430815879E-02
    0.71418749785241830014E-02
    0.71887131223438956520E-02
    0.71878477778137619958E-02
    0.72402250511314578812E-02
    0.72470332201337956876E-02
    0.75454888368869385898E-02
    0.76082922350843452258E-02
    0.77623923030428702147E-02
    0.77962262211167454237E-02
    0.76612569632998218233E-02
    0.76656158324478335109E-02
    0.75261815072706151133E-02
    0.74753699353134429526E-02
    0.73677861599508731594E-02
    0.73512555381691768730E-02
    0.74355328480617812956E-02
    0.74300266297155932033E-02
    0.75314495272203393905E-02
    0.75450444719829439302E-02
    0.69370714791166703320E-02
    0.69326620547183609444E-02
    0.69384141025668590388E-02
    0.69345323710466727496E-02
    0.69252892308903470434E-02
    0.69197038972446467744E-02
    0.69131926975837774962E-02
    0.69158258106642609905E-02
    0.69121737437328250805E-02
    0.69155294123814164617E-02
    0.69227855602429309162E-02
    0.69297937658091774207E-02
    0.69246199587356645558E-02
    0.69225216458098405570E-02
    0.69472384821164020335E-02
    0.69451592990873020281E-02
    0.69553155481913951641E-02
    0.69522040770569858148E-02
    0.69395209521576437656E-02
    0.69340921038480119939E-02
    0.69242924687123140470E-02
    0.69253392265879801237E-02
    0.69187318386360885381E-02
    0.69211200019727789345E-02
    0.69304137650111445612E-02
    0.69364089795664780891E-02
    0.69352160467419862733E-02
    0.69336482027160546010E-02
    0.69856792397612532328E-02
    0.69781767474844580076E-02
    0.69882201764946902389E-02
    0.69815215353902062081E-02
    0.69654371500328148351E-02
    0.69556747573068060386E-02
    0.69443884750867183528E-02
    0.69490287407707775069E-02
    0.69427386482904945852E-02
    0.69485450715585138706E-02
    0.69610913256645022898E-02
    0.69731537165657062408E-02
    0.69642776142443026111E-02
    0.69606445345541823749E-02
    0.70036622498067958170E-02
    0.69999464873922731881E-02
    0.70176486211636799825E-02
    0.70119146881252080242E-02
    0.69896366232435050078E-02
    0.69796111598441727686E-02
    0.69627382927208913629E-02
    0.69650308423958593243E-02
    0.69537500238057627783E-02
    0.69580731528258088145E-02
    0.69742496896321466010E-02
    0.69847952304532166454E-02
    0.69824814694397245238E-02
    0.69796234727132564629E-02
    0.69724257030849608879E-02
    0.69722113889700487385E-02
    0.69883790812127104600E-02
    0.69855943380234221049E-02
    0.69674655775134501992E-02
    0.69614573823408602490E-02
    0.69466588991625400837E-02
    0.69461536244721294384E-02
    0.69354054919176450281E-02
    0.69372014727453919225E-02
    0.69501343241948759788E-02
    0.69562362493762576812E-02
    0.69587063568705221153E-02
    0.69574309977102630556E-02
    0.70165898551113065756E-02
    0.70186337061256941910E-02
    0.70437136283341495249E-02
    0.70415334228108869899E-02
    0.70150617502887620616E-02
    0.70083997506355860327E-02
    0.69855944564969863972E-02
    0.69827214984436300135E-02
    0.69656421928982314301E-02
    0.69668975961692568635E-02
    0.69855897131521314802E-02
    0.69924919852147873409E-02
    0.69996218899729661239E-02
    0.69986797398546183799E-02
    0.70471695675543080672E-02
    0.70458237245095284296E-02
    0.70736413962489454177E-02
    0.70674905384062319813E-02
    0.70355394654546482905E-02
    0.70235156985422649706E-02
    0.69984377471298602966E-02
    0.69989415207414437323E-02
    0.69809284561836316280E-02
    0.69846954767258644797E-02
    0.70073996669225580708E-02
    0.70187810580989076076E-02
    0.70217555665616068414E-02
    0.70190123604462247714E-02
    0.71204644431110851108E-02
    0.71208814318511545749E-02
    0.71623174158422986055E-02
    0.71552756872678676195E-02
    0.71096300383079735763E-02
    0.70948066674078984206E-02
    0.70576654522363771113E-02
    0.70558191727936522830E-02
    0.70283023313191216042E-02
    0.70320209236711854819E-02
    0.70645420639288631151E-02
    0.70786944084015226281E-02
    0.70869268666534004225E-02
    0.70840035820090843308E-02
    0.70681433013957666728E-02
    0.70558900759517574619E-02
    0.70734032503348689622E-02
    0.70623950106020677922E-02
    0.70347221474104156685E-02
    0.70181261515634392814E-02
    0.69985276394748810805E-02
    0.70063212391320494818E-02
    0.69954062768502129135E-02
    0.70052959994693301399E-02
    0.70266351145041186857E-02
    0.70469600941558156390E-02
    0.70322670821451205986E-02
    0.70261923494547989799E-02
    0.71013889105658815210E-02
    0.70958028451372067574E-02
    0.71275463374194120841E-02
    0.71178009880549630156E-02
    0.70783006142464861832E-02
    0.70605615270347352186E-02
    0.70307806026631966198E-02
    0.70348320002429562403E-02
    0.70150110642113010229E-02
    0.70224054179234230919E-02
    0.70505613890124397766E-02
    0.70683983601535676014E-02
    0.70653119301417703635E-02
    0.70604451183613626403E-02
    0.72041304979316139051E-02
    0.71852171721153018646E-02
    0.72155784876146503160E-02
    0.71985947550015543309E-02
    0.71517687161275697583E-02
    0.71247688320914314211E-02
    0.70908461019967301137E-02
    0.71032135832233807629E-02
    0.70844212988129722300E-02
    0.71007203815268730637E-02
    0.71361670822786592641E-02
    0.71693382353323047845E-02
    0.71461526515795813219E-02
    0.71364282256587531841E-02
    0.72672732780270374656E-02
    0.72608377488355751658E-02
    0.73183748372752516209E-02
    0.73034702406740851025E-02
    0.72336888923357021280E-02
    0.72037623755217194618E-02
    0.71505591768920781504E-02
    0.71563736065297358854E-02
    0.71208770777065498112E-02
    0.71327582714219139176E-02
    0.71812593801240812499E-02
    0.72099427408969700773E-02
    0.72083977309125371602E-02
    0.72007776154524730586E-02
    0.71810565102509507640E-02
    0.71786421672312694664E-02
    0.72286070049970268386E-02
    0.72167470611882713824E-02
    0.71590540935899046882E-02
    0.71360575332358854722E-02
    0.70918608714141970553E-02
    0.70939310179618788807E-02
    0.70624084092918582717E-02
    0.70694600536103423608E-02
    0.71098850641047326229E-02
    0.71302162345231959867E-02
    0.71352610416373831587E-02
    0.71300584142596377599E-02
    0.73116566716336876125E-02
    0.73093768184249903463E-02
    0.73821909056830939053E-02
    0.73654977355278915610E-02
    0.72829940687676496605E-02
    0.72516569082424703688E-02
    0.71878477784936408920E-02
    0.71887131231278354054E-02
    0.71418749792069181198E-02
    0.71503030025160336028E-02
    0.72088221324482504304E-02
    0.72363319508331504226E-02