# vtk DataFile Version 3.0
LAPLACIEN  2D
ASCII
DATASET UNSTRUCTURED_GRID
FIELD FieldData 1
TIME 1 1 double
12.6000
 POINTS        7297  float
   1.5625000000000000E-002  0.96875000000000000        0.0000000000000000     
   3.1250000000000000E-002  0.96875000000000000        0.0000000000000000     
   3.1250000000000000E-002  0.98437500000000000        0.0000000000000000     
   9.3749999999999997E-003  0.97812500000000002        0.0000000000000000     
   2.0312500000000001E-002  0.97968750000000004        0.0000000000000000     
   2.1874999999999999E-002  0.99062499999999998        0.0000000000000000     
   1.0937499999999999E-002  0.98906249999999996        0.0000000000000000     
   4.6875000000000000E-002  0.96875000000000000        0.0000000000000000     
   6.2500000000000000E-002  0.96875000000000000        0.0000000000000000     
   6.2500000000000000E-002  0.98437500000000000        0.0000000000000000     
   4.0625000000000001E-002  0.97812500000000002        0.0000000000000000     
   5.1562499999999997E-002  0.97968750000000004        0.0000000000000000     
   5.3124999999999999E-002  0.99062499999999998        0.0000000000000000     
   4.2187500000000003E-002  0.98906249999999996        0.0000000000000000     
   1.5625000000000000E-002  0.93750000000000000        0.0000000000000000     
   3.1250000000000000E-002  0.93750000000000000        0.0000000000000000     
   3.1250000000000000E-002  0.95312500000000000        0.0000000000000000     
   9.3749999999999997E-003  0.94687500000000002        0.0000000000000000     
   2.0312500000000001E-002  0.94843750000000004        0.0000000000000000     
   2.1874999999999999E-002  0.95937499999999998        0.0000000000000000     
   1.0937499999999999E-002  0.95781249999999996        0.0000000000000000     
   4.6875000000000000E-002  0.93750000000000000        0.0000000000000000     
   6.2500000000000000E-002  0.93750000000000000        0.0000000000000000     
   6.2500000000000000E-002  0.95312500000000000        0.0000000000000000     
   4.0625000000000001E-002  0.94687500000000002        0.0000000000000000     
   5.1562499999999997E-002  0.94843750000000004        0.0000000000000000     
   5.3124999999999999E-002  0.95937499999999998        0.0000000000000000     
   4.2187500000000003E-002  0.95781249999999996        0.0000000000000000     
   7.8125000000000000E-002  0.96875000000000000        0.0000000000000000     
   9.3750000000000000E-002  0.96875000000000000        0.0000000000000000     
   9.3750000000000000E-002  0.98437500000000000        0.0000000000000000     
   7.1874999999999994E-002  0.97812500000000002        0.0000000000000000     
   8.2812499999999997E-002  0.97968750000000004        0.0000000000000000     
   8.4375000000000006E-002  0.99062499999999998        0.0000000000000000     
   7.3437500000000003E-002  0.98906249999999996        0.0000000000000000     
  0.10937500000000000       0.96875000000000000        0.0000000000000000     
  0.12500000000000000       0.96875000000000000        0.0000000000000000     
  0.12500000000000000       0.98437500000000000        0.0000000000000000     
  0.10312499999999999       0.97812500000000002        0.0000000000000000     
  0.11406250000000000       0.97968750000000004        0.0000000000000000     
  0.11562500000000001       0.99062499999999998        0.0000000000000000     
  0.10468750000000000       0.98906249999999996        0.0000000000000000     
   7.8125000000000000E-002  0.93750000000000000        0.0000000000000000     
   9.3750000000000000E-002  0.93750000000000000        0.0000000000000000     
   9.3750000000000000E-002  0.95312500000000000        0.0000000000000000     
   7.1874999999999994E-002  0.94687500000000002        0.0000000000000000     
   8.2812499999999997E-002  0.94843750000000004        0.0000000000000000     
   8.4375000000000006E-002  0.95937499999999998        0.0000000000000000     
   7.3437500000000003E-002  0.95781249999999996        0.0000000000000000     
  0.10937500000000000       0.93750000000000000        0.0000000000000000     
  0.12500000000000000       0.93750000000000000        0.0000000000000000     
  0.12500000000000000       0.95312500000000000        0.0000000000000000     
  0.10312499999999999       0.94687500000000002        0.0000000000000000     
  0.11406250000000000       0.94843750000000004        0.0000000000000000     
  0.11562500000000001       0.95937499999999998        0.0000000000000000     
  0.10468750000000000       0.95781249999999996        0.0000000000000000     
   1.5625000000000000E-002  0.90625000000000000        0.0000000000000000     
   3.1250000000000000E-002  0.90625000000000000        0.0000000000000000     
   3.1250000000000000E-002  0.92187500000000000        0.0000000000000000     
   9.3749999999999997E-003  0.91562500000000002        0.0000000000000000     
   2.0312500000000001E-002  0.91718750000000004        0.0000000000000000     
   2.1874999999999999E-002  0.92812499999999998        0.0000000000000000     
   1.0937499999999999E-002  0.92656249999999996        0.0000000000000000     
   4.6875000000000000E-002  0.90625000000000000        0.0000000000000000     
   6.2500000000000000E-002  0.90625000000000000        0.0000000000000000     
   6.2500000000000000E-002  0.92187500000000000        0.0000000000000000     
   4.0625000000000001E-002  0.91562500000000002        0.0000000000000000     
   5.1562499999999997E-002  0.91718750000000004        0.0000000000000000     
   5.3124999999999999E-002  0.92812499999999998        0.0000000000000000     
   4.2187500000000003E-002  0.92656249999999996        0.0000000000000000     
   1.5625000000000000E-002  0.87500000000000000        0.0000000000000000     
   3.1250000000000000E-002  0.87500000000000000        0.0000000000000000     
   3.1250000000000000E-002  0.89062500000000000        0.0000000000000000     
   9.3749999999999997E-003  0.88437500000000002        0.0000000000000000     
   2.0312500000000001E-002  0.88593750000000004        0.0000000000000000     
   2.1874999999999999E-002  0.89687499999999998        0.0000000000000000     
   1.0937499999999999E-002  0.89531249999999996        0.0000000000000000     
   4.6875000000000000E-002  0.87500000000000000        0.0000000000000000     
   6.2500000000000000E-002  0.87500000000000000        0.0000000000000000     
   6.2500000000000000E-002  0.89062500000000000        0.0000000000000000     
   4.0625000000000001E-002  0.88437500000000002        0.0000000000000000     
   5.1562499999999997E-002  0.88593750000000004        0.0000000000000000     
   5.3124999999999999E-002  0.89687499999999998        0.0000000000000000     
   4.2187500000000003E-002  0.89531249999999996        0.0000000000000000     
   7.8125000000000000E-002  0.90625000000000000        0.0000000000000000     
   9.3750000000000000E-002  0.90625000000000000        0.0000000000000000     
   9.3750000000000000E-002  0.92187500000000000        0.0000000000000000     
   7.1874999999999994E-002  0.91562500000000002        0.0000000000000000     
   8.2812499999999997E-002  0.91718750000000004        0.0000000000000000     
   8.4375000000000006E-002  0.92812499999999998        0.0000000000000000     
   7.3437500000000003E-002  0.92656249999999996        0.0000000000000000     
  0.10937500000000000       0.90625000000000000        0.0000000000000000     
  0.12500000000000000       0.90625000000000000        0.0000000000000000     
  0.12500000000000000       0.92187500000000000        0.0000000000000000     
  0.10312499999999999       0.91562500000000002        0.0000000000000000     
  0.11406250000000000       0.91718750000000004        0.0000000000000000     
  0.11562500000000001       0.92812499999999998        0.0000000000000000     
  0.10468750000000000       0.92656249999999996        0.0000000000000000     
   7.8125000000000000E-002  0.87500000000000000        0.0000000000000000     
   9.3750000000000000E-002  0.87500000000000000        0.0000000000000000     
   9.3750000000000000E-002  0.89062500000000000        0.0000000000000000     
   7.1874999999999994E-002  0.88437500000000002        0.0000000000000000     
   8.2812499999999997E-002  0.88593750000000004        0.0000000000000000     
   8.4375000000000006E-002  0.89687499999999998        0.0000000000000000     
   7.3437500000000003E-002  0.89531249999999996        0.0000000000000000     
  0.10937500000000000       0.87500000000000000        0.0000000000000000     
  0.12500000000000000       0.87500000000000000        0.0000000000000000     
  0.12500000000000000       0.89062500000000000        0.0000000000000000     
  0.10312499999999999       0.88437500000000002        0.0000000000000000     
  0.11406250000000000       0.88593750000000004        0.0000000000000000     
  0.11562500000000001       0.89687499999999998        0.0000000000000000     
  0.10468750000000000       0.89531249999999996        0.0000000000000000     
  0.14062500000000000       0.96875000000000000        0.0000000000000000     
  0.15625000000000000       0.96875000000000000        0.0000000000000000     
  0.15625000000000000       0.98437500000000000        0.0000000000000000     
  0.13437499999999999       0.97812500000000002        0.0000000000000000     
  0.14531250000000001       0.97968750000000004        0.0000000000000000     
  0.14687500000000001       0.99062499999999998        0.0000000000000000     
  0.13593749999999999       0.98906249999999996        0.0000000000000000     
  0.17187500000000000       0.96875000000000000        0.0000000000000000     
  0.18750000000000000       0.96875000000000000        0.0000000000000000     
  0.18750000000000000       0.98437500000000000        0.0000000000000000     
  0.16562499999999999       0.97812500000000002        0.0000000000000000     
  0.17656250000000001       0.97968750000000004        0.0000000000000000     
[...]
 CELL_DATA       14336
 SCALARS Nutrient float
 LOOKUP_TABLE default
    0.72320017048856169439E-02
    0.72319186335287272485E-02
    0.72325704884023053753E-02
    0.72325704883057315847E-02
    0.72319186339156616566E-02
    0.72320017045521779384E-02
    0.72314850974019330432E-02
    0.72311791802131090978E-02
    0.72308489024496894193E-02
    0.72308489002306328836E-02
    0.72311791813551877170E-02
    0.72314850969266422295E-02
    0.72314371166449283729E-02
    0.72314371162844268137E-02
    0.72341447670267334386E-02
    0.72347156628891793814E-02
    0.72362648074205159279E-02
    0.72366939821449467393E-02
    0.72355325014043011395E-02
    0.72360887701705556979E-02
    0.72348715572464108309E-02
    0.72338588028345003969E-02
    0.72327892553738868525E-02
    0.72324070872973522314E-02
    0.72330725148083453713E-02
    0.72329905286576991197E-02
    0.72340345806172620322E-02
    0.72342633764430931687E-02
    0.72360887702298112498E-02
    0.72355325013440125598E-02
    0.72366939821686508683E-02
    0.72362648073948949295E-02
    0.72347156629831380764E-02
    0.72341447669078884006E-02
    0.72329905288940794794E-02
    0.72330725145767884102E-02
    0.72324070875963326899E-02
    0.72327892550884164205E-02
    0.72338588029817922978E-02
    0.72348715571952347536E-02
    0.72342633765153175132E-02
    0.72340345805821486269E-02
    0.72389633768947274015E-02
    0.72392127708151548376E-02
    0.72416342912709277813E-02
    0.72416342912622133979E-02
    0.72392127708418053944E-02
    0.72389633768636437589E-02
    0.72368167393707782259E-02
    0.72362045725574471872E-02
    0.72346079297277883502E-02
    0.72346079296119114241E-02
    0.72362045726299751083E-02
    0.72368167393220576497E-02
    0.72375217672338513358E-02
    0.72375217672130598076E-02
    0.72398698976199734809E-02
    0.72414121871571682579E-02
    0.72444329455380899671E-02
    0.72455579500985333938E-02
    0.72435596183813757282E-02
    0.72449115353335185458E-02
    0.72425253902558793528E-02
    0.72403107940163351219E-02
    0.72380200646274765047E-02
    0.72370521371714563799E-02
    0.72382743804622643943E-02
    0.72376866606946093849E-02
    0.72403573546796044791E-02
    0.72409660712504687885E-02
    0.72513179202677146423E-02
    0.72544250894000785954E-02
    0.72597612699889070911E-02
    0.72619300123079617154E-02
    0.72585614358176937452E-02
    0.72610599757334595705E-02
    0.72568425824997302015E-02
    0.72528320208045116146E-02
    0.72486620625591873315E-02
    0.72467673782397072288E-02
    0.72489099735319958984E-02
    0.72474949081004951326E-02
    0.72527517011301200975E-02
    0.72539314611712070457E-02
    0.72464681340280610519E-02
    0.72476730693324829466E-02
    0.72519195130894891985E-02
    0.72524854843351773542E-02
    0.72487102165534793644E-02
    0.72489263429993651758E-02
    0.72452030286889231719E-02
    0.72435590285021174417E-02
    0.72405124265740514189E-02
    0.72400534087822621468E-02
    0.72426049749251854293E-02
    0.72428906049715763987E-02
    0.72452250206879115560E-02
    0.72455162762117258229E-02
    0.72606761014120347816E-02
    0.72634474465746558594E-02
    0.72707556937410301734E-02
    0.72722670704650164281E-02
    0.72662249888171669826E-02
    0.72671884355389087043E-02
    0.72609061454861380247E-02
    0.72575994245557785486E-02
    0.72522279039163375924E-02
    0.72510121222605274788E-02
    0.72550525420565347562E-02
    0.72548258602139854487E-02
    0.72597793106789435674E-02
    0.72605580509170920128E-02
    0.72449115353633705347E-02
    0.72435596183867230133E-02
    0.72455579501181296975E-02
    0.72444329455460696951E-02
    0.72414121871860878329E-02
    0.72398698975992634846E-02
    0.72376866607485948468E-02
    0.72382743804294616408E-02
    0.72370521372279667319E-02
    0.72380200645966452644E-02
    0.72403107940528016115E-02
    0.72425253902682236451E-02
    0.72409660712743463898E-02
    0.72403573546873829792E-02
    0.72489263430183309075E-02
    0.72487102165582012817E-02
    0.72524854843506762411E-02
    0.72519195130984134834E-02
    0.72476730693470945224E-02
    0.72464681340205045965E-02
    0.72428906049890077676E-02
    0.72426049749083039678E-02
    0.72400534088153025575E-02
    0.72405124265572063866E-02
    0.72435590285245474163E-02
    0.72452030286907134066E-02
    0.72455162762262896939E-02
    0.72452250206913905439E-02
    0.72610599757922502165E-02
    0.72585614358642424476E-02
    0.72619300123601196462E-02
    0.72597612700327687069E-02
    0.72544250894388505324E-02
    0.72513179202873066093E-02
    0.72474949081270693615E-02
    0.72489099735517413883E-02
    0.72467673782694499302E-02
    0.72486620625834439699E-02
    0.72528320208489344134E-02
    0.72568425825538388288E-02
    0.72539314612128690321E-02
    0.72527517011640634317E-02
    0.72671884355925923243E-02
    0.72662249888637833392E-02
    0.72722670705228937421E-02
    0.72707556937924820717E-02
    0.72634474466135570334E-02
    0.72606761014340354121E-02
    0.72548258602337135914E-02
    0.72550525420743998059E-02
    0.72510121222856263254E-02
    0.72522279039368506975E-02
    0.72575994245932511778E-02
    0.72609061455283091524E-02
    0.72605580509556479768E-02
    0.72597793107122519929E-02
    0.72593842623034157691E-02
    0.72603205402105158717E-02
    0.72666176392799791683E-02
    0.72666176392762078795E-02
    0.72603205402088071690E-02
    0.72593842622912249998E-02
    0.72536444841073905235E-02
    0.72523144257692281900E-02
    0.72479092332024186093E-02
    0.72479092331946054148E-02
    0.72523144257799244949E-02
    0.72536444841150102963E-02
    0.72559530680309470771E-02
    0.72559530680279616180E-02
    0.72788402013747709879E-02
    0.72816117343714684834E-02
    0.72922115136773747734E-02
    0.72931989354245952903E-02
    0.72833312980598976030E-02
    0.72828061379718441945E-02
    0.72733035479646849716E-02
    0.72702342479434266254E-02
    0.72627158538465441326E-02
    0.72620454092767921031E-02
    0.72687569042228792129E-02
    0.72697724160236841182E-02
    0.72751869654966057344E-02
    0.72756549522614922046E-02
    0.72828061380343402098E-02
    0.72833312981119193580E-02
    0.72931989354854823496E-02
    0.72922115137260372364E-02
    0.72816117344059183569E-02
    0.72788402013919889857E-02
    0.72697724160308788838E-02
    0.72687569042397103675E-02
    0.72620454092957456918E-02
    0.72627158538686358361E-02
    0.72702342479839957359E-02
    0.72733035480197234107E-02
    0.72756549523007195066E-02
    0.72751869655291448100E-02
    0.73112540942201426422E-02
    0.73138853833931522994E-02
    0.73298662063727270527E-02
    0.73298662063614565543E-02
    0.73138853833738370208E-02
    0.73112540941746607948E-02
    0.72967342431136117398E-02
    0.72936103782374767796E-02
    0.72825328978612085401E-02
    0.72825328978693695467E-02
    0.72936103782581486119E-02
    0.72967342431613175027E-02
    0.73028756111363302486E-02
    0.73028756111304000964E-02
    0.72718638700000684527E-02
    0.72774501062077010319E-02
    0.72866946312926611853E-02
    0.72905770152390317329E-02
    0.72848240966230416726E-02
    0.72892341995547385233E-02
    0.72819553676613003879E-02
    0.72749460561525409671E-02
    0.72676887782022938506E-02
    0.72643325366246380356E-02
    0.72679852190272609819E-02
    0.72653516391846684891E-02
    0.72746820923804194833E-02
    0.72767807632189004594E-02
    0.73078402024500093564E-02
    0.73176040290440424671E-02
    0.73336906873898537185E-02
    0.73403903635941257499E-02
    0.73303455087077844937E-02
    0.73378490863274447795E-02
    0.73253217983973908239E-02
    0.73132576204053903468E-02
    0.73007095322546030833E-02
    0.72949021990353904096E-02
    0.73011932607064391684E-02
    0.72965522278938838713E-02
    0.73128107395763891629E-02
    0.73164443889365826657E-02
    0.72862542580482379806E-02
    0.72916839250991363763E-02
    0.73043688901920731521E-02
    0.73074808837189902250E-02
    0.72973231195351045617E-02
    0.72994026222681258897E-02
    0.72885715562092277461E-02
    0.72825753742565913287E-02
    0.72732801959849114823E-02
    0.72708916259684496300E-02
    0.72775000630832704929E-02
    0.72764531178976400022E-02
    0.72858103002576253895E-02
    0.72873784041037779555E-02
    0.73317799223292980798E-02
    0.73418068195021312858E-02
    0.73640879022923043037E-02
    0.73698226726239528944E-02
    0.73521181449775728500E-02
    0.73558344539191604025E-02
    0.73369648646780258675E-02
    0.73264177738876995818E-02
    0.73102389309105857487E-02
    0.73059151171596444646E-02
    0.73171975844782593049E-02
    0.73149046415432687068E-02
    0.73317922753277468828E-02
    0.73346507081118216334E-02
    0.73703004219851722678E-02
    0.73868987046585990811E-02
    0.74145752655849156768E-02
    0.74255849918692289416E-02
    0.74080695738662008520E-02
    0.74203244685213838594E-02
    0.73991384508328185421E-02
    0.73788106834445704382E-02
    0.73574686481814909403E-02
    0.73475774758115638616E-02
    0.73584939807819884153E-02
    0.73506992036933274312E-02
    0.73783677957200968431E-02
    0.73844433952335499644E-02
    0.74769571373132911671E-02
    0.75039605014336780570E-02
    0.75507922945423034886E-02
    0.75677781807363649416E-02
    0.75374133256419385135E-02
    0.75563290985070823494E-02
    0.75215325467638425791E-02
    0.74883571028279520554E-02
    0.74529058891305245346E-02
    0.74366046122232194737E-02
    0.74553993006354459319E-02
    0.74430300968744231987E-02
    0.74886181857955038191E-02
    0.74983438875405872270E-02
    0.74127412202627702975E-02
    0.74304826045805561635E-02
    0.74699879782183830138E-02
    0.74797345535278138978E-02
    0.74479871935172982031E-02
    0.74535740684199712144E-02
    0.74205793546615822845E-02
    0.74027399375310729349E-02
    0.73745802508534642403E-02
    0.73671848244967787223E-02
    0.73870083870660645589E-02
    0.73829563637610581481E-02
    0.74126248841203373069E-02
    0.74174923632489321579E-02
    0.75559597831454591854E-02
    0.75858899209804786859E-02
    0.76556793512626069784E-02
    0.76705857129817714424E-02
    0.76130422357644058143E-02
    0.76194787338223031112E-02
    0.75621415417029868092E-02
    0.75334545487106422193E-02
    0.74849474971286330052E-02
    0.74730646940218302052E-02
    0.75085655209876219982E-02
    0.75027502543665580692E-02
    0.75529749331634983556E-02
    0.75605960223681751772E-02
    0.73136235632570373646E-02
    0.73196326297638204805E-02
    0.73377639132106023748E-02
    0.73405490869546839369E-02
    0.73243790999824327087E-02
    0.73245934352785223298E-02
    0.73084016904741578441E-02
    0.73022988495676250525E-02
    0.72893641032391112700E-02
    0.72875678250249051673E-02
    0.72983175747333931677E-02
    0.72988229038937809529E-02
    0.73095965842030962908E-02
    0.73108721478037739377E-02
    0.73756904906653241935E-02
    0.73877158335699079708E-02
    0.74196710875893785372E-02
    0.74258227504574100819E-02
    0.73980014432978441485E-02
    0.73993474683105115927E-02
    0.73709552367135812434E-02
    0.73595722464917297939E-02
    0.73368649554771802473E-02
    0.73330973795851083635E-02
    0.73511129563935684317E-02
    0.73506090885895247408E-02
    0.73711865255589193585E-02
    0.73739301187036865315E-02
    0.73605726532479662585E-02
    0.73672355471430242199E-02
    0.73937108026091219112E-02
    0.73958912967650031201E-02
    0.73708079272601177007E-02
    0.73687637518213148016E-02
    0.73446625869058963440E-02
    0.73377593387695810856E-02
    0.73190645794054187342E-02
    0.73178090091911979220E-02
    0.73348907835837796193E-02
    0.73377641659361945645E-02
    0.73508512608546862019E-02
    0.73517935351865371443E-02
    0.74469910293394657799E-02
    0.74618162468886939723E-02
    0.75074675858242800180E-02
    0.75145101378949899842E-02
    0.74730689062750370322E-02
    0.74726517655797951648E-02
    0.74308764349739382660E-02
    0.74167223005516492648E-02
    0.73841968700788414293E-02
    0.73804778031088544635E-02
    0.74079983781985747279E-02
    0.74098449223049464574E-02
    0.74361864330721675481E-02
    0.74391100678812974514E-02
    0.74882466988269932862E-02
    0.75112460572822814173E-02
    0.75689459190350959553E-02
    0.75808072222726900075E-02
    0.75308364793878574892E-02
    0.75332511186313776477E-02
    0.74824046944503000076E-02
    0.74620709862262745923E-02
    0.74216408672332246504E-02
    0.74145882793684456460E-02
    0.74461149338982844312E-02
    0.74440445010024560227E-02
    0.74822468334295438169E-02
    0.74874501027402499964E-02
    0.76943116561348778859E-02
    0.77362979060502318554E-02
    0.78418562583002712763E-02
    0.78622051028318651333E-02
    0.77697407566873063697E-02
    0.77710218163601742572E-02
    0.76791535869070214407E-02
    0.76447674644342343553E-02
    0.75724311690791917470E-02
    0.75604751409137265286E-02
    0.76176433899842804429E-02
    0.76140022721447797246E-02
    0.76828753671305469175E-02
    0.76917442799670568410E-02
    0.76038603830836581574E-02
    0.76352010315496980641E-02
    0.77177141373519012046E-02
    0.77344089921258908985E-02
    0.76615865628532750162E-02
    0.76638665241051794758E-02
    0.75885331209191711141E-02
    0.75610201180725082615E-02
    0.75024939699709644950E-02
    0.74940649436162146135E-02
    0.75409088665597994242E-02
    0.75400435656037380697E-02
    0.75924268993287418947E-02
    0.75992358203230145688E-02
    0.78977246988559245827E-02
    0.79605343379782304847E-02
    0.81146502366557359681E-02
    0.81484872221478377163E-02
    0.80135042057776165875E-02
    0.80178632868674586803E-02
    0.78784145573196212586E-02
    0.78275976501855498713E-02
    0.77200021976785524608E-02
    0.77034698248851680991E-02
    0.77877565034257141552E-02
    0.77822498901783812922E-02
    0.78836834272222756220E-02
    0.78972797107996050431E-02
    0.72892341996964931869E-02
    0.72848240967466970988E-02
    0.72905770153734606592E-02
    0.72866946314120812841E-02
    0.72774501063053330038E-02
    0.72718638700745670198E-02
    0.72653516392443846100E-02
    0.72679852190995859404E-02
    0.72643325366931752254E-02
    0.72676887782809913158E-02
    0.72749460562574570430E-02
    0.72819553677946702655E-02
    0.72767807633221520680E-02
    0.72746820924746522646E-02
    0.72994026224123247787E-02
    0.72973231196713098448E-02
    0.73074808838804452757E-02
    0.73043688903433644580E-02
    0.72916839252144486500E-02
    0.72862542581374079714E-02
    0.72764531179630642307E-02
    0.72775000631600883852E-02
    0.72708916260348236196E-02
    0.72732801960609487490E-02
    0.72825753743589512895E-02
    0.72885715563304215997E-02
    0.72873784042142807083E-02
    0.72858103003610036330E-02
    0.73378490866403854251E-02
    0.73303455089877905468E-02
    0.73403903638992436601E-02
    0.73336906876666817581E-02
    0.73176040292725168246E-02
    0.73078402026369587707E-02
    0.72965522280429746804E-02
    0.73011932608835474964E-02
    0.72949021991983017607E-02
    0.73007095324413417287E-02
    0.73132576206415616724E-02
    0.73253217986900352049E-02
    0.73164443891730350164E-02
    0.73128107397962731698E-02
    0.73558344542540366265E-02
    0.73521181453018299642E-02
    0.73698226730047524530E-02
    0.73640879026565832233E-02
    0.73418068197866215990E-02
    0.73317799225660548745E-02
    0.73149046417227163094E-02
    0.73171975846794638093E-02
    0.73059151173299865037E-02
    0.73102389311018893189E-02
    0.73264177741332618329E-02
    0.73369648649621709707E-02
    0.73346507083793220649E-02
    0.73317922755828371026E-02
    0.73245934354661248675E-02
    0.73243791001565252199E-02
    0.73405490871588244609E-02
    0.73377639133946660766E-02
    0.73196326299038057261E-02
    0.73136235633648035911E-02
    0.72988229039662576997E-02
    0.72983175748258209692E-02
    0.72875678251035488561E-02
    0.72893641033312979449E-02
    0.73022988496976078826E-02
    0.73084016906361983640E-02
    0.73108721479419576730E-02
    0.73095965843306583143E-02
    0.73687637520335061772E-02
    0.73708079274331659084E-02
    0.73958912969545199251E-02
    0.73937108027569255556E-02
    0.73672355472484737232E-02
    0.73605726533009108864E-02
    0.73377641659601216054E-02
    0.73348907836518718525E-02
    0.73178090092590863253E-02
    0.73190645795045789976E-02
    0.73377593389074942040E-02
    0.73446625870960463231E-02
    0.73517935353167663051E-02
    0.73508512609643536853E-02
    0.73993474687671844867E-02
    0.73980014437357568755E-02
    0.74258227509753447354E-02
    0.74196710880694268300E-02
    0.73877158339487871905E-02
    0.73756904909827959368E-02
    0.73506090888225440738E-02
    0.73511129566583687661E-02
    0.73330973798067002056E-02
    0.73368649557246732457E-02
    0.73595722468205743844E-02
    0.73709552371028653345E-02
    0.73739301190621428517E-02
    0.73711865258988080660E-02
    0.74726517661604452761E-02
    0.74730689068018083671E-02
    0.75145101384900955463E-02
    0.75074675863557246980E-02
    0.74618162472987973471E-02
    0.74469910296541706393E-02
    0.74098449225277109725E-02
    0.74079983784907229780E-02
    0.73804778033683361357E-02
    0.73841968703934170518E-02
    0.74167223009607300202E-02
    0.74308764354806986982E-02
    0.74391100683038266506E-02
    0.74361864334606102983E-02
    0.74203244691656289334E-02
    0.74080695744523847313E-02
    0.74255849925075542717E-02
    0.74145752661754042723E-02
    0.73868987051485101442E-02
    0.73703004223993348956E-02
    0.73506992040281394704E-02
    0.73584939811681734229E-02
    0.73475774761654951556E-02
    0.73574686485818529755E-02
    0.73788106839390030581E-02
    0.73991384514331568975E-02
    0.73844433957328866475E-02
    0.73783677961892103064E-02
    0.74535740691360078194E-02
    0.74479871942168219753E-02
    0.74797345543519194386E-02
    0.74699879790090560963E-02
    0.74304826052109061024E-02
    0.74127412208041245853E-02
    0.73829563641818691036E-02
    0.73870083875222187705E-02
    0.73671848248840626772E-02
    0.73745802512779432686E-02
    0.74027399380657710887E-02
    0.74205793552679678859E-02
    0.74174923638343874532E-02
    0.74126248846836427855E-02
    0.75563290997597773457E-02
    0.75374133268058807200E-02
    0.75677781820222226467E-02
    0.75507922957340871395E-02
    0.75039605024275080752E-02
    0.74769571381672781871E-02
    0.74430300975742097816E-02
    0.74553993014238508635E-02
    0.74366046129450682697E-02
    0.74529058899372386052E-02
    0.74883571038074992279E-02
    0.75215325479306332015E-02
    0.74983438885388477291E-02
    0.74886181867403669304E-02
    0.76194787352520335771E-02
    0.76130422371922697178E-02
    0.76705857146742439934E-02
    0.76556793528943520646E-02
    0.75858899222889493788E-02
    0.75559597842945218013E-02
    0.75027502552671449659E-02
    0.75085655219467800983E-02
    0.74730646948342246277E-02
    0.74849474980100937083E-02
    0.75334545498049552276E-02
    0.75621415429266399325E-02
    0.75605960235722285273E-02
    0.75529749343301406592E-02
    0.75332511196294820247E-02
    0.75308364803669527662E-02
    0.75808072234279022181E-02
    0.75689459201329842286E-02
    0.75112460581582829455E-02
    0.74882466995917712840E-02
    0.74440445015797199538E-02
    0.74461149345260036619E-02
    0.74145882798918394743E-02
    0.74216408678039590824E-02
    0.74620709869634028327E-02
    0.74824046953004532887E-02
    0.74874501035527918705E-02
    0.74822468342108745462E-02
    0.76638665254580348035E-02
    0.76615865641250649812E-02
    0.77344089935929101129E-02
    0.77177141387000328804E-02
    0.76352010326251823838E-02
    0.76038603839778656085E-02
    0.75400435662830332315E-02
    0.75409088673430661048E-02
    0.74940649442982688530E-02
    0.75024939707431601704E-02
    0.75610201190564729073E-02
    0.75885331220784850784E-02