# vtk DataFile Version 3.0
LAPLACIEN  2D
ASCII
DATASET UNSTRUCTURED_GRID
FIELD FieldData 1
TIME 1 1 double
7.0000
 POINTS        7297  float
   1.5625000000000000E-002  0.96875000000000000        0.0000000000000000     
   3.1250000000000000E-002  0.96875000000000000        0.0000000000000000     
   3.1250000000000000E-002  0.98437500000000000        0.0000000000000000     
   9.3749999999999997E-003  0.97812500000000002        0.0000000000000000     
   2.0312500000000001E-002  0.97968750000000004        0.0000000000000000     
   2.1874999999999999E-002  0.99062499999999998        0.0000000000000000     
   1.0937499999999999E-002  0.98906249999999996        0.0000000000000000     
   4.6875000000000000E-002  0.96875000000000000        0.0000000000000000     
   6.2500000000000000E-002  0.96875000000000000        0.0000000000000000     
   6.2500000000000000E-002  0.98437500000000000        0.0000000000000000     
   4.0625000000000001E-002  0.97812500000000002        0.0000000000000000     
   5.1562499999999997E-002  0.97968750000000004        0.0000000000000000     
   5.3124999999999999E-002  0.99062499999999998        0.0000000000000000     
   4.2187500000000003E-002  0.98906249999999996        0.0000000000000000     
   1.5625000000000000E-002  0.93750000000000000        0.0000000000000000     
   3.1250000000000000E-002  0.93750000000000000        0.0000000000000000     
   3.1250000000000000E-002  0.95312500000000000        0.0000000000000000     
   9.3749999999999997E-003  0.94687500000000002        0.0000000000000000     
   2.0312500000000001E-002  0.94843750000000004        0.0000000000000000     
   2.1874999999999999E-002  0.95937499999999998        0.0000000000000000     
   1.0937499999999999E-002  0.95781249999999996        0.0000000000000000     
   4.6875000000000000E-002  0.93750000000000000        0.0000000000000000     
   6.2500000000000000E-002  0.93750000000000000        0.0000000000000000     
   6.2500000000000000E-002  0.95312500000000000        0.0000000000000000     
   4.0625000000000001E-002  0.94687500000000002        0.0000000000000000     
   5.1562499999999997E-002  0.94843750000000004        0.0000000000000000     
   5.3124999999999999E-002  0.95937499999999998        0.0000000000000000     
   4.2187500000000003E-002  0.95781249999999996        0.0000000000000000     
   7.8125000000000000E-002  0.96875000000000000        0.0000000000000000     
   9.3750000000000000E-002  0.96875000000000000        0.0000000000000000     
   9.3750000000000000E-002  0.98437500000000000        0.0000000000000000     
   7.1874999999999994E-002  0.97812500000000002        0.0000000000000000     
   8.2812499999999997E-002  0.97968750000000004        0.0000000000000000     
   8.4375000000000006E-002  0.99062499999999998        0.0000000000000000     
   7.3437500000000003E-002  0.98906249999999996        0.0000000000000000     
  0.10937500000000000       0.96875000000000000        0.0000000000000000     
  0.12500000000000000       0.96875000000000000        0.0000000000000000     
  0.12500000000000000       0.98437500000000000        0.0000000000000000     
  0.10312499999999999       0.97812500000000002        0.0000000000000000     
  0.11406250000000000       0.97968750000000004        0.0000000000000000     
  0.11562500000000001       0.99062499999999998        0.0000000000000000     
  0.10468750000000000       0.98906249999999996        0.0000000000000000     
   7.8125000000000000E-002  0.93750000000000000        0.0000000000000000     
   9.3750000000000000E-002  0.93750000000000000        0.0000000000000000     
   9.3750000000000000E-002  0.95312500000000000        0.0000000000000000     
   7.1874999999999994E-002  0.94687500000000002        0.0000000000000000     
   8.2812499999999997E-002  0.94843750000000004        0.0000000000000000     
   8.4375000000000006E-002  0.95937499999999998        0.0000000000000000     
   7.3437500000000003E-002  0.95781249999999996        0.0000000000000000     
  0.10937500000000000       0.93750000000000000        0.0000000000000000     
  0.12500000000000000       0.93750000000000000        0.0000000000000000     
  0.12500000000000000       0.95312500000000000        0.0000000000000000     
  0.10312499999999999       0.94687500000000002        0.0000000000000000     
  0.11406250000000000       0.94843750000000004        0.0000000000000000     
  0.11562500000000001       0.95937499999999998        0.0000000000000000     
  0.10468750000000000       0.95781249999999996        0.0000000000000000     
   1.5625000000000000E-002  0.90625000000000000        0.0000000000000000     
   3.1250000000000000E-002  0.90625000000000000        0.0000000000000000     
   3.1250000000000000E-002  0.92187500000000000        0.0000000000000000     
   9.3749999999999997E-003  0.91562500000000002        0.0000000000000000     
   2.0312500000000001E-002  0.91718750000000004        0.0000000000000000     
   2.1874999999999999E-002  0.92812499999999998        0.0000000000000000     
   1.0937499999999999E-002  0.92656249999999996        0.0000000000000000     
   4.6875000000000000E-002  0.90625000000000000        0.0000000000000000     
   6.2500000000000000E-002  0.90625000000000000        0.0000000000000000     
   6.2500000000000000E-002  0.92187500000000000        0.0000000000000000     
   4.0625000000000001E-002  0.91562500000000002        0.0000000000000000     
   5.1562499999999997E-002  0.91718750000000004        0.0000000000000000     
   5.3124999999999999E-002  0.92812499999999998        0.0000000000000000     
   4.2187500000000003E-002  0.92656249999999996        0.0000000000000000     
   1.5625000000000000E-002  0.87500000000000000        0.0000000000000000     
   3.1250000000000000E-002  0.87500000000000000        0.0000000000000000     
   3.1250000000000000E-002  0.89062500000000000        0.0000000000000000     
   9.3749999999999997E-003  0.88437500000000002        0.0000000000000000     
   2.0312500000000001E-002  0.88593750000000004        0.0000000000000000     
   2.1874999999999999E-002  0.89687499999999998        0.0000000000000000     
   1.0937499999999999E-002  0.89531249999999996        0.0000000000000000     
   4.6875000000000000E-002  0.87500000000000000        0.0000000000000000     
   6.2500000000000000E-002  0.87500000000000000        0.0000000000000000     
   6.2500000000000000E-002  0.89062500000000000        0.0000000000000000     
   4.0625000000000001E-002  0.88437500000000002        0.0000000000000000     
   5.1562499999999997E-002  0.88593750000000004        0.0000000000000000     
   5.3124999999999999E-002  0.89687499999999998        0.0000000000000000     
   4.2187500000000003E-002  0.89531249999999996        0.0000000000000000     
   7.8125000000000000E-002  0.90625000000000000        0.0000000000000000     
   9.3750000000000000E-002  0.90625000000000000        0.0000000000000000     
   9.3750000000000000E-002  0.92187500000000000        0.0000000000000000     
   7.1874999999999994E-002  0.91562500000000002        0.0000000000000000     
   8.2812499999999997E-002  0.91718750000000004        0.0000000000000000     
   8.4375000000000006E-002  0.92812499999999998        0.0000000000000000     
   7.3437500000000003E-002  0.92656249999999996        0.0000000000000000     
  0.10937500000000000       0.90625000000000000        0.0000000000000000     
  0.12500000000000000       0.90625000000000000        0.0000000000000000     
  0.12500000000000000       0.92187500000000000        0.0000000000000000     
  0.10312499999999999       0.91562500000000002        0.0000000000000000     
  0.11406250000000000       0.91718750000000004        0.0000000000000000     
  0.11562500000000001       0.92812499999999998        0.0000000000000000     
  0.10468750000000000       0.92656249999999996        0.0000000000000000     
   7.8125000000000000E-002  0.87500000000000000        0.0000000000000000     
   9.3750000000000000E-002  0.87500000000000000        0.0000000000000000     
   9.3750000000000000E-002  0.89062500000000000        0.0000000000000000     
   7.1874999999999994E-002  0.88437500000000002        0.0000000000000000     
   8.2812499999999997E-002  0.88593750000000004        0.0000000000000000     
   8.4375000000000006E-002  0.89687499999999998        0.0000000000000000     
   7.3437500000000003E-002  0.89531249999999996        0.0000000000000000     
  0.10937500000000000       0.87500000000000000        0.0000000000000000     
  0.12500000000000000       0.87500000000000000        0.0000000000000000     
  0.12500000000000000       0.89062500000000000        0.0000000000000000     
  0.10312499999999999       0.88437500000000002        0.0000000000000000     
  0.11406250000000000       0.88593750000000004        0.0000000000000000     
  0.11562500000000001       0.89687499999999998        0.0000000000000000     
  0.10468750000000000       0.89531249999999996        0.0000000000000000     
  0.14062500000000000       0.96875000000000000        0.0000000000000000     
  0.15625000000000000       0.96875000000000000        0.0000000000000000     
  0.15625000000000000       0.98437500000000000        0.0000000000000000     
  0.13437499999999999       0.97812500000000002        0.0000000000000000     
  0.14531250000000001       0.97968750000000004        0.0000000000000000     
  0.14687500000000001       0.99062499999999998        0.0000000000000000     
  0.13593749999999999       0.98906249999999996        0.0000000000000000     
  0.17187500000000000       0.96875000000000000        0.0000000000000000     
  0.18750000000000000       0.96875000000000000        0.0000000000000000     
  0.18750000000000000       0.98437500000000000        0.0000000000000000     
  0.16562499999999999       0.97812500000000002        0.0000000000000000     
  0.17656250000000001       0.97968750000000004        0.0000000000000000     
[...]
 CELL_DATA       14336
 SCALARS Nutrient float
 LOOKUP_TABLE default
    0.41358898053243560444E-02
    0.41358039494880875081E-02
    0.41364558769509248912E-02
    0.41364558768964033997E-02
    0.41358039497042609414E-02
    0.41358898051339059582E-02
    0.41353713209024908770E-02
    0.41350662319138368345E-02
    0.41347365012817331037E-02
    0.41347365000360932277E-02
    0.41350662325560965174E-02
    0.41353713206383176451E-02
    0.41353236805888871075E-02
    0.41353236803860892595E-02
    0.41380275256305927220E-02
    0.41385972292680992327E-02
    0.41401446815192760251E-02
    0.41405723054914753481E-02
    0.41394125283997339898E-02
    0.41399695614833531554E-02
    0.41387529024910904227E-02
    0.41377413862415668433E-02
    0.41366748724065887169E-02
    0.41362895183452812187E-02
    0.41369575508299833225E-02
    0.41368741522083323295E-02
    0.41379162012751173963E-02
    0.41381465615197661131E-02
    0.41399695615247592700E-02
    0.41394125283721518865E-02
    0.41405723055103387312E-02
    0.41401446815089023787E-02
    0.41385972293241672301E-02
    0.41380275255652873220E-02
    0.41368741523424680875E-02
    0.41369575507030431974E-02
    0.41362895185155399910E-02
    0.41366748722506691688E-02
    0.41377413863298694724E-02
    0.41387529024708514039E-02
    0.41381465615654726073E-02
    0.41379162012592628911E-02
    0.41428387043849395147E-02
    0.41430875890038033546E-02
    0.41455055986231240106E-02
    0.41455055986176379476E-02
    0.41430875890171676643E-02
    0.41428387043634601686E-02
    0.41406947223243395495E-02
    0.41400839537812754443E-02
    0.41384893868985934279E-02
    0.41384893868340452347E-02
    0.41400839538235228998E-02
    0.41406947223006067976E-02
    0.41413989536074405362E-02
    0.41413989535953798712E-02
    0.41437439493818553279E-02
    0.41452837898037402445E-02
    0.41483002800639006205E-02
    0.41494234867136209691E-02
    0.41474278716554097146E-02
    0.41487782488425209090E-02
    0.41463953607626417505E-02
    0.41441838131962369790E-02
    0.41418972124918186986E-02
    0.41409289690439903334E-02
    0.41421509870059672331E-02
    0.41415639689752386035E-02
    0.41442300508061644462E-02
    0.41448386497015821117E-02
    0.41551754214848527630E-02
    0.41582781813857723485E-02
    0.41636070158272463562E-02
    0.41657726322247021558E-02
    0.41624085766556878641E-02
    0.41649036358171560510E-02
    0.41606921672274919596E-02
    0.41566871639992291829E-02
    0.41525231537378063176E-02
    0.41506310936744719373E-02
    0.41527706992787452242E-02
    0.41513577991162805766E-02
    0.41566070068192097903E-02
    0.41577850537861497926E-02
    0.41503325605676977955E-02
    0.41515356602809597164E-02
    0.41557761340463329758E-02
    0.41563413341005918389E-02
    0.41525713460035798205E-02
    0.41527872506061519475E-02
    0.41490690373384361833E-02
    0.41474276082018313172E-02
    0.41443851014601879035E-02
    0.41439273180584428047E-02
    0.41464748088461747533E-02
    0.41467601749409456133E-02
    0.41490911990643645352E-02
    0.41493817416301597908E-02
    0.41645206755105707713E-02
    0.41672880800787646949E-02
    0.41745867065012135302E-02
    0.41760958468643203170E-02
    0.41700618663505382641E-02
    0.41710241552689918468E-02
    0.41647502938675457981E-02
    0.41614481695613492196E-02
    0.41560839604978614542E-02
    0.41548702061338111530E-02
    0.41589047167482785100E-02
    0.41586784270098908420E-02
    0.41636249712618802685E-02
    0.41644025137843763626E-02
    0.41487782488779986062E-02
    0.41474278716739148773E-02
    0.41494234867402524439E-02
    0.41483002800817214348E-02
    0.41452837898308687176E-02
    0.41437439493778507188E-02
    0.41415639690117189708E-02
    0.41421509869966300840E-02
    0.41409289690857659441E-02
    0.41418972124853828745E-02
    0.41441838132306799136E-02
    0.41463953607874942664E-02
    0.41448386497278649071E-02
    0.41442300508223971212E-02
    0.41527872506305464964E-02
    0.41525713460173804131E-02
    0.41563413341209080529E-02
    0.41557761340607615383E-02
    0.41515356602955426693E-02
    0.41503325605657236802E-02
    0.41467601749517425322E-02
    0.41464748088412637511E-02
    0.41439273180820922898E-02
    0.41443851014579050074E-02
    0.41474276082236897004E-02
    0.41490690373518620757E-02
    0.41493817416468651779E-02
    0.41490911990734249959E-02
    0.41649036358921594225E-02
    0.41624085767185334261E-02
    0.41657726322924509138E-02
    0.41636070158860534821E-02
    0.41582781814356092193E-02
    0.41551754215174490845E-02
    0.41513577991487068952E-02
    0.41527706993124760548E-02
    0.41506310937120130880E-02
    0.41525231537764793754E-02
    0.41566871640556163695E-02
    0.41606921672976884125E-02
    0.41577850538405212305E-02
    0.41566070068663673806E-02
    0.41710241553374761275E-02
    0.41700618664110627662E-02
    0.41760958469350389216E-02
    0.41745867065644181801E-02
    0.41672880801266482670E-02
    0.41645206755410854246E-02
    0.41586784270344475875E-02
    0.41589047167771304309E-02
    0.41548702061650092873E-02
    0.41560839605304916028E-02
    0.41614481696096352475E-02
    0.41647502939247413659E-02
    0.41644025138337179698E-02
    0.41636249713058477023E-02
    0.41632307151977399756E-02
    0.41641656201454480685E-02
    0.41704543633422760593E-02
    0.41704543633380650181E-02
    0.41641656201408996235E-02
    0.41632307151826825758E-02
    0.41574987813782033827E-02
    0.41561705765678072164E-02
    0.41517716551995337976E-02
    0.41517716551964798169E-02
    0.41561705765774470747E-02
    0.41574987813915598861E-02
    0.41598040906556084731E-02
    0.41598040906528667426E-02
    0.41826606062759725049E-02
    0.41854284820213635138E-02
    0.41960145215095227128E-02
    0.41970004911936562714E-02
    0.41871457307805842393E-02
    0.41866212341695133864E-02
    0.41771309716194153852E-02
    0.41740659295661213662E-02
    0.41665576541956468593E-02
    0.41658882696662168435E-02
    0.41725907059492698542E-02
    0.41736048861479952896E-02
    0.41790121422815660474E-02
    0.41794794017901547994E-02
    0.41866212342431506632E-02
    0.41871457308417939572E-02
    0.41970004912625239260E-02
    0.41960145215645524783E-02
    0.41854284820602117786E-02
    0.41826606062955878906E-02
    0.41736048861564104331E-02
    0.41725907059713233938E-02
    0.41658882696889261085E-02
    0.41665576542255274711E-02
    0.41740659296141142259E-02
    0.41771309716856193719E-02
    0.41794794018362342591E-02
    0.41790121423202026760E-02
    0.42150325848874098389E-02
    0.42176602234359934773E-02
    0.42336212245709398810E-02
    0.42336212245586988048E-02
    0.42176602234141533088E-02
    0.42150325848366154008E-02
    0.42005311831986979348E-02
    0.41974112432379981699E-02
    0.41863483138865247371E-02
    0.41863483138961845448E-02
    0.41974112432605356973E-02
    0.42005311832516972065E-02
    0.42066644045728246101E-02
    0.42066644045663150603E-02
    0.41756931895194160723E-02
    0.41812717167589285444E-02
    0.41905043759620985364E-02
    0.41943811892038362563E-02
    0.41886357614732954574E-02
    0.41930399572268914690E-02
    0.41857708001756055785E-02
    0.41787709540310399858E-02
    0.41715232485668553644E-02
    0.41681720681114829696E-02
    0.41718193303941150663E-02
    0.41691897690366288773E-02
    0.41785074361306556029E-02
    0.41806029506699891873E-02
    0.42116225843424606387E-02
    0.42213740937466319447E-02
    0.42374411166904287981E-02
    0.42441318700898586144E-02
    0.42340993824019328845E-02
    0.42415935021599187812E-02
    0.42290815262907496819E-02
    0.42170327592549747622E-02
    0.42045003986830213963E-02
    0.41987010271755647456E-02
    0.42049836114036410681E-02
    0.42003492066184080697E-02
    0.42165866685268662759E-02
    0.42202153328255746431E-02
    0.41900648196715557445E-02
    0.41954874830081546541E-02
    0.42081566443666479360E-02
    0.42112641083103460882E-02
    0.42011194384490640683E-02
    0.42031962135468201730E-02
    0.41923786011669270796E-02
    0.41863906856510549326E-02
    0.41771076280819998197E-02
    0.41747225219020325099E-02
    0.41813219571192571100E-02
    0.41802765961310934043E-02
    0.41896213956144649423E-02
    0.41911872863353754129E-02
    0.42355335885493885714E-02
    0.42455481004219156049E-02
    0.42678030730434060938E-02
    0.42735305772862389878E-02
    0.42558468361820148834E-02
    0.42595584470358060364E-02
    0.42407111352803766174E-02
    0.42301773858677855361E-02
    0.42140184494945786414E-02
    0.42097005190644002162E-02
    0.42209687361300070665E-02
    0.42186791735234555056E-02
    0.42355456500314091900E-02
    0.42384003332522866836E-02
    0.42740065653647154459E-02
    0.42905850576203108382E-02
    0.43182294683128214993E-02
    0.43292263588508659439E-02
    0.43117304636787522412E-02
    0.43239707856831616564E-02
    0.43028092598293102983E-02
    0.42825056665691833488E-02
    0.42611888712491829967E-02
    0.42513103963182554551E-02
    0.42622133919240131478E-02
    0.42544288284800356459E-02
    0.42820638583722595710E-02
    0.42881318740664083750E-02
    0.43805413423431563760E-02
    0.44075144481681306080E-02
    0.44542960480737905579E-02
    0.44712632505075821862E-02
    0.44409292783758221035E-02
    0.44598236472717283155E-02
    0.44250645695192306409E-02
    0.43919265162344700917E-02
    0.43565145216350256718E-02
    0.43402324608160800304E-02
    0.43590060925101370426E-02
    0.43466518693666437653E-02
    0.43921881179974069792E-02
    0.44019026552692070223E-02
    0.43164001281142455255E-02
    0.43341215924917412400E-02
    0.43735834368140089068E-02
    0.43833193840086721871E-02
    0.43516057296683671035E-02
    0.43571856066254004841E-02
    0.43242271592034064662E-02
    0.43064089329741010378E-02
    0.42782815055480514360E-02
    0.42708953487068154059E-02
    0.42906960921909268608E-02
    0.42866494715264550491E-02
    0.43162832449928556153E-02
    0.43211449585749961422E-02
    0.44594644468781904911E-02
    0.44893630250261249565E-02
    0.45590818489834950347E-02
    0.45739728568971790151E-02
    0.45164852327355129238E-02
    0.45229133442198695553E-02
    0.44656343075437747447E-02
    0.44369789014393852186E-02
    0.43885236834803166908E-02
    0.43766548544725922959E-02
    0.44121181789991874636E-02
    0.44063101382092600966E-02
    0.44564804620561690104E-02
    0.44640931048612764870E-02
    0.42173994264878608002E-02
    0.42234009732055270009E-02
    0.42415104922271769719E-02
    0.42442919143511484772E-02
    0.42281417889562496540E-02
    0.42283559638009275694E-02
    0.42121839796635954581E-02
    0.42060890246869197043E-02
    0.41931705571325470980E-02
    0.41913768358263466321E-02
    0.42021126642475120638E-02
    0.42026175271739109329E-02
    0.42133776037215093374E-02
    0.42146514003898799192E-02
    0.42793918528621702202E-02
    0.42914035334928202908E-02
    0.43233224656872137198E-02
    0.43294671136174574938E-02
    0.43016774386405312938E-02
    0.43030219026974252453E-02
    0.42746619849519541107E-02
    0.42632928572528686409E-02
    0.42406123992301805389E-02
    0.42368496260114787630E-02
    0.42548434329574827059E-02
    0.42543403835176383382E-02
    0.42748933549844160898E-02
    0.42776335885933419040E-02
    0.42642903488800641687E-02
    0.42709455002625700340E-02
    0.42973896782736234479E-02
    0.42995676515028636092E-02
    0.42745142245725741698E-02
    0.42724728695233155779E-02
    0.42484002386610434515E-02
    0.42415054451456386808E-02
    0.42228335070691328315E-02
    0.42215793750952487415E-02
    0.42386398044196608656E-02
    0.42415095032639392805E-02
    0.42545809423863998125E-02
    0.42555221409559008949E-02
    0.43506092081375628139E-02
    0.43654183387173096584E-02
    0.44110201494774901529E-02
    0.44180554872830547775E-02
    0.43766599938790552021E-02
    0.43762441767097358739E-02
    0.43345149492698235860E-02
    0.43203763697233889610E-02
    0.42878882132997928750E-02
    0.42841732656652784655E-02
    0.43116613892966058549E-02
    0.43135056466379363693E-02
    0.43398177636784062566E-02
    0.43427383519123443842E-02
    0.43918230638617704667E-02
    0.44147980257114305402E-02
    0.44724377560810043425E-02
    0.44842872008454114779E-02
    0.44343680161152178310E-02
    0.44367801173955008498E-02
    0.43859873293720626555E-02
    0.43656756725456939000E-02
    0.43252900189938150652E-02
    0.43182456203175170403E-02
    0.43497370310237749164E-02
    0.43476690894509529076E-02
    0.43858297252397839688E-02
    0.43910274160698144902E-02
    0.45976784882717182043E-02
    0.46396245366885219275E-02
    0.47450827317288887114E-02
    0.47654130334834829408E-02
    0.46730350322807725355E-02
    0.46743142938696843891E-02
    0.45825339936349483716E-02
    0.45481827076156496753E-02
    0.44759190472782005299E-02
    0.44639758889970819131E-02
    0.45210862551213464727E-02
    0.45174486862300747975E-02
    0.45862535442270646602E-02
    0.45951136679557719189E-02
    0.45073119295406778931E-02
    0.45386220925908819790E-02
    0.46210527229481749081E-02
    0.46377328270435875732E-02
    0.45649833162447871898E-02
    0.45672623171287207375E-02
    0.44920047676992652316E-02
    0.44645195520415861812E-02
    0.44060546164349260675E-02
    0.43976343444088253354E-02
    0.44444278730401843430E-02
    0.44435621881596812713E-02
    0.44958926364832597911E-02
    0.45026949838396753203E-02
    0.48008930477097394585E-02
    0.48636480338429379303E-02
    0.50176252855274701067E-02
    0.50514353924677804497E-02
    0.49165728656400909877E-02
    0.49209301026154096681E-02
    0.47816074946390790465E-02
    0.47308372522627374981E-02
    0.46233439575319784307E-02
    0.46068268795143333880E-02
    0.46910316389434329049E-02
    0.46855284984193895301E-02
    0.47868689127637418720E-02
    0.48004534784123389229E-02
    0.41930399573947754049E-02
    0.41886357616217366126E-02
    0.41943811893633796417E-02
    0.41905043761052305704E-02
    0.41812717168773806675E-02
    0.41756931896130625170E-02
    0.41691897691129332915E-02
    0.41718193304859842868E-02
    0.41681720681977308188E-02
    0.41715232486657424088E-02
    0.41787709541575915329E-02
    0.41857708003335842434E-02
    0.41806029507952821925E-02
    0.41785074362461751760E-02
    0.42031962137155879505E-02
    0.42011194386078302976E-02
    0.42112641084941140196E-02
    0.42081566445385347464E-02
    0.41954874831415479505E-02
    0.41900648197764275849E-02
    0.41802765962105420047E-02
    0.41813219572133580523E-02
    0.41747225219843468735E-02
    0.41771076281767556201E-02
    0.41863906857735905948E-02
    0.41923786013115102098E-02
    0.41911872864657667703E-02
    0.41896213957367716210E-02
    0.42415935025103537401E-02
    0.42340993827176378120E-02
    0.42441318704313822988E-02
    0.42374411170018194683E-02
    0.42213740940065993396E-02
    0.42116225845582125342E-02
    0.42003492067942144877E-02
    0.42049836116098580560E-02
    0.41987010273662576931E-02
    0.42045003988996094285E-02
    0.42170327595234301590E-02
    0.42290815266188500759E-02
    0.42202153330947291335E-02
    0.42165866687783751590E-02
    0.42595584474065771585E-02
    0.42558468365397382829E-02
    0.42735305777005161074E-02
    0.42678030734391962653E-02
    0.42455481007350288555E-02
    0.42355335888116319235E-02
    0.42186791737269021402E-02
    0.42209687363580650904E-02
    0.42097005192608238228E-02
    0.42140184497143559628E-02
    0.42301773861441113733E-02
    0.42407111355987738358E-02
    0.42384003335503095747E-02
    0.42355456503157997566E-02
    0.42283559640092591853E-02
    0.42281417891484119123E-02
    0.42442919145725807248E-02
    0.42415104924265782313E-02
    0.42234009733586120108E-02
    0.42173994266057621486E-02
    0.42026175272557534518E-02
    0.42021126643525313557E-02
    0.41913768359173181333E-02
    0.41931705572398111220E-02
    0.42060890248333234268E-02
    0.42121839798454577958E-02
    0.42146514005436796352E-02
    0.42133776038634964539E-02
    0.42724728697503232266E-02
    0.42745142247571123184E-02
    0.42995676517027158967E-02
    0.42973896784293287576E-02
    0.42709455003740815285E-02
    0.42642903489356004734E-02
    0.42415095032903582517E-02
    0.42386398044936745774E-02
    0.42215793751695972549E-02
    0.42228335071775860085E-02
    0.42415054452941015201E-02
    0.42484002388653080082E-02
    0.42555221410953596520E-02
    0.42545809425038510002E-02
    0.43030219031861575638E-02
    0.43016774391073679326E-02
    0.43294671141638997255E-02
    0.43233224661933192939E-02
    0.42914035338952631268E-02
    0.42793918531995834773E-02
    0.42543403837697699871E-02
    0.42548434332446210746E-02
    0.42368496262552637899E-02
    0.42406123995025893705E-02
    0.42632928576086708342E-02
    0.42746619853718473975E-02
    0.42776335889779647931E-02
    0.42748933553490202700E-02
    0.43762441773162975497E-02
    0.43766599944281966636E-02
    0.44180554878993664666E-02
    0.44110201500277747971E-02
    0.43654183391437758124E-02
    0.43506092084647811011E-02
    0.43135056468727233855E-02
    0.43116613896044802406E-02
    0.42841732659408705147E-02
    0.42878882136335779579E-02
    0.43203763701534277780E-02
    0.43345149498015570974E-02
    0.43427383523545384086E-02
    0.43398177640849057435E-02
    0.43239707863779279495E-02
    0.43117304643133635284E-02
    0.43292263595384704311E-02
    0.43182294689505943200E-02
    0.42905850581539829031E-02
    0.42740065658194740725E-02
    0.42544288288530861947E-02
    0.42622133923510266071E-02
    0.42513103967116100748E-02
    0.42611888716911688543E-02
    0.42825056671082087703E-02
    0.43028092604777568725E-02
    0.42881318746107715406E-02
    0.42820638588851843431E-02
    0.43571856073903450154E-02
    0.43516057304140058973E-02
    0.43833193848792136732E-02
    0.43735834376486234024E-02
    0.43341215931629430494E-02
    0.43164001286927645290E-02
    0.42866494719828000803E-02
    0.42906960926855789232E-02
    0.42708953491318469436E-02
    0.42782815060127560997E-02
    0.43064089335518402832E-02
    0.43242271598566417445E-02
    0.43211449592032973727E-02
    0.43162832455975819537E-02
    0.44598236485891553857E-02
    0.44409292796024598185E-02
    0.44712632518571909790E-02
    0.44542960493268654587E-02
    0.44075144492195664561E-02
    0.43805413432511314600E-02
    0.43466518701178787770E-02
    0.43590060933527520828E-02
    0.43402324615905802860E-02
    0.43565145224968293558E-02
    0.43919265172724514246E-02
    0.44250645707483533473E-02
    0.44019026563263769988E-02
    0.43921881189998377565E-02
    0.45229133457128922746E-02
    0.45164852342236402535E-02
    0.45739728586502168342E-02
    0.45590818506733186630E-02
    0.44893630263890963242E-02
    0.44594644480778454498E-02
    0.44063101391583637395E-02
    0.44121181800101981832E-02
    0.43766548553359216692E-02
    0.43885236844154748917E-02
    0.44369789025905242985E-02
    0.44656343088285326351E-02
    0.44640931061220006509E-02
    0.44564804632779200094E-02
    0.44367801184384140015E-02
    0.44343680171358510617E-02
    0.44842872020416802564E-02
    0.44724377572175448570E-02
    0.44147980266230329310E-02
    0.43918230646582149743E-02
    0.43476690900586430211E-02
    0.43497370316854530939E-02
    0.43182456208745671061E-02
    0.43252900196012562459E-02
    0.43656756733219288791E-02
    0.43859873302654790728E-02
    0.43910274169207206413E-02
    0.43858297260578769580E-02
    0.45672623185203107057E-02
    0.45649833175513071862E-02
    0.46377328285446229802E-02
    0.46210527243271881312E-02
    0.45386220936947671914E-02
    0.45073119304588149872E-02
    0.44435621888624385681E-02
    0.44444278738506922538E-02
    0.43976343451185154546E-02
    0.44060546172378532367E-02
    0.44645195530586016461E-02
    0.44920047688958393214E-02