# vtk DataFile Version 3.0
LAPLACIEN  2D
ASCII
DATASET UNSTRUCTURED_GRID
FIELD FieldData 1
TIME 1 1 double
19.6000
 POINTS        7297  float
   1.5625000000000000E-002  0.96875000000000000        0.0000000000000000     
   3.1250000000000000E-002  0.96875000000000000        0.0000000000000000     
   3.1250000000000000E-002  0.98437500000000000        0.0000000000000000     
   9.3749999999999997E-003  0.97812500000000002        0.0000000000000000     
   2.0312500000000001E-002  0.97968750000000004        0.0000000000000000     
   2.1874999999999999E-002  0.99062499999999998        0.0000000000000000     
   1.0937499999999999E-002  0.98906249999999996        0.0000000000000000     
   4.6875000000000000E-002  0.96875000000000000        0.0000000000000000     
   6.2500000000000000E-002  0.96875000000000000        0.0000000000000000     
   6.2500000000000000E-002  0.98437500000000000        0.0000000000000000     
   4.0625000000000001E-002  0.97812500000000002        0.0000000000000000     
   5.1562499999999997E-002  0.97968750000000004        0.0000000000000000     
   5.3124999999999999E-002  0.99062499999999998        0.0000000000000000     
   4.2187500000000003E-002  0.98906249999999996        0.0000000000000000     
   1.5625000000000000E-002  0.93750000000000000        0.0000000000000000     
   3.1250000000000000E-002  0.93750000000000000        0.0000000000000000     
   3.1250000000000000E-002  0.95312500000000000        0.0000000000000000     
   9.3749999999999997E-003  0.94687500000000002        0.0000000000000000     
   2.0312500000000001E-002  0.94843750000000004        0.0000000000000000     
   2.1874999999999999E-002  0.95937499999999998        0.0000000000000000     
   1.0937499999999999E-002  0.95781249999999996        0.0000000000000000     
   4.6875000000000000E-002  0.93750000000000000        0.0000000000000000     
   6.2500000000000000E-002  0.93750000000000000        0.0000000000000000     
   6.2500000000000000E-002  0.95312500000000000        0.0000000000000000     
   4.0625000000000001E-002  0.94687500000000002        0.0000000000000000     
   5.1562499999999997E-002  0.94843750000000004        0.0000000000000000     
   5.3124999999999999E-002  0.95937499999999998        0.0000000000000000     
   4.2187500000000003E-002  0.95781249999999996        0.0000000000000000     
   7.8125000000000000E-002  0.96875000000000000        0.0000000000000000     
   9.3750000000000000E-002  0.96875000000000000        0.0000000000000000     
   9.3750000000000000E-002  0.98437500000000000        0.0000000000000000     
   7.1874999999999994E-002  0.97812500000000002        0.0000000000000000     
   8.2812499999999997E-002  0.97968750000000004        0.0000000000000000     
   8.4375000000000006E-002  0.99062499999999998        0.0000000000000000     
   7.3437500000000003E-002  0.98906249999999996        0.0000000000000000     
  0.10937500000000000       0.96875000000000000        0.0000000000000000     
  0.12500000000000000       0.96875000000000000        0.0000000000000000     
  0.12500000000000000       0.98437500000000000        0.0000000000000000     
  0.10312499999999999       0.97812500000000002        0.0000000000000000     
  0.11406250000000000       0.97968750000000004        0.0000000000000000     
  0.11562500000000001       0.99062499999999998        0.0000000000000000     
  0.10468750000000000       0.98906249999999996        0.0000000000000000     
   7.8125000000000000E-002  0.93750000000000000        0.0000000000000000     
   9.3750000000000000E-002  0.93750000000000000        0.0000000000000000     
   9.3750000000000000E-002  0.95312500000000000        0.0000000000000000     
   7.1874999999999994E-002  0.94687500000000002        0.0000000000000000     
   8.2812499999999997E-002  0.94843750000000004        0.0000000000000000     
   8.4375000000000006E-002  0.95937499999999998        0.0000000000000000     
   7.3437500000000003E-002  0.95781249999999996        0.0000000000000000     
  0.10937500000000000       0.93750000000000000        0.0000000000000000     
  0.12500000000000000       0.93750000000000000        0.0000000000000000     
  0.12500000000000000       0.95312500000000000        0.0000000000000000     
  0.10312499999999999       0.94687500000000002        0.0000000000000000     
  0.11406250000000000       0.94843750000000004        0.0000000000000000     
  0.11562500000000001       0.95937499999999998        0.0000000000000000     
  0.10468750000000000       0.95781249999999996        0.0000000000000000     
   1.5625000000000000E-002  0.90625000000000000        0.0000000000000000     
   3.1250000000000000E-002  0.90625000000000000        0.0000000000000000     
   3.1250000000000000E-002  0.92187500000000000        0.0000000000000000     
   9.3749999999999997E-003  0.91562500000000002        0.0000000000000000     
   2.0312500000000001E-002  0.91718750000000004        0.0000000000000000     
   2.1874999999999999E-002  0.92812499999999998        0.0000000000000000     
   1.0937499999999999E-002  0.92656249999999996        0.0000000000000000     
   4.6875000000000000E-002  0.90625000000000000        0.0000000000000000     
   6.2500000000000000E-002  0.90625000000000000        0.0000000000000000     
   6.2500000000000000E-002  0.92187500000000000        0.0000000000000000     
   4.0625000000000001E-002  0.91562500000000002        0.0000000000000000     
   5.1562499999999997E-002  0.91718750000000004        0.0000000000000000     
   5.3124999999999999E-002  0.92812499999999998        0.0000000000000000     
   4.2187500000000003E-002  0.92656249999999996        0.0000000000000000     
   1.5625000000000000E-002  0.87500000000000000        0.0000000000000000     
   3.1250000000000000E-002  0.87500000000000000        0.0000000000000000     
   3.1250000000000000E-002  0.89062500000000000        0.0000000000000000     
   9.3749999999999997E-003  0.88437500000000002        0.0000000000000000     
   2.0312500000000001E-002  0.88593750000000004        0.0000000000000000     
   2.1874999999999999E-002  0.89687499999999998        0.0000000000000000     
   1.0937499999999999E-002  0.89531249999999996        0.0000000000000000     
   4.6875000000000000E-002  0.87500000000000000        0.0000000000000000     
   6.2500000000000000E-002  0.87500000000000000        0.0000000000000000     
   6.2500000000000000E-002  0.89062500000000000        0.0000000000000000     
   4.0625000000000001E-002  0.88437500000000002        0.0000000000000000     
   5.1562499999999997E-002  0.88593750000000004        0.0000000000000000     
   5.3124999999999999E-002  0.89687499999999998        0.0000000000000000     
   4.2187500000000003E-002  0.89531249999999996        0.0000000000000000     
   7.8125000000000000E-002  0.90625000000000000        0.0000000000000000     
   9.3750000000000000E-002  0.90625000000000000        0.0000000000000000     
   9.3750000000000000E-002  0.92187500000000000        0.0000000000000000     
   7.1874999999999994E-002  0.91562500000000002        0.0000000000000000     
   8.2812499999999997E-002  0.91718750000000004        0.0000000000000000     
   8.4375000000000006E-002  0.92812499999999998        0.0000000000000000     
   7.3437500000000003E-002  0.92656249999999996        0.0000000000000000     
  0.10937500000000000       0.90625000000000000        0.0000000000000000     
  0.12500000000000000       0.90625000000000000        0.0000000000000000     
  0.12500000000000000       0.92187500000000000        0.0000000000000000     
  0.10312499999999999       0.91562500000000002        0.0000000000000000     
  0.11406250000000000       0.91718750000000004        0.0000000000000000     
  0.11562500000000001       0.92812499999999998        0.0000000000000000     
  0.10468750000000000       0.92656249999999996        0.0000000000000000     
   7.8125000000000000E-002  0.87500000000000000        0.0000000000000000     
   9.3750000000000000E-002  0.87500000000000000        0.0000000000000000     
   9.3750000000000000E-002  0.89062500000000000        0.0000000000000000     
   7.1874999999999994E-002  0.88437500000000002        0.0000000000000000     
   8.2812499999999997E-002  0.88593750000000004        0.0000000000000000     
   8.4375000000000006E-002  0.89687499999999998        0.0000000000000000     
   7.3437500000000003E-002  0.89531249999999996        0.0000000000000000     
  0.10937500000000000       0.87500000000000000        0.0000000000000000     
  0.12500000000000000       0.87500000000000000        0.0000000000000000     
  0.12500000000000000       0.89062500000000000        0.0000000000000000     
  0.10312499999999999       0.88437500000000002        0.0000000000000000     
  0.11406250000000000       0.88593750000000004        0.0000000000000000     
  0.11562500000000001       0.89687499999999998        0.0000000000000000     
  0.10468750000000000       0.89531249999999996        0.0000000000000000     
  0.14062500000000000       0.96875000000000000        0.0000000000000000     
  0.15625000000000000       0.96875000000000000        0.0000000000000000     
  0.15625000000000000       0.98437500000000000        0.0000000000000000     
  0.13437499999999999       0.97812500000000002        0.0000000000000000     
  0.14531250000000001       0.97968750000000004        0.0000000000000000     
  0.14687500000000001       0.99062499999999998        0.0000000000000000     
  0.13593749999999999       0.98906249999999996        0.0000000000000000     
  0.17187500000000000       0.96875000000000000        0.0000000000000000     
  0.18750000000000000       0.96875000000000000        0.0000000000000000     
  0.18750000000000000       0.98437500000000000        0.0000000000000000     
  0.16562499999999999       0.97812500000000002        0.0000000000000000     
  0.17656250000000001       0.97968750000000004        0.0000000000000000     
[...]
 CELL_DATA       14336
 SCALARS Nutrient float
 LOOKUP_TABLE default
    0.14552044054077607066E-01
    0.14551961197609559334E-01
    0.14552615296822073512E-01
    0.14552615296623371346E-01
    0.14551961198404355854E-01
    0.14552044053401078788E-01
    0.14551525639953219807E-01
    0.14551218774199341233E-01
    0.14550886923901398817E-01
    0.14550886919351061280E-01
    0.14551218776539032174E-01
    0.14551525638973997895E-01
    0.14551477998091416968E-01
    0.14551477997353182842E-01
    0.14554195937838416974E-01
    0.14554768977356741591E-01
    0.14556324109658125288E-01
    0.14556754580947919853E-01
    0.14555588895969716334E-01
    0.14556147551436329074E-01
    0.14554925130807611078E-01
    0.14553908837540879481E-01
    0.14552834879943410407E-01
    0.14552451344382945006E-01
    0.14553119304269388976E-01
    0.14553036939869276253E-01
    0.14554085425546424079E-01
    0.14554315114309587798E-01
    0.14556147551548716604E-01
    0.14555588895838517463E-01
    0.14556754580990741502E-01
    0.14556324109601932390E-01
    0.14554768977545319911E-01
    0.14554195937592875540E-01
    0.14553036940351499889E-01
    0.14553119303789878447E-01
    0.14552451344995026572E-01
    0.14552834879350893052E-01
    0.14553908837835381751E-01
    0.14554925130689819884E-01
    0.14554315114450259994E-01
    0.14554085425470380741E-01
    0.14559032290858855627E-01
    0.14559282810946927444E-01
    0.14561712927737167564E-01
    0.14561712927719367566E-01
    0.14559282811003000646E-01
    0.14559032290799165527E-01
    0.14556877663478616849E-01
    0.14556263640364391562E-01
    0.14554660827914936774E-01
    0.14554660827677472212E-01
    0.14556263640511378152E-01
    0.14556877663374817936E-01
    0.14557585850268672800E-01
    0.14557585850226120033E-01
    0.14559942442082822803E-01
    0.14561490480303923220E-01
    0.14564521972649369444E-01
    0.14565650842680306909E-01
    0.14563645736310491807E-01
    0.14565002045149915560E-01
    0.14562607573119999357E-01
    0.14560384973276389170E-01
    0.14558086042793592918E-01
    0.14557113325796684766E-01
    0.14558341275053026179E-01
    0.14557750942093088814E-01
    0.14560431592949351493E-01
    0.14561043097701011420E-01
    0.14571430849441104061E-01
    0.14574548738588316912E-01
    0.14579902773545309891E-01
    0.14582079224748389565E-01
    0.14578699663347941332E-01
    0.14581206124179393532E-01
    0.14576974805336317953E-01
    0.14572950538046179972E-01
    0.14568766117572245697E-01
    0.14566864552435242197E-01
    0.14569014902905101302E-01
    0.14567594597639801912E-01
    0.14572869884500428209E-01
    0.14574053854981981054E-01
    0.14566563685323745056E-01
    0.14567773149797397583E-01
    0.14572034133993180469E-01
    0.14572602205696541869E-01
    0.14568814075585603124E-01
    0.14569030714787080394E-01
    0.14565294614258648617E-01
    0.14563644883643105457E-01
    0.14560587075042897079E-01
    0.14560126267195730443E-01
    0.14562687164774146958E-01
    0.14562973671368051320E-01
    0.14565316772433544237E-01
    0.14565609071795857649E-01
    0.14580820314885025585E-01
    0.14583601244753495105E-01
    0.14590933094693893726E-01
    0.14592449745672805145E-01
    0.14586388134998710606E-01
    0.14587354432981692459E-01
    0.14581051685947196001E-01
    0.14577733727612014747E-01
    0.14572343972599800799E-01
    0.14571123681118139381E-01
    0.14575178219293612181E-01
    0.14574950506515266940E-01
    0.14579921068155362457E-01
    0.14580702592412252139E-01
    0.14565002045187163543E-01
    0.14563645736303285766E-01
    0.14565650842702702189E-01
    0.14564521972650562934E-01
    0.14561490480351272497E-01
    0.14559942442032640722E-01
    0.14557750942198110708E-01
    0.14558341274976016599E-01
    0.14557113325898093231E-01
    0.14558086042717532232E-01
    0.14560384973333218711E-01
    0.14562607573121565813E-01
    0.14561043097735230575E-01
    0.14560431592950867641E-01
    0.14569030714810861718E-01
    0.14568814075582506642E-01
    0.14572602205713847470E-01
    0.14572034133998826994E-01
    0.14567773149819595105E-01
    0.14566563685305967610E-01
    0.14562973671404237652E-01
    0.14562687164735120884E-01
    0.14560126267258510085E-01
    0.14560587075000757176E-01
    0.14563644883678995151E-01
    0.14565294614248899471E-01
    0.14565609071816146974E-01
    0.14565316772432839940E-01
    0.14581206124238006369E-01
    0.14578699663390752572E-01
    0.14582079224799768605E-01
    0.14579902773586344775E-01
    0.14574548738629405573E-01
    0.14571430849453647846E-01
    0.14567594597674317705E-01
    0.14569014902916239962E-01
    0.14566864552471149238E-01
    0.14568766117588059436E-01
    0.14572950538092698317E-01
    0.14576974805387010042E-01
    0.14574053855023702889E-01
    0.14572869884532201404E-01
    0.14587354433034865203E-01
    0.14586388135042203593E-01
    0.14592449745730054489E-01
    0.14590933094743234466E-01
    0.14583601244793291396E-01
    0.14580820314903535084E-01
    0.14574950506539017039E-01
    0.14575178219305269522E-01
    0.14571123681148724291E-01
    0.14572343972614766258E-01
    0.14577733727650594997E-01
    0.14581051685985765842E-01
    0.14580702592451040556E-01
    0.14579921068186976058E-01
    0.14579523922090432270E-01
    0.14580463591069809520E-01
    0.14586781175243932265E-01
    0.14586781175239135755E-01
    0.14580463591070957907E-01
    0.14579523922076014983E-01
    0.14573764985984744708E-01
    0.14572430308694692136E-01
    0.14568009757374033100E-01
    0.14568009757356467290E-01
    0.14572430308711439156E-01
    0.14573764985987032808E-01
    0.14576081576065387513E-01
    0.14576081576060733250E-01
    0.14599043353959428523E-01
    0.14601823817600920880E-01
    0.14612456907308331994E-01
    0.14613447616773949517E-01
    0.14603548981911495738E-01
    0.14603022093634883058E-01
    0.14593489460776001843E-01
    0.14590409943605425064E-01
    0.14582866881576277140E-01
    0.14582193851267358925E-01
    0.14588927524918957057E-01
    0.14589946301969847903E-01
    0.14595378595828894033E-01
    0.14595848321920823140E-01
    0.14603022093696859524E-01
    0.14603548981961766290E-01
    0.14613447616834631879E-01
    0.14612456907355790559E-01
    0.14601823817635804434E-01
    0.14599043353975551043E-01
    0.14589946301978453866E-01
    0.14588927524933308424E-01
    0.14582193851288642247E-01
    0.14582866881595090217E-01
    0.14590409943646669849E-01
    0.14593489460828803356E-01
    0.14595848321959863092E-01
    0.14595378595860422632E-01
    0.14631558520844342719E-01
    0.14634198444524296884E-01
    0.14650227065645487351E-01
    0.14650227065633797049E-01
    0.14634198444505626055E-01
    0.14631558520799128886E-01
    0.14616994106419716262E-01
    0.14613860782465638508E-01
    0.14602748103843044003E-01
    0.14602748103850014122E-01
    0.14613860782486809073E-01
    0.14616994106466527775E-01
    0.14623155128221479102E-01
    0.14623155128215424917E-01
    0.14592045530471423401E-01
    0.14597650384228290019E-01
    0.14606923911109190653E-01
    0.14610819558238242674E-01
    0.14605048691411635226E-01
    0.14609472530106875146E-01
    0.14602170691953726342E-01
    0.14595138490344081866E-01
    0.14587857503257712494E-01
    0.14584489901779230242E-01
    0.14588154932297215868E-01
    0.14585511882958141286E-01
    0.14594873662336320733E-01
    0.14596979425806183225E-01
    0.14628135544498148402E-01
    0.14637929277336923437E-01
    0.14654063366621243938E-01
    0.14660784183100466702E-01
    0.14650709984211883474E-01
    0.14658235780974339380E-01
    0.14645671866062807270E-01
    0.14633570627780640230E-01
    0.14620984191124538135E-01
    0.14615158376155193420E-01
    0.14621469231011412909E-01
    0.14616812553103163824E-01
    0.14633122080374373966E-01
    0.14636767250515464456E-01
    0.14606481266212551287E-01
    0.14611928013658145517E-01
    0.14624651486508108769E-01
    0.14627773870655952013E-01
    0.14617584918798956495E-01
    0.14619670960409975047E-01
    0.14608807225956007073E-01
    0.14602791137651333422E-01
    0.14593466440171782086E-01
    0.14591069529950784558E-01
    0.14597699695212880758E-01
    0.14596648889430506937E-01
    0.14606036259933209698E-01
    0.14607609683342849885E-01
    0.14652144508251497071E-01
    0.14662201121647507746E-01
    0.14684545282011149045E-01
    0.14690297099246343512E-01
    0.14672542916271744465E-01
    0.14676270485477366581E-01
    0.14657347387636632252E-01
    0.14646768165110495702E-01
    0.14630541235921667997E-01
    0.14626203334661407041E-01
    0.14637520013645693301E-01
    0.14635219102478615530E-01
    0.14652157759219323549E-01
    0.14655025156565040789E-01
    0.14690779447627555845E-01
    0.14707425331026922552E-01
    0.14735178716003879268E-01
    0.14746219496234834120E-01
    0.14728657439843348409E-01
    0.14740946735803799397E-01
    0.14719702424137613359E-01
    0.14699316693451598692E-01
    0.14677913667008504750E-01
    0.14667992877939309282E-01
    0.14678941077812980923E-01
    0.14671122081430849893E-01
    0.14698871505599502008E-01
    0.14704964882764398962E-01
    0.14797728124883014963E-01
    0.14824803975243746115E-01
    0.14871755565444214411E-01
    0.14888786525608365199E-01
    0.14858347754213744457E-01
    0.14877314116609424363E-01
    0.14842428420135968942E-01
    0.14809163944250736816E-01
    0.14773618549460030072E-01
    0.14757272012877169914E-01
    0.14776116487863843671E-01
    0.14763711559984028440E-01
    0.14809423880846626920E-01
    0.14819175986112773438E-01
    0.14733333118135155670E-01
    0.14751122470838266137E-01
    0.14790731783106147307E-01
    0.14800504038729803136E-01
    0.14768676042085978478E-01
    0.14774279615536272531E-01
    0.14741198274340379035E-01
    0.14723308069155088829E-01
    0.14695070910372615147E-01
    0.14687653273187512709E-01
    0.14707531533883193980E-01
    0.14703466675637193867E-01
    0.14733218389710228680E-01
    0.14738099754669395716E-01
    0.14876920586365950661E-01
    0.14906926023274133519E-01
    0.14976883505693016838E-01
    0.14991826870701604330E-01
    0.14934150214171205279E-01
    0.14940606819064367050E-01
    0.14883131138003350899E-01
    0.14854368441852693061E-01
    0.14805737739863496227E-01
    0.14793821552906410294E-01
    0.14829411846378906872E-01
    0.14823579075211101158E-01
    0.14873933632735380356E-01
    0.14881575074822185958E-01
    0.14633934481809933448E-01
    0.14639961605214045492E-01
    0.14658145743272392447E-01
    0.14660939471150250327E-01
    0.14644721886951896778E-01
    0.14644936596670763904E-01
    0.14628697016499591158E-01
    0.14622575307142948731E-01
    0.14609600937570115659E-01
    0.14607798621082723409E-01
    0.14618581995417757186E-01
    0.14619088572918060784E-01
    0.14629895232640651934E-01
    0.14631174927170384134E-01
    0.14696180640895849939E-01
    0.14708238836757630413E-01
    0.14740281162173352048E-01
    0.14746449262055439863E-01
    0.14718552481067152457E-01
    0.14719902117381838610E-01
    0.14691432308250347918E-01
    0.14680016340790554355E-01
    0.14657244349829916599E-01
    0.14653465373810339520E-01
    0.14671533198835679315E-01
    0.14671027585340876143E-01
    0.14691663621697595085E-01
    0.14694415128789814484E-01
    0.14681023251970012206E-01
    0.14687704881794324402E-01
    0.14714254753875296786E-01
    0.14716441084286451327E-01
    0.14691286272117477438E-01
    0.14689235319634912427E-01
    0.14665065398769976807E-01
    0.14658142035977338169E-01
    0.14639392129062081538E-01
    0.14638133090677239376E-01
    0.14655266198527668389E-01
    0.14658148277077988342E-01
    0.14671273280887905249E-01
    0.14672218112108843802E-01
    0.14767680298193596594E-01
    0.14782543884044268764E-01
    0.14828314029947864058E-01
    0.14835373375875957752E-01
    0.14793823109916375697E-01
    0.14793402744931904991E-01
    0.14751517168036630198E-01
    0.14737325810001887516E-01
    0.14704711087127793345E-01
    0.14700982188031138861E-01
    0.14728580288386585243E-01
    0.14730432467289255802E-01
    0.14756844391457602308E-01
    0.14759775278863195708E-01
    0.14809036011318671075E-01
    0.14832093377270467657E-01
    0.14889936848367257838E-01
    0.14901826343246099907E-01
    0.14851732732498908185E-01
    0.14854153500187990133E-01
    0.14803179253004943028E-01
    0.14782792563308147851E-01
    0.14742256148535777885E-01
    0.14735184033016556632E-01
    0.14766794736962065779E-01
    0.14764718585701667314E-01
    0.14803020420189098860E-01
    0.14808237051388506433E-01
    0.15015600348211642287E-01
    0.15057682155143761737E-01
    0.15163478749526074219E-01
    0.15183871726120535053E-01
    0.15091202257360327235E-01
    0.15092487832245463433E-01
    0.15000410434930513959E-01
    0.14965941071760661615E-01
    0.14893431686177377449E-01
    0.14881444999406648333E-01
    0.14938751063133795180E-01
    0.14935101251507969938E-01
    0.15004137118599174608E-01
    0.15013027042201289307E-01
    0.14924947613308918448E-01
    0.14956360774159972379E-01
    0.15039070383506368891E-01
    0.15055800194938358250E-01
    0.14982804271569854018E-01
    0.14985086272068844776E-01
    0.14909572226859976393E-01
    0.14881992990455252673E-01
    0.14823320667778494900E-01
    0.14814870955235082822E-01
    0.14861835189497357365E-01
    0.14860970678573606416E-01
    0.14913480251979525579E-01
    0.14920304726066613635E-01
    0.15219485881801044988E-01
    0.15282425480734279297E-01
    0.15436870684408673937E-01
    0.15470771663515217945E-01
    0.15335502106603997319E-01
    0.15339865698120767196E-01
    0.15200117103552113901E-01
    0.15149189088515429766E-01
    0.15041350740528144220E-01
    0.15024781848763131900E-01
    0.15109263685605006308E-01
    0.15103748934948197161E-01
    0.15205403724800311063E-01
    0.15219027885671296274E-01
    0.14609472530246503039E-01
    0.14605048691532144731E-01
    0.14610819558370494523E-01
    0.14606923911225720703E-01
    0.14597650384324575845E-01
    0.14592045530542715331E-01
    0.14585511883017519136E-01
    0.14588154932366207556E-01
    0.14584489901847040583E-01
    0.14587857503332973472E-01
    0.14595138490447537305E-01
    0.14602170692084089076E-01
    0.14596979425907369646E-01
    0.14594873662428148320E-01
    0.14619670960551996858E-01
    0.14617584918932354995E-01
    0.14627773870815636778E-01
    0.14624651486656904675E-01
    0.14611928013772170626E-01
    0.14606481266299474811E-01
    0.14596648889495446311E-01
    0.14597699695286696711E-01
    0.14591069530016822012E-01
    0.14593466440244942314E-01
    0.14602791137752124326E-01
    0.14608807226074285723E-01
    0.14607609683451620516E-01
    0.14606036260034553978E-01
    0.14658235781284065583E-01
    0.14650709984488060125E-01
    0.14660784183402348485E-01
    0.14654063366894443804E-01
    0.14637929277562621369E-01
    0.14628135544681848679E-01
    0.14616812553249885001E-01
    0.14621469231185195772E-01
    0.14615158376315568606E-01
    0.14620984191307815139E-01
    0.14633570628014026457E-01
    0.14645671866351735874E-01
    0.14636767250748744865E-01
    0.14633122080591070419E-01
    0.14676270485809068261E-01
    0.14672542916592552081E-01
    0.14690297099624563537E-01
    0.14684545282372153674E-01
    0.14662201121929617151E-01
    0.14652144508485650046E-01
    0.14635219102655912943E-01
    0.14637520013843868111E-01
    0.14626203334829572869E-01
    0.14630541236109755390E-01
    0.14646768165353339641E-01
    0.14657347387917215101E-01
    0.14655025156829712754E-01
    0.14652157759471564485E-01
    0.14644936596856564931E-01
    0.14644721887123958795E-01
    0.14660939471353350017E-01
    0.14658145743454618209E-01
    0.14639961605353194601E-01
    0.14633934481916553022E-01
    0.14619088572989989358E-01
    0.14618581995508351384E-01
    0.14607798621160962907E-01
    0.14609600937660035050E-01
    0.14622575307271762357E-01
    0.14628697016659470212E-01
    0.14631174927307246877E-01
    0.14629895232766738575E-01
    0.14689235319845875619E-01
    0.14691286272289357309E-01
    0.14716441084475576084E-01
    0.14714254754022153271E-01
    0.14687704881899533646E-01
    0.14681023252022782494E-01
    0.14658148277101717624E-01
    0.14655266198594937496E-01
    0.14638133090745070533E-01
    0.14639392129159881778E-01
    0.14658142036114641532E-01
    0.14665065398958902071E-01
    0.14672218112238375604E-01
    0.14671273280996889252E-01
    0.14719902117835822683E-01
    0.14718552481502486518E-01
    0.14746449262571533975E-01
    0.14740281162651129587E-01
    0.14708238837134809604E-01
    0.14696180641211739615E-01
    0.14671027585572237947E-01
    0.14671533199098243591E-01
    0.14653465374030264293E-01
    0.14657244350074698225E-01
    0.14680016341117251358E-01
    0.14691432308636943188E-01
    0.14694415129146083318E-01
    0.14691663622035376971E-01
    0.14793402745510865481E-01
    0.14793823110441462615E-01
    0.14835373376470444018E-01
    0.14828314030477645138E-01
    0.14782543884453578503E-01
    0.14767680298507513889E-01
    0.14730432467511104383E-01
    0.14728580288677359592E-01
    0.14700982188289808683E-01
    0.14704711087440392250E-01
    0.14737325810409655086E-01
    0.14751517168541568303E-01
    0.14759775279284424732E-01
    0.14756844391844752690E-01
    0.14740946736444045934E-01
    0.14728657440424931802E-01
    0.14746219496869191271E-01
    0.14735178716589915696E-01
    0.14707425331513153399E-01
    0.14690779448037710395E-01
    0.14671122081762237588E-01
    0.14678941078195090197E-01
    0.14667992878289683525E-01
    0.14677913667404656611E-01
    0.14699316693942320738E-01
    0.14719702424733482199E-01
    0.14704964883259686800E-01
    0.14698871506064586576E-01
    0.14774279616248378252E-01
    0.14768676042781475957E-01
    0.14800504039550544180E-01
    0.14790731783893184409E-01
    0.14751122471465474492E-01
    0.14733333118673369241E-01
    0.14703466676054837217E-01
    0.14707531534335674048E-01
    0.14687653273571502424E-01
    0.14695070910793176303E-01
    0.14723308069686235136E-01
    0.14741198274942548391E-01
    0.14738099755251221970E-01
    0.14733218390269954556E-01
    0.14877314117857479842E-01
    0.14858347755372704538E-01
    0.14888786526889907780E-01
    0.14871755566631141704E-01
    0.14824803976233336469E-01
    0.14797728125732469151E-01
    0.14763711560679607451E-01
    0.14776116488647527553E-01
    0.14757272013594655014E-01
    0.14773618550261888652E-01
    0.14809163945225963660E-01
    0.14842428421297898869E-01
    0.14819175987106433454E-01
    0.14809423881786859187E-01
    0.14940606820489962803E-01
    0.14934150215594785283E-01
    0.14991826872390895398E-01
    0.14976883507320950736E-01
    0.14906926024579228440E-01
    0.14876920587511405919E-01
    0.14823579076108121463E-01
    0.14829411847333898167E-01
    0.14793821553714954498E-01
    0.14805737740740369454E-01
    0.14854368442942989317E-01
    0.14883131139222408740E-01
    0.14881575076022250312E-01
    0.14873933633898047540E-01
    0.14854153501183131603E-01
    0.14851732733475000656E-01
    0.14901826344399453361E-01
    0.14889936849462402646E-01
    0.14832093378144403997E-01
    0.14809036012081349190E-01
    0.14764718586276693452E-01
    0.14766794737586996442E-01
    0.14735184033537586032E-01
    0.14742256149103084503E-01
    0.14782792564042563851E-01
    0.14803179253851772579E-01
    0.14808237052198363823E-01
    0.14803020420967797147E-01
    0.14985086273419772826E-01
    0.14982804272840006404E-01
    0.15055800196404513572E-01
    0.15039070384853327894E-01
    0.14956360775234446223E-01
    0.14924947614202372162E-01
    0.14860970679251381960E-01
    0.14861835190278959579E-01
    0.14814870955915656475E-01
    0.14823320668548483139E-01
    0.14881992991437564128E-01
    0.14909572228017455020E-01