# vtk DataFile Version 3.0
LAPLACIEN  2D
ASCII
DATASET UNSTRUCTURED_GRID
FIELD FieldData 1
TIME 1 1 double
12.0000
 POINTS        7297  float
   1.5625000000000000E-002  0.96875000000000000        0.0000000000000000     
   3.1250000000000000E-002  0.96875000000000000        0.0000000000000000     
   3.1250000000000000E-002  0.98437500000000000        0.0000000000000000     
   9.3749999999999997E-003  0.97812500000000002        0.0000000000000000     
   2.0312500000000001E-002  0.97968750000000004        0.0000000000000000     
   2.1874999999999999E-002  0.99062499999999998        0.0000000000000000     
   1.0937499999999999E-002  0.98906249999999996        0.0000000000000000     
   4.6875000000000000E-002  0.96875000000000000        0.0000000000000000     
   6.2500000000000000E-002  0.96875000000000000        0.0000000000000000     
   6.2500000000000000E-002  0.98437500000000000        0.0000000000000000     
   4.0625000000000001E-002  0.97812500000000002        0.0000000000000000     
   5.1562499999999997E-002  0.97968750000000004        0.0000000000000000     
   5.3124999999999999E-002  0.99062499999999998        0.0000000000000000     
   4.2187500000000003E-002  0.98906249999999996        0.0000000000000000     
   1.5625000000000000E-002  0.93750000000000000        0.0000000000000000     
   3.1250000000000000E-002  0.93750000000000000        0.0000000000000000     
   3.1250000000000000E-002  0.95312500000000000        0.0000000000000000     
   9.3749999999999997E-003  0.94687500000000002        0.0000000000000000     
   2.0312500000000001E-002  0.94843750000000004        0.0000000000000000     
   2.1874999999999999E-002  0.95937499999999998        0.0000000000000000     
   1.0937499999999999E-002  0.95781249999999996        0.0000000000000000     
   4.6875000000000000E-002  0.93750000000000000        0.0000000000000000     
   6.2500000000000000E-002  0.93750000000000000        0.0000000000000000     
   6.2500000000000000E-002  0.95312500000000000        0.0000000000000000     
   4.0625000000000001E-002  0.94687500000000002        0.0000000000000000     
   5.1562499999999997E-002  0.94843750000000004        0.0000000000000000     
   5.3124999999999999E-002  0.95937499999999998        0.0000000000000000     
   4.2187500000000003E-002  0.95781249999999996        0.0000000000000000     
   7.8125000000000000E-002  0.96875000000000000        0.0000000000000000     
   9.3750000000000000E-002  0.96875000000000000        0.0000000000000000     
   9.3750000000000000E-002  0.98437500000000000        0.0000000000000000     
   7.1874999999999994E-002  0.97812500000000002        0.0000000000000000     
   8.2812499999999997E-002  0.97968750000000004        0.0000000000000000     
   8.4375000000000006E-002  0.99062499999999998        0.0000000000000000     
   7.3437500000000003E-002  0.98906249999999996        0.0000000000000000     
  0.10937500000000000       0.96875000000000000        0.0000000000000000     
  0.12500000000000000       0.96875000000000000        0.0000000000000000     
  0.12500000000000000       0.98437500000000000        0.0000000000000000     
  0.10312499999999999       0.97812500000000002        0.0000000000000000     
  0.11406250000000000       0.97968750000000004        0.0000000000000000     
  0.11562500000000001       0.99062499999999998        0.0000000000000000     
  0.10468750000000000       0.98906249999999996        0.0000000000000000     
   7.8125000000000000E-002  0.93750000000000000        0.0000000000000000     
   9.3750000000000000E-002  0.93750000000000000        0.0000000000000000     
   9.3750000000000000E-002  0.95312500000000000        0.0000000000000000     
   7.1874999999999994E-002  0.94687500000000002        0.0000000000000000     
   8.2812499999999997E-002  0.94843750000000004        0.0000000000000000     
   8.4375000000000006E-002  0.95937499999999998        0.0000000000000000     
   7.3437500000000003E-002  0.95781249999999996        0.0000000000000000     
  0.10937500000000000       0.93750000000000000        0.0000000000000000     
  0.12500000000000000       0.93750000000000000        0.0000000000000000     
  0.12500000000000000       0.95312500000000000        0.0000000000000000     
  0.10312499999999999       0.94687500000000002        0.0000000000000000     
  0.11406250000000000       0.94843750000000004        0.0000000000000000     
  0.11562500000000001       0.95937499999999998        0.0000000000000000     
  0.10468750000000000       0.95781249999999996        0.0000000000000000     
   1.5625000000000000E-002  0.90625000000000000        0.0000000000000000     
   3.1250000000000000E-002  0.90625000000000000        0.0000000000000000     
   3.1250000000000000E-002  0.92187500000000000        0.0000000000000000     
   9.3749999999999997E-003  0.91562500000000002        0.0000000000000000     
   2.0312500000000001E-002  0.91718750000000004        0.0000000000000000     
   2.1874999999999999E-002  0.92812499999999998        0.0000000000000000     
   1.0937499999999999E-002  0.92656249999999996        0.0000000000000000     
   4.6875000000000000E-002  0.90625000000000000        0.0000000000000000     
   6.2500000000000000E-002  0.90625000000000000        0.0000000000000000     
   6.2500000000000000E-002  0.92187500000000000        0.0000000000000000     
   4.0625000000000001E-002  0.91562500000000002        0.0000000000000000     
   5.1562499999999997E-002  0.91718750000000004        0.0000000000000000     
   5.3124999999999999E-002  0.92812499999999998        0.0000000000000000     
   4.2187500000000003E-002  0.92656249999999996        0.0000000000000000     
   1.5625000000000000E-002  0.87500000000000000        0.0000000000000000     
   3.1250000000000000E-002  0.87500000000000000        0.0000000000000000     
   3.1250000000000000E-002  0.89062500000000000        0.0000000000000000     
   9.3749999999999997E-003  0.88437500000000002        0.0000000000000000     
   2.0312500000000001E-002  0.88593750000000004        0.0000000000000000     
   2.1874999999999999E-002  0.89687499999999998        0.0000000000000000     
   1.0937499999999999E-002  0.89531249999999996        0.0000000000000000     
   4.6875000000000000E-002  0.87500000000000000        0.0000000000000000     
   6.2500000000000000E-002  0.87500000000000000        0.0000000000000000     
   6.2500000000000000E-002  0.89062500000000000        0.0000000000000000     
   4.0625000000000001E-002  0.88437500000000002        0.0000000000000000     
   5.1562499999999997E-002  0.88593750000000004        0.0000000000000000     
   5.3124999999999999E-002  0.89687499999999998        0.0000000000000000     
   4.2187500000000003E-002  0.89531249999999996        0.0000000000000000     
   7.8125000000000000E-002  0.90625000000000000        0.0000000000000000     
   9.3750000000000000E-002  0.90625000000000000        0.0000000000000000     
   9.3750000000000000E-002  0.92187500000000000        0.0000000000000000     
   7.1874999999999994E-002  0.91562500000000002        0.0000000000000000     
   8.2812499999999997E-002  0.91718750000000004        0.0000000000000000     
   8.4375000000000006E-002  0.92812499999999998        0.0000000000000000     
   7.3437500000000003E-002  0.92656249999999996        0.0000000000000000     
  0.10937500000000000       0.90625000000000000        0.0000000000000000     
  0.12500000000000000       0.90625000000000000        0.0000000000000000     
  0.12500000000000000       0.92187500000000000        0.0000000000000000     
  0.10312499999999999       0.91562500000000002        0.0000000000000000     
  0.11406250000000000       0.91718750000000004        0.0000000000000000     
  0.11562500000000001       0.92812499999999998        0.0000000000000000     
  0.10468750000000000       0.92656249999999996        0.0000000000000000     
   7.8125000000000000E-002  0.87500000000000000        0.0000000000000000     
   9.3750000000000000E-002  0.87500000000000000        0.0000000000000000     
   9.3750000000000000E-002  0.89062500000000000        0.0000000000000000     
   7.1874999999999994E-002  0.88437500000000002        0.0000000000000000     
   8.2812499999999997E-002  0.88593750000000004        0.0000000000000000     
   8.4375000000000006E-002  0.89687499999999998        0.0000000000000000     
   7.3437500000000003E-002  0.89531249999999996        0.0000000000000000     
  0.10937500000000000       0.87500000000000000        0.0000000000000000     
  0.12500000000000000       0.87500000000000000        0.0000000000000000     
  0.12500000000000000       0.89062500000000000        0.0000000000000000     
  0.10312499999999999       0.88437500000000002        0.0000000000000000     
  0.11406250000000000       0.88593750000000004        0.0000000000000000     
  0.11562500000000001       0.89687499999999998        0.0000000000000000     
  0.10468750000000000       0.89531249999999996        0.0000000000000000     
  0.14062500000000000       0.96875000000000000        0.0000000000000000     
  0.15625000000000000       0.96875000000000000        0.0000000000000000     
  0.15625000000000000       0.98437500000000000        0.0000000000000000     
  0.13437499999999999       0.97812500000000002        0.0000000000000000     
  0.14531250000000001       0.97968750000000004        0.0000000000000000     
  0.14687500000000001       0.99062499999999998        0.0000000000000000     
  0.13593749999999999       0.98906249999999996        0.0000000000000000     
  0.17187500000000000       0.96875000000000000        0.0000000000000000     
  0.18750000000000000       0.96875000000000000        0.0000000000000000     
  0.18750000000000000       0.98437500000000000        0.0000000000000000     
  0.16562499999999999       0.97812500000000002        0.0000000000000000     
  0.17656250000000001       0.97968750000000004        0.0000000000000000     
[...]
 CELL_DATA       14336
 SCALARS Nutrient float
 LOOKUP_TABLE default
    0.66349104287236407296E-02
    0.66348270718061272758E-02
    0.66354787648582672088E-02
    0.66354787647699637124E-02
    0.66348270721598538724E-02
    0.66349104284181724053E-02
    0.66343937621046707512E-02
    0.66340880066127561401E-02
    0.66337578875742698320E-02
    0.66337578855449191861E-02
    0.66340880076573736576E-02
    0.66343937616704148214E-02
    0.66343458108665907119E-02
    0.66343458105368423305E-02
    0.66370523294827397584E-02
    0.66376229478818191826E-02
    0.66391715018680359794E-02
    0.66396004093413818134E-02
    0.66384394050100960921E-02
    0.66389956009640111595E-02
    0.66377787842162626689E-02
    0.66367664239830185050E-02
    0.66356974951330104096E-02
    0.66353150988861008333E-02
    0.66359806151123426621E-02
    0.66358985071064517658E-02
    0.66369420502820387908E-02
    0.66371709455222823934E-02
    0.66389956010190539354E-02
    0.66384394049556422548E-02
    0.66396004093635888760E-02
    0.66391715018449572183E-02
    0.66376229479681086651E-02
    0.66370523293742215293E-02
    0.66358985073228142840E-02
    0.66359806149009674739E-02
    0.66353150991597066241E-02
    0.66356974948725278018E-02
    0.66367664241183911208E-02
    0.66377787841705440317E-02
    0.66371709455889469492E-02
    0.66369420502503245762E-02
    0.66418689160577812705E-02
    0.66421181886138118758E-02
    0.66445387439334497454E-02
    0.66445387439254613438E-02
    0.66421181886380494322E-02
    0.66418689160289891976E-02
    0.66397231065809334677E-02
    0.66391112330317896689E-02
    0.66375152331742716394E-02
    0.66375152330683251378E-02
    0.66391112330982720788E-02
    0.66397231065367301114E-02
    0.66404278533699614626E-02
    0.66404278533509220050E-02
    0.66427750553827973751E-02
    0.66443166910736166722E-02
    0.66473362577279806671E-02
    0.66484607999943486772E-02
    0.66464632301920980456E-02
    0.66478146701386946898E-02
    0.66454294472464408433E-02
    0.66432157250578298055E-02
    0.66409260070534924594E-02
    0.66399583320866104388E-02
    0.66411802021068963228E-02
    0.66405927241241285638E-02
    0.66432622424699725242E-02
    0.66438707763856377081E-02
    0.66542185490055883249E-02
    0.66573245173212293110E-02
    0.66626586951744164178E-02
    0.66648265853028595615E-02
    0.66614592488435436443E-02
    0.66639568581567413738E-02
    0.66597410538303345590E-02
    0.66557320216600662430E-02
    0.66515636821169931911E-02
    0.66496697402934823104E-02
    0.66518114971844139599E-02
    0.66503970128903109466E-02
    0.66556517434052647059E-02
    0.66568310370288437394E-02
    0.66493706930534704491E-02
    0.66505751306911269072E-02
    0.66548199411396499053E-02
    0.66553856873889701701E-02
    0.66516118610648001727E-02
    0.66518279139050834683E-02
    0.66481060206567896276E-02
    0.66464626957395593967E-02
    0.66434172873074447477E-02
    0.66429585243776090656E-02
    0.66455090264764911032E-02
    0.66457945680990374374E-02
    0.66481280368854943352E-02
    0.66484191423419368785E-02
    0.66635732292900208898E-02
    0.66663435091726969822E-02
    0.66736491204388986853E-02
    0.66751599028114783074E-02
    0.66691200150716571995E-02
    0.66700831270591377786E-02
    0.66638031318765394637E-02
    0.66604976689628586639E-02
    0.66551281648246311123E-02
    0.66539129024493215425E-02
    0.66579517440048547466E-02
    0.66577251723973036521E-02
    0.66626767300560045537E-02
    0.66634551546848512851E-02
    0.66478146701680757014E-02
    0.66464632301986032586E-02
    0.66484608000138660511E-02
    0.66473362577366360698E-02
    0.66443166911011510706E-02
    0.66427750553645662987E-02
    0.66405927241740296194E-02
    0.66411802020777937344E-02
    0.66399583321394882798E-02
    0.66409260070264689371E-02
    0.66432157250927523912E-02
    0.66454294472598190308E-02
    0.66438707764088266242E-02
    0.66432622424783581774E-02
    0.66518279139237898590E-02
    0.66516118610702662864E-02
    0.66553856874044256889E-02
    0.66548199411489237370E-02
    0.66505751307051773000E-02
    0.66493706930467683450E-02
    0.66457945681149595968E-02
    0.66455090264614701326E-02
    0.66429585244082807113E-02
    0.66434172872927334252E-02
    0.66464626957609919053E-02
    0.66481060206596527887E-02
    0.66484191423561251819E-02
    0.66481280368893879221E-02
    0.66639568582158381985E-02
    0.66614592488906717443E-02
    0.66648265853553653043E-02
    0.66626586952187568172E-02
    0.66573245173600316058E-02
    0.66542185490259383659E-02
    0.66503970129164141981E-02
    0.66518114972050363526E-02
    0.66496697403229509254E-02
    0.66515636821421284669E-02
    0.66557320217045454203E-02
    0.66597410538849896242E-02
    0.66568310370707173620E-02
    0.66556517434396261085E-02
    0.66700831271131241079E-02
    0.66691200151187549419E-02
    0.66751599028696236363E-02
    0.66736491204907252839E-02
    0.66663435092116953007E-02
    0.66635732293124421907E-02
    0.66577251724168270974E-02
    0.66579517440233859302E-02
    0.66539129024741298229E-02
    0.66551281648457756568E-02
    0.66604976690004414480E-02
    0.66638031319192466209E-02
    0.66634551547235893951E-02
    0.66626767300896243620E-02
    0.66622818979098904699E-02
    0.66632178098282660028E-02
    0.66695126145713918772E-02
    0.66695126145676943141E-02
    0.66632178098262849486E-02
    0.66622818978978115903E-02
    0.66565442654671555522E-02
    0.66552147209366857919E-02
    0.66508112380050639703E-02
    0.66508112379980574222E-02
    0.66552147209469137215E-02
    0.66565442654752749255E-02
    0.66588519650197389513E-02
    0.66588519650168853312E-02
    0.66817307500264830691E-02
    0.66845012954288964349E-02
    0.66950973539011120889E-02
    0.66960844027462293124E-02
    0.66862202393544083526E-02
    0.66856952582416608738E-02
    0.66761960217520434357E-02
    0.66731278696039982370E-02
    0.66656122249109436145E-02
    0.66649420624907427038E-02
    0.66716510910560019448E-02
    0.66726662369531236293E-02
    0.66780788147495226750E-02
    0.66785466113227515833E-02
    0.66856952583043997504E-02
    0.66862202394067241432E-02
    0.66960844028072759662E-02
    0.66950973539499714429E-02
    0.66845012954633914112E-02
    0.66817307500438198956E-02
    0.66726662369602438019E-02
    0.66716510910731219308E-02
    0.66649420625095904744E-02
    0.66656122249334291002E-02
    0.66731278696446488796E-02
    0.66761960218074539730E-02
    0.66785466113621150611E-02
    0.66780788147822421619E-02
    0.67141333439326572607E-02
    0.67167636752583871271E-02
    0.67327391575325761311E-02
    0.67327391575213212452E-02
    0.67167636752389712346E-02
    0.67141333438870626563E-02
    0.66996184661212944064E-02
    0.66964956648834783604E-02
    0.66854221045070574142E-02
    0.66854221045153363820E-02
    0.66964956649041406517E-02
    0.66996184661691701723E-02
    0.67057576542979627221E-02
    0.67057576542920351720E-02
    0.66747568178676377690E-02
    0.66803409757288777920E-02
    0.66895822645228484107E-02
    0.66934631670409350940E-02
    0.66877122701702951604E-02
    0.66921207947920873654E-02
    0.66848445594881802934E-02
    0.66778378066272752259E-02
    0.66705831580380244017E-02
    0.66672282250245578847E-02
    0.66708794999404356224E-02
    0.66682469766713653794E-02
    0.66775739545977238001E-02
    0.66796718111440406968E-02
    0.67107204595521028484E-02
    0.67204809524405917029E-02
    0.67365623144960374777E-02
    0.67432596263796830763E-02
    0.67332180704493850565E-02
    0.67407191206296972544E-02
    0.67281959507939541679E-02
    0.67161359094727321808E-02
    0.67035920904177561525E-02
    0.66977868501961589781E-02
    0.67040756824317164833E-02
    0.66994363941882267843E-02
    0.67156892302756487564E-02
    0.67193215761742362477E-02
    0.66891421457169900414E-02
    0.66945699116215109589E-02
    0.67072505816942306484E-02
    0.67103613997972532193E-02
    0.67002071340786280990E-02
    0.67022858895352090472E-02
    0.66914584810616852331E-02
    0.66854645188459682625E-02
    0.66761726333589123741E-02
    0.66737849901783467474E-02
    0.66803910134343100213E-02
    0.66793444914777788668E-02
    0.66886983186046659530E-02
    0.66902658308183567473E-02
    0.67346524565486979783E-02
    0.67446760390415831307E-02
    0.67669500867591943216E-02
    0.67726829388347724314E-02
    0.67549839674534983835E-02
    0.67586990008247265285E-02
    0.67398353989762309693E-02
    0.67292918918492048222E-02
    0.67131184127690460631E-02
    0.67087961657212886318E-02
    0.67200748269056493484E-02
    0.67177827688621504290E-02
    0.67346647209350083210E-02
    0.67375221551383389362E-02
    0.67731601787552955796E-02
    0.67897531482616832466E-02
    0.68174211308080065116E-02
    0.68284273955467504960E-02
    0.68109172007203185040E-02
    0.68231682073154817370E-02
    0.68019887279301746025E-02
    0.67816674320311035040E-02
    0.67603321922917458675E-02
    0.67504443547273555379E-02
    0.67613573020697537164E-02
    0.67535652267146743799E-02
    0.67812248155042454886E-02
    0.67872984149927265835E-02
    0.68797843044570506157E-02
    0.69067795788991743003E-02
    0.69535979986630391467E-02
    0.69705788604133012143E-02
    0.69402222693215713523E-02
    0.69591323479253047041E-02
    0.69243457791325745826E-02
    0.68911802724701586367E-02
    0.68557395655575066595E-02
    0.68394433620658397210E-02
    0.68582324769717187621E-02
    0.68458672537048586085E-02
    0.68914414977188538647E-02
    0.69011642382124120318E-02
    0.68155883798994686823E-02
    0.68333244177935445474E-02
    0.68728181844278195267E-02
    0.68825618905832847833E-02
    0.68508235423913026868E-02
    0.68564085309292680318E-02
    0.68234235069689038247E-02
    0.68055897499977972831E-02
    0.67774387088555725425E-02
    0.67700457545206886925E-02
    0.67898632260532084184E-02
    0.67858126306638757302E-02
    0.68154718767655143863E-02
    0.68203378101416006069E-02
    0.69587657713246937885E-02
    0.69886875001481897282E-02
    0.70584581702739590883E-02
    0.70733603965840042421E-02
    0.70158318008315453257E-02
    0.70222660308520423733E-02
    0.69649443189254388320E-02
    0.69362657651191759675E-02
    0.68877725177752804550E-02
    0.68758934325981796096E-02
    0.69113842895388273926E-02
    0.69055709614470866392E-02
    0.69557811594586332199E-02
    0.69633999846565900957E-02
    0.67165020871527720409E-02
    0.67225091426033585854E-02
    0.67406345326383341685E-02
    0.67434187395884089000E-02
    0.67272540783108319973E-02
    0.67274683588387255637E-02
    0.67112819517636439562E-02
    0.67051812255088235823E-02
    0.66922508915180480352E-02
    0.66904552884514325445E-02
    0.67012012933326606245E-02
    0.67017064796147671549E-02
    0.67124764928779131687E-02
    0.67137515944672024673E-02
    0.67785490107397268489E-02
    0.67905706956150769377E-02
    0.68225162284516228939E-02
    0.68286660466707095607E-02
    0.68008531789219084721E-02
    0.68021987816605277224E-02
    0.67738152143896205107E-02
    0.67624359107314258380E-02
    0.67397358319325863588E-02
    0.67359695306066355233E-02
    0.67539792841691441774E-02
    0.67534756087793612264E-02
    0.67740465158387013281E-02
    0.67767892237760880142E-02
    0.67634355910905245499E-02
    0.67700964023353470828E-02
    0.67965633235822072930E-02
    0.67987431601065472647E-02
    0.67736677779071967007E-02
    0.67716243471698037149E-02
    0.67475308553891924848E-02
    0.67406298594184441142E-02
    0.67219412449444938817E-02
    0.67206860651468896400E-02
    0.67377621203149945170E-02
    0.67406345197382868187E-02
    0.67537174027125848608E-02
    0.67546593894502217348E-02
    0.68498273322418522582E-02
    0.68646482724292997094E-02
    0.69102863540289067440E-02
    0.69173270186948980845E-02
    0.68758979678561239768E-02
    0.68754811725056062810E-02
    0.68337181540298738355E-02
    0.68195681760111750633E-02
    0.67870527055122397905E-02
    0.67833347376063217460E-02
    0.68108466698030764586E-02
    0.68126925777862671479E-02
    0.68390262442312487259E-02
    0.68419490674208726516E-02
    0.68910718296546161904E-02
    0.69140647147606804773E-02
    0.69717485472687926173E-02
    0.69836066941463825763E-02
    0.69336496815715050260E-02
    0.69360636158064077270E-02
    0.68852314714072269594E-02
    0.68649036753773992961E-02
    0.68244854181735590745E-02
    0.68174350086979817326E-02
    0.68489522899239946990E-02
    0.68468824929800728776E-02
    0.68850737284382864875E-02
    0.68902755078922442791E-02
    0.70970810438237838871E-02
    0.71390566177642793624E-02
    0.72445883756347105586E-02
    0.72649322782064682663E-02
    0.71724908576205051100E-02
    0.71737713906511960810E-02
    0.70819265276095859016E-02
    0.70475496903997184722E-02
    0.69752327168237839711E-02
    0.69632801086617103492E-02
    0.70204329873550797014E-02
    0.70167928269022966301E-02
    0.70856477667024832245E-02
    0.70945143368594592789E-02
    0.70066522724368408143E-02
    0.70379848241832066585E-02
    0.71204759954250325740E-02
    0.71371669330212786364E-02
    0.70643638899829204122E-02
    0.70666435979244096935E-02
    0.69913303742473106861E-02
    0.69638247624315306392E-02
    0.69053149263955315371E-02
    0.68968882127462835877E-02
    0.69437187185517760049E-02
    0.69428533189977419821E-02
    0.69952225733632905982E-02
    0.70020297567201014027E-02
    0.73004413514556410272E-02
    0.73632364689495957352E-02
    0.75173155973665582372E-02
    0.75511454274619586174E-02
    0.74161944206522145348E-02
    0.74205529746778683270E-02
    0.72811377468702757204E-02
    0.72303332297673347448E-02
    0.71227649034985435206E-02
    0.71062366003715408264E-02
    0.71905015143660464677E-02
    0.71849957943709227837E-02
    0.72864046400887561017E-02
    0.72999978107927626994E-02
    0.66921207949344639274E-02
    0.66877122702946410066E-02
    0.66934631671759772450E-02
    0.66895822646429112246E-02
    0.66803409758269850782E-02
    0.66747568179427209378E-02
    0.66682469767314206388E-02
    0.66708795000133642647E-02
    0.66672282250934689074E-02
    0.66705831581173402958E-02
    0.66778378067326909021E-02
    0.66848445596222145701E-02
    0.66796718112478448148E-02
    0.66775739546925229687E-02
    0.67022858896800090178E-02
    0.67002071342154561479E-02
    0.67103613999592286871E-02
    0.67072505818460614532E-02
    0.66945699117372491072E-02
    0.66891421458066093256E-02
    0.66793444915434806511E-02
    0.66803910135116682800E-02
    0.66737849902450399261E-02
    0.66761726334355038850E-02
    0.66854645189488122112E-02
    0.66914584811835209344E-02
    0.66902658309293460900E-02
    0.66886983187085411948E-02
    0.67407191209435278131E-02
    0.67332180707302931658E-02
    0.67432596266856787565E-02
    0.67365623147737458895E-02
    0.67204809526698180630E-02
    0.67107204597398060000E-02
    0.66994363943379724516E-02
    0.67040756826095750792E-02
    0.66977868503597494734E-02
    0.67035920906052832297E-02
    0.67161359097096719889E-02
    0.67281959510874858599E-02
    0.67193215764115030511E-02
    0.67156892304963316034E-02
    0.67586990011604501649E-02
    0.67549839677785968386E-02
    0.67726829392163404725E-02
    0.67669500871242703466E-02
    0.67446760393267508535E-02
    0.67346524567860992228E-02
    0.67177827690421730925E-02
    0.67200748271075538137E-02
    0.67087961658922577735E-02
    0.67131184129610903602E-02
    0.67292918920955069328E-02
    0.67398353992612564448E-02
    0.67375221554065852989E-02
    0.67346647211908167163E-02
    0.67274683590268181607E-02
    0.67272540784853954859E-02
    0.67434187397929163180E-02
    0.67406345328228029282E-02
    0.67225091427436291930E-02
    0.67165020872607993432E-02
    0.67017064796874399255E-02
    0.67012012934254544527E-02
    0.66904552885303242987E-02
    0.66922508916106701257E-02
    0.67051812256391854494E-02
    0.67112819519261910153E-02
    0.67137515946057609029E-02
    0.67124764930058368820E-02
    0.67716243473823524435E-02
    0.67736677780805285357E-02
    0.67987431602962705018E-02
    0.67965633237302147673E-02
    0.67700964024409197514E-02
    0.67634355911435203521E-02
    0.67406345197622676360E-02
    0.67377621203832524163E-02
    0.67206860652148916677E-02
    0.67219412450439178230E-02
    0.67406298595565758078E-02
    0.67475308555796694593E-02
    0.67546593895806616645E-02
    0.67537174028224396943E-02
    0.68021987821179612926E-02
    0.68008531793605064147E-02
    0.68286660471892609084E-02
    0.68225162289322748704E-02
    0.67905706959944852480E-02
    0.67785490110576617634E-02
    0.67534756090128437306E-02
    0.67539792844345048276E-02
    0.67359695308287295679E-02
    0.67397358321807160006E-02
    0.67624359110608983983E-02
    0.67738152147796227773E-02
    0.67767892241351523550E-02
    0.67740465161791798415E-02
    0.68754811730868167080E-02
    0.68758979683833923099E-02
    0.69173270192903887552E-02
    0.69102863545607946458E-02
    0.68646482728397257428E-02
    0.68498273325568346734E-02
    0.68126925780092927390E-02
    0.68108466700955933373E-02
    0.67833347378661338831E-02
    0.67870527058272855231E-02
    0.68195681764207051120E-02
    0.68337181545371885119E-02
    0.68419490678438251233E-02
    0.68390262446200835236E-02
    0.68231682079608873409E-02
    0.68109172013076715868E-02
    0.68284273961862129373E-02
    0.68174211313996452288E-02
    0.67897531487526230007E-02
    0.67731601791704669491E-02
    0.67535652270504075573E-02
    0.67613573024569682823E-02
    0.67504443550822270520E-02
    0.67603321926931513389E-02
    0.67816674325265743559E-02
    0.68019887285316708858E-02
    0.67872984154931422646E-02
    0.67812248159744171333E-02
    0.68564085316464322070E-02
    0.68508235430919115286E-02
    0.68825618914084224845E-02
    0.68728181852194892079E-02
    0.68333244184248295022E-02
    0.68155883804416868624E-02
    0.67858126310855340982E-02
    0.67898632265102933092E-02
    0.67700457549088686321E-02
    0.67774387092810429653E-02
    0.68055897505334876987E-02
    0.68234235075764135270E-02
    0.68203378107280585724E-02
    0.68154718773297817691E-02
    0.69591323491793805403E-02
    0.69402222704869377667E-02
    0.69705788617005545044E-02
    0.69535979998561923618E-02
    0.69067795798942914834E-02
    0.68797843053122875040E-02
    0.68458672544058352116E-02
    0.68582324777614039196E-02
    0.68394433627888993540E-02
    0.68557395663655183032E-02
    0.68911802734510068519E-02
    0.69243457803007738005E-02
    0.69011642392120039341E-02
    0.68914414986650353659E-02
    0.70222660322831155152E-02
    0.70158318022607102718E-02
    0.70733603982776919669E-02
    0.70584581719069332262E-02
    0.69886875014578053386E-02
    0.69587657724748735663E-02
    0.69055709623487395235E-02
    0.69113842904991694416E-02
    0.68758934334117085413E-02
    0.68877725186580014347E-02
    0.69362657662147284357E-02
    0.69649443201504519785E-02
    0.69633999858618742321E-02
    0.69557811606264828910E-02
    0.69360636168054670692E-02
    0.69336496825515092982E-02
    0.69836066953023858209E-02
    0.69717485483675126906E-02
    0.69140647156374209978E-02
    0.68910718304200785367E-02
    0.68468824935580133509E-02
    0.68489522905524893512E-02
    0.68174350092221110836E-02
    0.68244854187451704092E-02
    0.68649036761153896941E-02
    0.68852314722583620940E-02
    0.68902755087056309635E-02
    0.68850737292204247306E-02
    0.70666435992780248301E-02
    0.70643638912553782458E-02
    0.71371669344889015346E-02
    0.71204759967737158918E-02
    0.70379848252592244057E-02
    0.70066522733314784768E-02
    0.69428533196775376116E-02
    0.69437187193356090728E-02
    0.68968882134289016123E-02
    0.69053149271683942137E-02
    0.69638247634161536126E-02
    0.69913303754073471627E-02