# vtk DataFile Version 3.0
LAPLACIEN  2D
ASCII
DATASET UNSTRUCTURED_GRID
FIELD FieldData 1
TIME 1 1 double
14.6000
 POINTS        7297  float
   1.5625000000000000E-002  0.96875000000000000        0.0000000000000000     
   3.1250000000000000E-002  0.96875000000000000        0.0000000000000000     
   3.1250000000000000E-002  0.98437500000000000        0.0000000000000000     
   9.3749999999999997E-003  0.97812500000000002        0.0000000000000000     
   2.0312500000000001E-002  0.97968750000000004        0.0000000000000000     
   2.1874999999999999E-002  0.99062499999999998        0.0000000000000000     
   1.0937499999999999E-002  0.98906249999999996        0.0000000000000000     
   4.6875000000000000E-002  0.96875000000000000        0.0000000000000000     
   6.2500000000000000E-002  0.96875000000000000        0.0000000000000000     
   6.2500000000000000E-002  0.98437500000000000        0.0000000000000000     
   4.0625000000000001E-002  0.97812500000000002        0.0000000000000000     
   5.1562499999999997E-002  0.97968750000000004        0.0000000000000000     
   5.3124999999999999E-002  0.99062499999999998        0.0000000000000000     
   4.2187500000000003E-002  0.98906249999999996        0.0000000000000000     
   1.5625000000000000E-002  0.93750000000000000        0.0000000000000000     
   3.1250000000000000E-002  0.93750000000000000        0.0000000000000000     
   3.1250000000000000E-002  0.95312500000000000        0.0000000000000000     
   9.3749999999999997E-003  0.94687500000000002        0.0000000000000000     
   2.0312500000000001E-002  0.94843750000000004        0.0000000000000000     
   2.1874999999999999E-002  0.95937499999999998        0.0000000000000000     
   1.0937499999999999E-002  0.95781249999999996        0.0000000000000000     
   4.6875000000000000E-002  0.93750000000000000        0.0000000000000000     
   6.2500000000000000E-002  0.93750000000000000        0.0000000000000000     
   6.2500000000000000E-002  0.95312500000000000        0.0000000000000000     
   4.0625000000000001E-002  0.94687500000000002        0.0000000000000000     
   5.1562499999999997E-002  0.94843750000000004        0.0000000000000000     
   5.3124999999999999E-002  0.95937499999999998        0.0000000000000000     
   4.2187500000000003E-002  0.95781249999999996        0.0000000000000000     
   7.8125000000000000E-002  0.96875000000000000        0.0000000000000000     
   9.3750000000000000E-002  0.96875000000000000        0.0000000000000000     
   9.3750000000000000E-002  0.98437500000000000        0.0000000000000000     
   7.1874999999999994E-002  0.97812500000000002        0.0000000000000000     
   8.2812499999999997E-002  0.97968750000000004        0.0000000000000000     
   8.4375000000000006E-002  0.99062499999999998        0.0000000000000000     
   7.3437500000000003E-002  0.98906249999999996        0.0000000000000000     
  0.10937500000000000       0.96875000000000000        0.0000000000000000     
  0.12500000000000000       0.96875000000000000        0.0000000000000000     
  0.12500000000000000       0.98437500000000000        0.0000000000000000     
  0.10312499999999999       0.97812500000000002        0.0000000000000000     
  0.11406250000000000       0.97968750000000004        0.0000000000000000     
  0.11562500000000001       0.99062499999999998        0.0000000000000000     
  0.10468750000000000       0.98906249999999996        0.0000000000000000     
   7.8125000000000000E-002  0.93750000000000000        0.0000000000000000     
   9.3750000000000000E-002  0.93750000000000000        0.0000000000000000     
   9.3750000000000000E-002  0.95312500000000000        0.0000000000000000     
   7.1874999999999994E-002  0.94687500000000002        0.0000000000000000     
   8.2812499999999997E-002  0.94843750000000004        0.0000000000000000     
   8.4375000000000006E-002  0.95937499999999998        0.0000000000000000     
   7.3437500000000003E-002  0.95781249999999996        0.0000000000000000     
  0.10937500000000000       0.93750000000000000        0.0000000000000000     
  0.12500000000000000       0.93750000000000000        0.0000000000000000     
  0.12500000000000000       0.95312500000000000        0.0000000000000000     
  0.10312499999999999       0.94687500000000002        0.0000000000000000     
  0.11406250000000000       0.94843750000000004        0.0000000000000000     
  0.11562500000000001       0.95937499999999998        0.0000000000000000     
  0.10468750000000000       0.95781249999999996        0.0000000000000000     
   1.5625000000000000E-002  0.90625000000000000        0.0000000000000000     
   3.1250000000000000E-002  0.90625000000000000        0.0000000000000000     
   3.1250000000000000E-002  0.92187500000000000        0.0000000000000000     
   9.3749999999999997E-003  0.91562500000000002        0.0000000000000000     
   2.0312500000000001E-002  0.91718750000000004        0.0000000000000000     
   2.1874999999999999E-002  0.92812499999999998        0.0000000000000000     
   1.0937499999999999E-002  0.92656249999999996        0.0000000000000000     
   4.6875000000000000E-002  0.90625000000000000        0.0000000000000000     
   6.2500000000000000E-002  0.90625000000000000        0.0000000000000000     
   6.2500000000000000E-002  0.92187500000000000        0.0000000000000000     
   4.0625000000000001E-002  0.91562500000000002        0.0000000000000000     
   5.1562499999999997E-002  0.91718750000000004        0.0000000000000000     
   5.3124999999999999E-002  0.92812499999999998        0.0000000000000000     
   4.2187500000000003E-002  0.92656249999999996        0.0000000000000000     
   1.5625000000000000E-002  0.87500000000000000        0.0000000000000000     
   3.1250000000000000E-002  0.87500000000000000        0.0000000000000000     
   3.1250000000000000E-002  0.89062500000000000        0.0000000000000000     
   9.3749999999999997E-003  0.88437500000000002        0.0000000000000000     
   2.0312500000000001E-002  0.88593750000000004        0.0000000000000000     
   2.1874999999999999E-002  0.89687499999999998        0.0000000000000000     
   1.0937499999999999E-002  0.89531249999999996        0.0000000000000000     
   4.6875000000000000E-002  0.87500000000000000        0.0000000000000000     
   6.2500000000000000E-002  0.87500000000000000        0.0000000000000000     
   6.2500000000000000E-002  0.89062500000000000        0.0000000000000000     
   4.0625000000000001E-002  0.88437500000000002        0.0000000000000000     
   5.1562499999999997E-002  0.88593750000000004        0.0000000000000000     
   5.3124999999999999E-002  0.89687499999999998        0.0000000000000000     
   4.2187500000000003E-002  0.89531249999999996        0.0000000000000000     
   7.8125000000000000E-002  0.90625000000000000        0.0000000000000000     
   9.3750000000000000E-002  0.90625000000000000        0.0000000000000000     
   9.3750000000000000E-002  0.92187500000000000        0.0000000000000000     
   7.1874999999999994E-002  0.91562500000000002        0.0000000000000000     
   8.2812499999999997E-002  0.91718750000000004        0.0000000000000000     
   8.4375000000000006E-002  0.92812499999999998        0.0000000000000000     
   7.3437500000000003E-002  0.92656249999999996        0.0000000000000000     
  0.10937500000000000       0.90625000000000000        0.0000000000000000     
  0.12500000000000000       0.90625000000000000        0.0000000000000000     
  0.12500000000000000       0.92187500000000000        0.0000000000000000     
  0.10312499999999999       0.91562500000000002        0.0000000000000000     
  0.11406250000000000       0.91718750000000004        0.0000000000000000     
  0.11562500000000001       0.92812499999999998        0.0000000000000000     
  0.10468750000000000       0.92656249999999996        0.0000000000000000     
   7.8125000000000000E-002  0.87500000000000000        0.0000000000000000     
   9.3750000000000000E-002  0.87500000000000000        0.0000000000000000     
   9.3750000000000000E-002  0.89062500000000000        0.0000000000000000     
   7.1874999999999994E-002  0.88437500000000002        0.0000000000000000     
   8.2812499999999997E-002  0.88593750000000004        0.0000000000000000     
   8.4375000000000006E-002  0.89687499999999998        0.0000000000000000     
   7.3437500000000003E-002  0.89531249999999996        0.0000000000000000     
  0.10937500000000000       0.87500000000000000        0.0000000000000000     
  0.12500000000000000       0.87500000000000000        0.0000000000000000     
  0.12500000000000000       0.89062500000000000        0.0000000000000000     
  0.10312499999999999       0.88437500000000002        0.0000000000000000     
  0.11406250000000000       0.88593750000000004        0.0000000000000000     
  0.11562500000000001       0.89687499999999998        0.0000000000000000     
  0.10468750000000000       0.89531249999999996        0.0000000000000000     
  0.14062500000000000       0.96875000000000000        0.0000000000000000     
  0.15625000000000000       0.96875000000000000        0.0000000000000000     
  0.15625000000000000       0.98437500000000000        0.0000000000000000     
  0.13437499999999999       0.97812500000000002        0.0000000000000000     
  0.14531250000000001       0.97968750000000004        0.0000000000000000     
  0.14687500000000001       0.99062499999999998        0.0000000000000000     
  0.13593749999999999       0.98906249999999996        0.0000000000000000     
  0.17187500000000000       0.96875000000000000        0.0000000000000000     
  0.18750000000000000       0.96875000000000000        0.0000000000000000     
  0.18750000000000000       0.98437500000000000        0.0000000000000000     
  0.16562499999999999       0.97812500000000002        0.0000000000000000     
  0.17656250000000001       0.97968750000000004        0.0000000000000000     
[...]
 CELL_DATA       14336
 SCALARS Nutrient float
 LOOKUP_TABLE default
    0.88306731787180202387E-02
    0.88305905619860836780E-02
    0.88312427652026681546E-02
    0.88312427650837979631E-02
    0.88305905624623017014E-02
    0.88306731783094442878E-02
    0.88301565677390246589E-02
    0.88298503751759026964E-02
    0.88295197678015108211E-02
    0.88295197650723085403E-02
    0.88298503765800416543E-02
    0.88301565671534080343E-02
    0.88301085876742388403E-02
    0.88301085872310672992E-02
    0.88328184482169384839E-02
    0.88333898599742676633E-02
    0.88349402027395555065E-02
    0.88353698192139805412E-02
    0.88342074139337260080E-02
    0.88347639294367227153E-02
    0.88335458241047722094E-02
    0.88325323187986234941E-02
    0.88314616196675174709E-02
    0.88310797156608920183E-02
    0.88317451538713290932E-02
    0.88316633262004781008E-02
    0.88327083728438511578E-02
    0.88329370715328446584E-02
    0.88347639295073641247E-02
    0.88342074138577902226E-02
    0.88353698192417447904E-02
    0.88349402027071179122E-02
    0.88333898600888582919E-02
    0.88328184480703491460E-02
    0.88316633264906505008E-02
    0.88317451535854848282E-02
    0.88310797160282041018E-02
    0.88314616193148221673E-02
    0.88325323189780043098E-02
    0.88335458240388995549E-02
    0.88329370716199832880E-02
    0.88327083727996608120E-02
    0.88376409843654597093E-02
    0.88378906346071265526E-02
    0.88403140431447240627E-02
    0.88403140431340242883E-02
    0.88378906346402649752E-02
    0.88376409843282082573E-02
    0.88354926862601376042E-02
    0.88348800124133219230E-02
    0.88332820831398435601E-02
    0.88332820829973186794E-02
    0.88348800125021137442E-02
    0.88354926861992869741E-02
    0.88361983317789272174E-02
    0.88361983317533972920E-02
    0.88385482666418647285E-02
    0.88400918340850488664E-02
    0.88431149320372364614E-02
    0.88442408225248205639E-02
    0.88422410128809799529E-02
    0.88435938567780394276E-02
    0.88412059062665856318E-02
    0.88389895796583788090E-02
    0.88366969214173553965E-02
    0.88357283040246311495E-02
    0.88369514650605690553E-02
    0.88363632323230894422E-02
    0.88390362004497225606E-02
    0.88396453664352260537E-02
    0.88500051567774965650E-02
    0.88531146800887288578E-02
    0.88584547666508538927E-02
    0.88606252046644646408E-02
    0.88572542182372166614E-02
    0.88597545347868615628E-02
    0.88555340613037034081E-02
    0.88515205024402715539E-02
    0.88473473731952197163E-02
    0.88454512068155601717E-02
    0.88475954718823905665E-02
    0.88461792494788082930E-02
    0.88514400994145463891E-02
    0.88526207841514437114E-02
    0.88451515921317194063E-02
    0.88463575160573123396E-02
    0.88506071486335064630E-02
    0.88511735688128582999E-02
    0.88473954767590273079E-02
    0.88476117196474666354E-02
    0.88438856217772539303E-02
    0.88422403249044968787E-02
    0.88391913412794852895E-02
    0.88387318518824246893E-02
    0.88412855079563184429E-02
    0.88415713177174247439E-02
    0.88439076093929924749E-02
    0.88441991392289240337E-02
    0.88593701956453385638E-02
    0.88621436435917296665E-02
    0.88694570252543514233E-02
    0.88709695803717396323E-02
    0.88649232126878797083E-02
    0.88658872840799343024E-02
    0.88596005232292295017E-02
    0.88562913349962985726E-02
    0.88509158572012015115E-02
    0.88496990512083300445E-02
    0.88537425858718921817E-02
    0.88535156824212906529E-02
    0.88584728551109898770E-02
    0.88592522178271675137E-02
    0.88435938568091638362E-02
    0.88422410128832125420E-02
    0.88442408225446710046E-02
    0.88431149320434311589E-02
    0.88400918341177275872E-02
    0.88385482666145046698E-02
    0.88363632323880756531E-02
    0.88369514650178514897E-02
    0.88357283040908472793E-02
    0.88366969213763604113E-02
    0.88389895796990233801E-02
    0.88412059062761959999E-02
    0.88396453664610612905E-02
    0.88390362004559033804E-02
    0.88476117196671557469E-02
    0.88473954767617664363E-02
    0.88511735688285124446E-02
    0.88506071486415226202E-02
    0.88463575160734400638E-02
    0.88451515921218679117E-02
    0.88415713177389110289E-02
    0.88412855079344765397E-02
    0.88387318519218358720E-02
    0.88391913412569321495E-02
    0.88422403249296468997E-02
    0.88438856217762183004E-02
    0.88441991392445521575E-02
    0.88439076093953898627E-02
    0.88597545348449158187E-02
    0.88572542182822986551E-02
    0.88606252047157933738E-02
    0.88584547666934847221E-02
    0.88531146801274860497E-02
    0.88500051567951040082E-02
    0.88461792495067147896E-02
    0.88475954718998193332E-02
    0.88454512068461589591E-02
    0.88473473732171709072E-02
    0.88515205024845763915E-02
    0.88555340613564233893E-02
    0.88526207841925861480E-02
    0.88514400994474488893E-02
    0.88658872841328607156E-02
    0.88649232127332548703E-02
    0.88709695804289421389E-02
    0.88694570253048700403E-02
    0.88621436436304174694E-02
    0.88593701956662610636E-02
    0.88535156824416112037E-02
    0.88537425858880355184E-02
    0.88496990512342641605E-02
    0.88509158572200614251E-02
    0.88562913350335222690E-02
    0.88596005232700180548E-02
    0.88592522178652932663E-02
    0.88584728551435020644E-02
    0.88580773556691718568E-02
    0.88590143659182767066E-02
    0.88653159262035291510E-02
    0.88653159261995583690E-02
    0.88590143659172601587E-02
    0.88580773556566627658E-02
    0.88523333933562247527E-02
    0.88510023263867476651E-02
    0.88465937769403070468E-02
    0.88465937769303341215E-02
    0.88510023263987033793E-02
    0.88523333933625287379E-02
    0.88546437194094718137E-02
    0.88546437194061376752E-02
    0.88775471443759516876E-02
    0.88803206212151424015E-02
    0.88909276691243096374E-02
    0.88919158389158155231E-02
    0.88820414122280366698E-02
    0.88815158961798850584E-02
    0.88720067638488869094E-02
    0.88689352081449662063E-02
    0.88614114351173341178E-02
    0.88607404168906146735E-02
    0.88674567438972555500E-02
    0.88684729637465396779E-02
    0.88738913855742063141E-02
    0.88743597605172308551E-02
    0.88815158962418042782E-02
    0.88820414122793150957E-02
    0.88919158389763157391E-02
    0.88909276691724447444E-02
    0.88803206212494968652E-02
    0.88775471443928444248E-02
    0.88684729637539799069E-02
    0.88674567439133746005E-02
    0.88607404169098648999E-02
    0.88614114351384248858E-02
    0.88689352081853523035E-02
    0.88720067639029894652E-02
    0.88743597605561216207E-02
    0.88738913856062778818E-02
    0.89099831569974616979E-02
    0.89126163505982795160E-02
    0.89286076010846541356E-02
    0.89286076010733281261E-02
    0.89126163505792010272E-02
    0.89099831569522530694E-02
    0.88954535815748622674E-02
    0.88923276454735116631E-02
    0.88812424788551735250E-02
    0.88812424788630300876E-02
    0.88923276454942051794E-02
    0.88954535816221577682E-02
    0.89015992408763497390E-02
    0.89015992408704273930E-02
    0.88705661381710196323E-02
    0.88761564642551235571E-02
    0.88854072853271764965E-02
    0.88892926192259535262E-02
    0.88835357565553354359E-02
    0.88879489095053595960E-02
    0.88806650219879108843E-02
    0.88736506956255487705E-02
    0.88663882696610029494E-02
    0.88630294735933413258E-02
    0.88666849105447330393E-02
    0.88640492276397270938E-02
    0.88733865197843462408E-02
    0.88754867877612539373E-02
    0.89065673097409314707E-02
    0.89163376523463365453E-02
    0.89324346364651838887E-02
    0.89391389951098080419E-02
    0.89290876843709284655E-02
    0.89365961602835049943E-02
    0.89240608729022723178E-02
    0.89119885866314821343E-02
    0.88994321555493829251E-02
    0.88936207280302641970E-02
    0.88999161584535375208E-02
    0.88952716617853536812E-02
    0.89115413119502020350E-02
    0.89151775232735128857E-02
    0.88849664300820248991E-02
    0.88903998177466293101E-02
    0.89030931514795883658E-02
    0.89062074896289391418E-02
    0.88960428648390908052E-02
    0.88981238120998187857E-02
    0.88872856421740586974E-02
    0.88812850762369690422E-02
    0.88719834695126509327E-02
    0.88695930582447825297E-02
    0.88762062544161975108E-02
    0.88751584602141143920E-02
    0.88845222218565667038E-02
    0.88860915024448795807E-02
    0.89305221067176171479E-02
    0.89405555079636982174E-02
    0.89628503108657824050E-02
    0.89685888617902168735E-02
    0.89508734726570348544E-02
    0.89545922560520952588E-02
    0.89357109986729615220E-02
    0.89251568726315486796E-02
    0.89089675539599007953E-02
    0.89046406382291970472E-02
    0.89159305879139318096E-02
    0.89136358707479872165E-02
    0.89305346446561136020E-02
    0.89333950532338567835E-02
    0.89690676071777063888E-02
    0.89856762761517331578E-02
    0.90133696183908769417E-02
    0.90243861064447459391E-02
    0.90068605036242761763E-02
    0.90191229497465080778E-02
    0.89979241892082020837E-02
    0.89775837650559568714E-02
    0.89562284520436474117E-02
    0.89463307398512277591E-02
    0.89572542157795986134E-02
    0.89494541098450106076E-02
    0.89771403368953742175E-02
    0.89832198516004244798E-02
    0.90757880501666082784E-02
    0.91028072224026684162E-02
    0.91496651460240708414E-02
    0.91666608308632914481E-02
    0.91362798881570086301E-02
    0.91552067447798080729E-02
    0.91203907310422414195E-02
    0.90871958160929095644E-02
    0.90517240893630314391E-02
    0.90354128832655505876E-02
    0.90542184634731844722E-02
    0.90418414463972664880E-02
    0.90874566332354300702E-02
    0.90971881140266743632E-02
    0.90115330331632832739E-02
    0.90292848584375938470E-02
    0.90688129309267392214E-02
    0.90785650823301013157E-02
    0.90468001504293814319E-02
    0.90523906918647256692E-02
    0.90193770762021611975E-02
    0.90015265541862968246E-02
    0.89733499882883385745E-02
    0.89659496956018321784E-02
    0.89857851886677303499E-02
    0.89817303340517049698E-02
    0.90114170313722492811E-02
    0.90162875425430760029E-02
    0.91548320544694306022E-02
    0.91847786328305182357E-02
    0.92546047571614512006E-02
    0.92695191490918902449E-02
    0.92119466469942502124E-02
    0.92183875404411447230E-02
    0.91610201308062536030E-02
    0.91323166332483579621E-02
    0.90837825977322667753E-02
    0.90718924904864758907E-02
    0.91074128381084425155E-02
    0.91015937652573711963E-02
    0.91518467823479589252E-02
    0.91594723001466836487E-02
    0.89123540273332458456E-02
    0.89183670464134598421E-02
    0.89365098064790923077E-02
    0.89392969125999602320E-02
    0.89231165140309653960E-02
    0.89233309416083938376E-02
    0.89071287837491699979E-02
    0.89010217952947539438E-02
    0.88880784333978512385E-02
    0.88862808130368269727E-02
    0.88970379049126569609E-02
    0.88975434879637344682E-02
    0.89083243547356544961E-02
    0.89096008399129657251E-02
    0.89744600608594096020E-02
    0.89864925637533170366E-02
    0.90184668077127518732E-02
    0.90246221085191306865E-02
    0.89967843029588948078E-02
    0.89981311440153338710E-02
    0.89697220033771677544E-02
    0.89583317685738069608E-02
    0.89356103864579577295E-02
    0.89318402978239928164E-02
    0.89498672812233504015E-02
    0.89493629975905888974E-02
    0.89699532481487733587E-02
    0.89726985909975368050E-02
    0.89593336292883903743E-02
    0.89660005912277490614E-02
    0.89924921201630179241E-02
    0.89946739155735196819E-02
    0.89695749085422129404E-02
    0.89675292582891159149E-02
    0.89434131202147052614E-02
    0.89365054506984099858E-02
    0.89177986828849215711E-02
    0.89165423550631450755E-02
    0.89336353381296966514E-02
    0.89365106392625525550E-02
    0.89496059729971700475E-02
    0.89505488099089480780E-02
    0.90458040544573823510E-02
    0.90606376546531960936E-02
    0.91063148546507537151E-02
    0.91133611270862169285E-02
    0.90718960753587239015E-02
    0.90714782408598329533E-02
    0.90296788596413990469E-02
    0.90155165978197150667E-02
    0.89829716843180772157E-02
    0.89792504645463816493E-02
    0.90067879846161841978E-02
    0.90086357372957150125E-02
    0.90349926049612758888E-02
    0.90379178282765770119E-02
    0.90870815431570248905E-02
    0.91100935958801140119E-02
    0.91678247726936640261E-02
    0.91796922435985906646E-02
    0.91296946862648425264E-02
    0.91321106682898944840E-02
    0.90812363305691826132E-02
    0.90608910882907251622E-02
    0.90204377717025465561E-02
    0.90133809051332839518E-02
    0.90449259242203917247E-02
    0.90428542045794847726E-02
    0.90810782775152341234E-02
    0.90862844622064918576E-02
    0.92932554910509484331E-02
    0.93352626156641312083E-02
    0.94408729574344801144E-02
    0.94612314340501105919E-02
    0.93687223076454051451E-02
    0.93700043399854819615E-02
    0.92780904645228395866E-02
    0.92436861988506278942E-02
    0.91713121383672942255E-02
    0.91593494047468651531E-02
    0.92165477325632447214E-02
    0.92129047384544894561E-02
    0.92818133318428933110E-02
    0.92906868242181375739E-02
    0.92027602146927626331E-02
    0.92341166984548517932E-02
    0.93166726723990338221E-02
    0.93333751716487400180E-02
    0.92605148664849853968E-02
    0.92627953062342036766E-02
    0.91874224783480024775E-02
    0.91598950157834486963E-02
    0.91013369905173432950E-02
    0.90929034195267217922E-02
    0.91397735883925659145E-02
    0.91389084787287487577E-02
    0.91913193396096250221E-02
    0.91981316701715276629E-02
    0.94967715966266848943E-02
    0.95596095802202036423E-02
    0.97137973591307179289E-02
    0.97476482824541809541E-02
    0.96126027760279533080E-02
    0.96169628245883712753E-02
    0.94774486790512469520E-02
    0.94266075395593364877E-02
    0.93189590673131358911E-02
    0.93024187384951571855E-02
    0.93867479717138699313E-02
    0.93812395695552271840E-02
    0.94827214119941553166E-02
    0.94963237761692461530E-02
    0.88879489096455495389E-02
    0.88835357566772743532E-02
    0.88892926193588593653E-02
    0.88854072854449798330E-02
    0.88761564643515707129E-02
    0.88705661382440289392E-02
    0.88640492276986435072E-02
    0.88666849106155184307E-02
    0.88630294736609608469E-02
    0.88663882697381148773E-02
    0.88736506957292227843E-02
    0.88806650221195989475E-02
    0.88754867878631238387E-02
    0.88733865198771712940E-02
    0.88981238122425206083E-02
    0.88960428649737435108E-02
    0.89062074897890575881E-02
    0.89030931516294702088E-02
    0.88903998178608955455E-02
    0.88849664301700517072E-02
    0.88751584602788299860E-02
    0.88762062544916510431E-02
    0.88695930583104071188E-02
    0.88719834695872752672E-02
    0.88812850763381363806E-02
    0.88872856422936349213E-02
    0.88860915025541723639E-02
    0.88845222219587037527E-02
    0.89365961605941471313E-02
    0.89290876846486004481E-02
    0.89391389954126734135E-02
    0.89324346367397680635E-02
    0.89163376525728879618E-02
    0.89065673099259588114E-02
    0.88952716619327999725E-02
    0.88999161586286942849E-02
    0.88936207281914703149E-02
    0.88994321557341223017E-02
    0.89119885868656819466E-02
    0.89240608731926129860E-02
    0.89151775235079035176E-02
    0.89115413121680694258E-02
    0.89545922563847649145E-02
    0.89508734729791348400E-02
    0.89685888621690371125E-02
    0.89628503112280308307E-02
    0.89405555082464616135E-02
    0.89305221069527415678E-02
    0.89136358709259594368E-02
    0.89159305881133486815E-02
    0.89046406383979700289E-02
    0.89089675541492961697E-02
    0.89251568728752200821E-02
    0.89357109989548853118E-02
    0.89333950534994568254E-02
    0.89305346449093572087E-02
    0.89233309417947222209E-02
    0.89231165142038583460E-02
    0.89392969128031483927E-02
    0.89365098066621056344E-02
    0.89183670465527008914E-02
    0.89123540274403337952E-02
    0.88975434880357012063E-02
    0.88970379050041792368E-02
    0.88862808131148461610E-02
    0.88880784334889207515E-02
    0.89010217954237878801E-02
    0.89071287839099025363E-02
    0.89096008400502118424E-02
    0.89083243548622910446E-02
    0.89675292585004156426E-02
    0.89695749087145264927E-02
    0.89946739157625073963E-02
    0.89924921203102803346E-02
    0.89660005913328889166E-02
    0.89593336293411936222E-02
    0.89365106392863234708E-02
    0.89336353381973612753E-02
    0.89165423551307420452E-02
    0.89177986829833827409E-02
    0.89365054508357393698E-02
    0.89434131204039913482E-02
    0.89505488100386464134E-02
    0.89496059731063708903E-02
    0.89981311444700569357E-02
    0.89967843033950164328E-02
    0.90246221090354451083E-02
    0.90184668081912094245E-02
    0.89864925641308327636E-02
    0.89744600611757017333E-02
    0.89493629978224589760E-02
    0.89498672814867369363E-02
    0.89318402980442836159E-02
    0.89356103867038114141E-02
    0.89583317689010521362E-02
    0.89697220037645783441E-02
    0.89726985913544162615E-02
    0.89699532484871502547E-02
    0.90714782414390206927E-02
    0.90718960758841716424E-02
    0.91133611276802990037E-02
    0.91063148551810395998E-02
    0.90606376550624260352E-02
    0.90458040547713846474E-02
    0.90086357375177769646E-02
    0.90067879849073679416E-02
    0.89792504648050185112E-02
    0.89829716846314116435E-02
    0.90155165982276231490E-02
    0.90296788601466910357E-02
    0.90379178286979864471E-02
    0.90349926053486691313E-02
    0.90191229503877520801E-02
    0.90068605042074156158E-02
    0.90243861070801248414E-02
    0.90133696189784104358E-02
    0.89856762766390204517E-02
    0.89690676075892868807E-02
    0.89494541101774634229E-02
    0.89572542161631789337E-02
    0.89463307402027278381E-02
    0.89562284524413379727E-02
    0.89775837655477006699E-02
    0.89979241898055332960E-02
    0.89832198520969769318E-02
    0.89771403373617719712E-02
    0.90523906925778531429E-02
    0.90468001511260845438E-02
    0.90785650831514859427E-02
    0.90688129317147685854E-02
    0.90292848590655169078E-02
    0.90115330337023815538E-02
    0.89817303344703319085E-02
    0.89857851891214698264E-02
    0.89659496959867985427E-02
    0.89733499887102701614E-02
    0.90015265547184041689E-02
    0.90193770768056541476E-02
    0.90162875431259413561E-02
    0.90114170319330177267E-02
    0.91552067460287881590E-02
    0.91362798893172073034E-02
    0.91666608321455018971E-02
    0.91496651472122159099E-02
    0.91028072233931243973E-02
    0.90757880510173305488E-02
    0.90418414470939591915E-02
    0.90542184642582665410E-02
    0.90354128839842187682E-02
    0.90517240901663645336E-02
    0.90871958170690367296E-02
    0.91203907322053284074E-02
    0.90971881150214480710E-02
    0.90874566341768506228E-02
    0.92183875418672765051E-02
    0.92119466484186073724E-02
    0.92695191507810824338E-02
    0.92546047587898899039E-02
    0.91847786341359254070E-02
    0.91548320556155589334E-02
    0.91015937661551218202E-02
    0.91074128390644885217E-02
    0.90718924912958614354E-02
    0.90837825986104740045E-02
    0.91323166343393845368E-02
    0.91610201320262950320E-02
    0.91594723013474540346E-02
    0.91518467835113876535E-02
    0.91321106692854592257E-02
    0.91296946872415282725E-02
    0.91796922447516405424E-02
    0.91678247737892945568E-02
    0.91100935967541596394E-02
    0.90870815439199822960E-02
    0.90428542051549862246E-02
    0.90449259248460596450E-02
    0.90133809056547383592E-02
    0.90204377722709807447E-02
    0.90608910890256043336E-02
    0.90812363314167685036E-02
    0.90862844630167968057E-02
    0.90810782782944233366E-02
    0.92627953075849721321E-02
    0.92605148677549209424E-02
    0.93333751731140886937E-02
    0.93166726737455816953E-02
    0.92341166995288954250E-02
    0.92027602155857791966E-02
    0.91389084794067047129E-02
    0.91397735891743103753E-02
    0.90929034202072676896E-02
    0.91013369912877409296E-02
    0.91598950167656317811E-02
    0.91874224795053197751E-02