# vtk DataFile Version 3.0
LAPLACIEN  2D
ASCII
DATASET UNSTRUCTURED_GRID
FIELD FieldData 1
TIME 1 1 double
5.0000
 POINTS        7297  float
   1.5625000000000000E-002  0.96875000000000000        0.0000000000000000     
   3.1250000000000000E-002  0.96875000000000000        0.0000000000000000     
   3.1250000000000000E-002  0.98437500000000000        0.0000000000000000     
   9.3749999999999997E-003  0.97812500000000002        0.0000000000000000     
   2.0312500000000001E-002  0.97968750000000004        0.0000000000000000     
   2.1874999999999999E-002  0.99062499999999998        0.0000000000000000     
   1.0937499999999999E-002  0.98906249999999996        0.0000000000000000     
   4.6875000000000000E-002  0.96875000000000000        0.0000000000000000     
   6.2500000000000000E-002  0.96875000000000000        0.0000000000000000     
   6.2500000000000000E-002  0.98437500000000000        0.0000000000000000     
   4.0625000000000001E-002  0.97812500000000002        0.0000000000000000     
   5.1562499999999997E-002  0.97968750000000004        0.0000000000000000     
   5.3124999999999999E-002  0.99062499999999998        0.0000000000000000     
   4.2187500000000003E-002  0.98906249999999996        0.0000000000000000     
   1.5625000000000000E-002  0.93750000000000000        0.0000000000000000     
   3.1250000000000000E-002  0.93750000000000000        0.0000000000000000     
   3.1250000000000000E-002  0.95312500000000000        0.0000000000000000     
   9.3749999999999997E-003  0.94687500000000002        0.0000000000000000     
   2.0312500000000001E-002  0.94843750000000004        0.0000000000000000     
   2.1874999999999999E-002  0.95937499999999998        0.0000000000000000     
   1.0937499999999999E-002  0.95781249999999996        0.0000000000000000     
   4.6875000000000000E-002  0.93750000000000000        0.0000000000000000     
   6.2500000000000000E-002  0.93750000000000000        0.0000000000000000     
   6.2500000000000000E-002  0.95312500000000000        0.0000000000000000     
   4.0625000000000001E-002  0.94687500000000002        0.0000000000000000     
   5.1562499999999997E-002  0.94843750000000004        0.0000000000000000     
   5.3124999999999999E-002  0.95937499999999998        0.0000000000000000     
   4.2187500000000003E-002  0.95781249999999996        0.0000000000000000     
   7.8125000000000000E-002  0.96875000000000000        0.0000000000000000     
   9.3750000000000000E-002  0.96875000000000000        0.0000000000000000     
   9.3750000000000000E-002  0.98437500000000000        0.0000000000000000     
   7.1874999999999994E-002  0.97812500000000002        0.0000000000000000     
   8.2812499999999997E-002  0.97968750000000004        0.0000000000000000     
   8.4375000000000006E-002  0.99062499999999998        0.0000000000000000     
   7.3437500000000003E-002  0.98906249999999996        0.0000000000000000     
  0.10937500000000000       0.96875000000000000        0.0000000000000000     
  0.12500000000000000       0.96875000000000000        0.0000000000000000     
  0.12500000000000000       0.98437500000000000        0.0000000000000000     
  0.10312499999999999       0.97812500000000002        0.0000000000000000     
  0.11406250000000000       0.97968750000000004        0.0000000000000000     
  0.11562500000000001       0.99062499999999998        0.0000000000000000     
  0.10468750000000000       0.98906249999999996        0.0000000000000000     
   7.8125000000000000E-002  0.93750000000000000        0.0000000000000000     
   9.3750000000000000E-002  0.93750000000000000        0.0000000000000000     
   9.3750000000000000E-002  0.95312500000000000        0.0000000000000000     
   7.1874999999999994E-002  0.94687500000000002        0.0000000000000000     
   8.2812499999999997E-002  0.94843750000000004        0.0000000000000000     
   8.4375000000000006E-002  0.95937499999999998        0.0000000000000000     
   7.3437500000000003E-002  0.95781249999999996        0.0000000000000000     
  0.10937500000000000       0.93750000000000000        0.0000000000000000     
  0.12500000000000000       0.93750000000000000        0.0000000000000000     
  0.12500000000000000       0.95312500000000000        0.0000000000000000     
  0.10312499999999999       0.94687500000000002        0.0000000000000000     
  0.11406250000000000       0.94843750000000004        0.0000000000000000     
  0.11562500000000001       0.95937499999999998        0.0000000000000000     
  0.10468750000000000       0.95781249999999996        0.0000000000000000     
   1.5625000000000000E-002  0.90625000000000000        0.0000000000000000     
   3.1250000000000000E-002  0.90625000000000000        0.0000000000000000     
   3.1250000000000000E-002  0.92187500000000000        0.0000000000000000     
   9.3749999999999997E-003  0.91562500000000002        0.0000000000000000     
   2.0312500000000001E-002  0.91718750000000004        0.0000000000000000     
   2.1874999999999999E-002  0.92812499999999998        0.0000000000000000     
   1.0937499999999999E-002  0.92656249999999996        0.0000000000000000     
   4.6875000000000000E-002  0.90625000000000000        0.0000000000000000     
   6.2500000000000000E-002  0.90625000000000000        0.0000000000000000     
   6.2500000000000000E-002  0.92187500000000000        0.0000000000000000     
   4.0625000000000001E-002  0.91562500000000002        0.0000000000000000     
   5.1562499999999997E-002  0.91718750000000004        0.0000000000000000     
   5.3124999999999999E-002  0.92812499999999998        0.0000000000000000     
   4.2187500000000003E-002  0.92656249999999996        0.0000000000000000     
   1.5625000000000000E-002  0.87500000000000000        0.0000000000000000     
   3.1250000000000000E-002  0.87500000000000000        0.0000000000000000     
   3.1250000000000000E-002  0.89062500000000000        0.0000000000000000     
   9.3749999999999997E-003  0.88437500000000002        0.0000000000000000     
   2.0312500000000001E-002  0.88593750000000004        0.0000000000000000     
   2.1874999999999999E-002  0.89687499999999998        0.0000000000000000     
   1.0937499999999999E-002  0.89531249999999996        0.0000000000000000     
   4.6875000000000000E-002  0.87500000000000000        0.0000000000000000     
   6.2500000000000000E-002  0.87500000000000000        0.0000000000000000     
   6.2500000000000000E-002  0.89062500000000000        0.0000000000000000     
   4.0625000000000001E-002  0.88437500000000002        0.0000000000000000     
   5.1562499999999997E-002  0.88593750000000004        0.0000000000000000     
   5.3124999999999999E-002  0.89687499999999998        0.0000000000000000     
   4.2187500000000003E-002  0.89531249999999996        0.0000000000000000     
   7.8125000000000000E-002  0.90625000000000000        0.0000000000000000     
   9.3750000000000000E-002  0.90625000000000000        0.0000000000000000     
   9.3750000000000000E-002  0.92187500000000000        0.0000000000000000     
   7.1874999999999994E-002  0.91562500000000002        0.0000000000000000     
   8.2812499999999997E-002  0.91718750000000004        0.0000000000000000     
   8.4375000000000006E-002  0.92812499999999998        0.0000000000000000     
   7.3437500000000003E-002  0.92656249999999996        0.0000000000000000     
  0.10937500000000000       0.90625000000000000        0.0000000000000000     
  0.12500000000000000       0.90625000000000000        0.0000000000000000     
  0.12500000000000000       0.92187500000000000        0.0000000000000000     
  0.10312499999999999       0.91562500000000002        0.0000000000000000     
  0.11406250000000000       0.91718750000000004        0.0000000000000000     
  0.11562500000000001       0.92812499999999998        0.0000000000000000     
  0.10468750000000000       0.92656249999999996        0.0000000000000000     
   7.8125000000000000E-002  0.87500000000000000        0.0000000000000000     
   9.3750000000000000E-002  0.87500000000000000        0.0000000000000000     
   9.3750000000000000E-002  0.89062500000000000        0.0000000000000000     
   7.1874999999999994E-002  0.88437500000000002        0.0000000000000000     
   8.2812499999999997E-002  0.88593750000000004        0.0000000000000000     
   8.4375000000000006E-002  0.89687499999999998        0.0000000000000000     
   7.3437500000000003E-002  0.89531249999999996        0.0000000000000000     
  0.10937500000000000       0.87500000000000000        0.0000000000000000     
  0.12500000000000000       0.87500000000000000        0.0000000000000000     
  0.12500000000000000       0.89062500000000000        0.0000000000000000     
  0.10312499999999999       0.88437500000000002        0.0000000000000000     
  0.11406250000000000       0.88593750000000004        0.0000000000000000     
  0.11562500000000001       0.89687499999999998        0.0000000000000000     
  0.10468750000000000       0.89531249999999996        0.0000000000000000     
  0.14062500000000000       0.96875000000000000        0.0000000000000000     
  0.15625000000000000       0.96875000000000000        0.0000000000000000     
  0.15625000000000000       0.98437500000000000        0.0000000000000000     
  0.13437499999999999       0.97812500000000002        0.0000000000000000     
  0.14531250000000001       0.97968750000000004        0.0000000000000000     
  0.14687500000000001       0.99062499999999998        0.0000000000000000     
  0.13593749999999999       0.98906249999999996        0.0000000000000000     
  0.17187500000000000       0.96875000000000000        0.0000000000000000     
  0.18750000000000000       0.96875000000000000        0.0000000000000000     
  0.18750000000000000       0.98437500000000000        0.0000000000000000     
  0.16562499999999999       0.97812500000000002        0.0000000000000000     
  0.17656250000000001       0.97968750000000004        0.0000000000000000     
[...]
 CELL_DATA       14336
 SCALARS Nutrient float
 LOOKUP_TABLE default
    0.33557355718396519005E-02
    0.33556478534599123477E-02
    0.33563028609710516409E-02
    0.33563028609265533816E-02
    0.33556478536335182690E-02
    0.33557355716836057176E-02
    0.33552136027053969941E-02
    0.33549074322586480007E-02
    0.33545763029843370107E-02
    0.33545763019788418444E-02
    0.33549074327778949725E-02
    0.33552136024939871115E-02
    0.33551659162187018326E-02
    0.33551659160547179887E-02
    0.33578802295850342964E-02
    0.33584518660216143744E-02
    0.33600048068021920976E-02
    0.33604335021732950443E-02
    0.33592700948707815076E-02
    0.33598299457819119293E-02
    0.33586085334511126162E-02
    0.33575930975803186876E-02
    0.33565231905357041133E-02
    0.33561343210389534344E-02
    0.33568067573916003307E-02
    0.33567221507728550560E-02
    0.33577680634160351342E-02
    0.33580003117222446789E-02
    0.33598299458233158755E-02
    0.33592700948546589876E-02
    0.33604335021944582371E-02
    0.33600048067981978968E-02
    0.33584518660701822949E-02
    0.33578802295336795426E-02
    0.33567221508823651133E-02
    0.33568067572918238069E-02
    0.33561343211789594967E-02
    0.33565231904134715940E-02
    0.33575930976566872865E-02
    0.33586085334420330735E-02
    0.33580003117638776086E-02
    0.33577680634070908999E-02
    0.33627061968739607387E-02
    0.33629554481699047708E-02
    0.33653795820978112986E-02
    0.33653795820925017437E-02
    0.33629554481788732911E-02
    0.33627061968522753942E-02
    0.33605558515245404286E-02
    0.33599432803728731395E-02
    0.33583433635410689551E-02
    0.33583433634896261641E-02
    0.33599432804085837233E-02
    0.33605558515092076415E-02
    0.33612620747419377429E-02
    0.33612620747317176195E-02
    0.33636144968584398215E-02
    0.33651586361740969469E-02
    0.33681826031047345030E-02
    0.33693085874974687544E-02
    0.33673084273993731177E-02
    0.33686624267420619584E-02
    0.33662736556103155239E-02
    0.33640560777432287724E-02
    0.33617633639296136926E-02
    0.33607911952125168499E-02
    0.33620175899908644537E-02
    0.33614284493714060437E-02
    0.33641021591431000647E-02
    0.33647128737464802872E-02
    0.33750723711339675366E-02
    0.33781813235669345963E-02
    0.33835192762542909070E-02
    0.33856887838275514548E-02
    0.33823196306179623138E-02
    0.33848192029435884322E-02
    0.33806007723026221257E-02
    0.33765881123849171563E-02
    0.33724157808852251068E-02
    0.33705194324307702174E-02
    0.33726634468098431671E-02
    0.33712472202675580583E-02
    0.33765074688240394318E-02
    0.33776878840794822417E-02
    0.33702173489271857604E-02
    0.33714231104898062345E-02
    0.33756718420276223339E-02
    0.33762384421714471822E-02
    0.33724616203840806876E-02
    0.33726786516820083175E-02
    0.33689527151955023579E-02
    0.33673070960908296767E-02
    0.33642569372243050392E-02
    0.33637979189142870780E-02
    0.33663513164302566287E-02
    0.33666371564710566126E-02
    0.33689738974243509106E-02
    0.33692651427853722614E-02
    0.33844309981130166198E-02
    0.33872028995533052902E-02
    0.33945113065760507999E-02
    0.33960228468228846610E-02
    0.33899817557064173927E-02
    0.33909464247722032396E-02
    0.33846639106526999440E-02
    0.33813557469722153696E-02
    0.33759822630322184299E-02
    0.33747658700837611725E-02
    0.33788069657344440601E-02
    0.33785796510798042636E-02
    0.33835350568908197609E-02
    0.33843140857239980245E-02
    0.33686624267887776280E-02
    0.33673084274297641720E-02
    0.33693085875348307949E-02
    0.33681826031327056180E-02
    0.33651586362071989403E-02
    0.33636144968633334765E-02
    0.33614284494077576078E-02
    0.33620175899926590252E-02
    0.33607911952555622782E-02
    0.33617633639350368718E-02
    0.33640560777843399841E-02
    0.33662736556469502816E-02
    0.33647128737805801803E-02
    0.33641021591679673257E-02
    0.33726786517159108858E-02
    0.33724616204064698961E-02
    0.33762384421990735209E-02
    0.33756718420479372468E-02
    0.33714231105078317462E-02
    0.33702173489280314381E-02
    0.33666371564815239341E-02
    0.33663513164312861871E-02
    0.33637979189388954315E-02
    0.33642569372300157489E-02
    0.33673070961180938919E-02
    0.33689527152192125584E-02
    0.33692651428075919007E-02
    0.33689738974389794000E-02
    0.33848192030403404656E-02
    0.33823196307009571228E-02
    0.33856887839158675280E-02
    0.33835192763319241194E-02
    0.33781813236327296220E-02
    0.33750723711808228514E-02
    0.33712472203114413581E-02
    0.33726634468584982575E-02
    0.33705194324812658493E-02
    0.33724157809395124107E-02
    0.33765881124583094035E-02
    0.33806007723928628746E-02
    0.33776878841510946626E-02
    0.33765074688878204436E-02
    0.33909464248603480088E-02
    0.33899817557842149701E-02
    0.33960228469106143977E-02
    0.33945113066540782282E-02
    0.33872028996136710650E-02
    0.33844309981533376649E-02
    0.33785796511126833450E-02
    0.33788069657751784031E-02
    0.33747658701256720917E-02
    0.33759822630785424856E-02
    0.33813557470355666036E-02
    0.33846639107284041438E-02
    0.33843140857879234519E-02
    0.33835350569483301809E-02
    0.33831384557997568226E-02
    0.33840744452299079993E-02
    0.33903719795752964086E-02
    0.33903719795700120072E-02
    0.33840744452228702262E-02
    0.33831384557798330898E-02
    0.33773973321199659420E-02
    0.33760664873270654698E-02
    0.33716593614828509716E-02
    0.33716593614817203656E-02
    0.33760664873380501726E-02
    0.33773973321385734533E-02
    0.33797061339701540972E-02
    0.33797061339669760838E-02
    0.34025921935893449315E-02
    0.34053629385302351847E-02
    0.34159588250066595314E-02
    0.34169458161022771281E-02
    0.34070824367870718684E-02
    0.34065581699828451426E-02
    0.33970580608072846636E-02
    0.33939886928564633010E-02
    0.33864706905139688523E-02
    0.33858000466235214573E-02
    0.33925110685772462762E-02
    0.33935263684085931364E-02
    0.33989401440881563711E-02
    0.33994080748458235797E-02
    0.34065581700712314721E-02
    0.34070824368598187984E-02
    0.34169458161818076943E-02
    0.34159588250696907089E-02
    0.34053629385751844720E-02
    0.34025921936116673532E-02
    0.33935263684192933445E-02
    0.33925110686051605791E-02
    0.33858000466523451889E-02
    0.33864706905527954331E-02
    0.33939886929147612855E-02
    0.33970580608874813636E-02
    0.33994080749010229144E-02
    0.33989401441345476473E-02
    0.34349905105367393651E-02
    0.34376195193402078222E-02
    0.34535897659329177489E-02
    0.34535897659191358046E-02
    0.34376195193152984941E-02
    0.34349905104789153938E-02
    0.34204788651982947524E-02
    0.34173561650664022529E-02
    0.34062835707777982565E-02
    0.34062835707889143645E-02
    0.34173561650916784750E-02
    0.34204788652580178122E-02
    0.34266163851870675219E-02
    0.34266163851797209680E-02
    0.33956228845451259975E-02
    0.34012087806947620579E-02
    0.34104514535642179753E-02
    0.34143326798555966896E-02
    0.34085820842935403083E-02
    0.34129913930726059161E-02
    0.34057147248952352077E-02
    0.33987063136621960789E-02
    0.33914490356978261448E-02
    0.33880929961675469893E-02
    0.33917448938278246112E-02
    0.33891110820517930842E-02
    0.33984419611092836142E-02
    0.34005401469935072831E-02
    0.34315878953438644187E-02
    0.34413471536251113124E-02
    0.34574237490697457345E-02
    0.34641189003637913070E-02
    0.34540818936549633027E-02
    0.34615811119718328803E-02
    0.34490619801279026775E-02
    0.34370047132318299471E-02
    0.34244627082414950438E-02
    0.34186581686300567332E-02
    0.34249453652907602998E-02
    0.34203062423428195506E-02
    0.34365575343892739574E-02
    0.34401889610847346396E-02
    0.34100063195002384801E-02
    0.34154347022142556717E-02
    0.34281140941092025365E-02
    0.34312245188551880604E-02
    0.34210732085062215725E-02
    0.34231531939361505186E-02
    0.34123267471676049442E-02
    0.34063317904333379957E-02
    0.33970385872518389647E-02
    0.33946498674083643368E-02
    0.34012560441978433728E-02
    0.34002085439062057146E-02
    0.34095642633306783541E-02
    0.34111321141910336784E-02
    0.34555080028516142743E-02
    0.34655284167251095527E-02
    0.34877924897245625273E-02
    0.34935231023054823425E-02
    0.34758341416812293771E-02
    0.34795493773751976808E-02
    0.34606944383874993151E-02
    0.34501534818669517962E-02
    0.34339847609062544055E-02
    0.34296627899531241697E-02
    0.34409371203895479721E-02
    0.34386447320186711886E-02
    0.34555226157418693182E-02
    0.34583794206731514019E-02
    0.34940056447016311705E-02
    0.35105910144424168524E-02
    0.35382427535613357635E-02
    0.35492435392598538878E-02
    0.35317446375694623584E-02
    0.35439892812651461497E-02
    0.35228223212481896143E-02
    0.35025115570298357044E-02
    0.34811864681565029764E-02
    0.34713033161988433861E-02
    0.34822101362036151327E-02
    0.34744209765835473019E-02
    0.35020685030046462896E-02
    0.35081389718760107137E-02
    0.36005658449598360558E-02
    0.36275436153977774420E-02
    0.36743282196492754732E-02
    0.36912979677113980613E-02
    0.36609638840824480256E-02
    0.36798609731925630700E-02
    0.36450996661801298923E-02
    0.36119574977619560603E-02
    0.35765403372743542927E-02
    0.35602549027669034426E-02
    0.35790306468942087448E-02
    0.35666726189855640916E-02
    0.36122175907895804833E-02
    0.36219338132481124388E-02
    0.35364033109664115041E-02
    0.35541297801312621632E-02
    0.35935971631500221619E-02
    0.36033358621796016293E-02
    0.35716200592219018647E-02
    0.35772035474898062485E-02
    0.35442404978194043397E-02
    0.35264161396508855728E-02
    0.34982810447254900250E-02
    0.34908909786803598088E-02
    0.35106960875925128859E-02
    0.35066463393230557465E-02
    0.35362899029807303049E-02
    0.35411535862091125110E-02
    0.36794843170443189764E-02
    0.37093853797588419337E-02
    0.37791029851271221336E-02
    0.37939957015650860664E-02
    0.37365117300849231587E-02
    0.37429433176568382112E-02
    0.36856652867665921046E-02
    0.36570060572375371645E-02
    0.36085477987319015090E-02
    0.35966758692779735203E-02
    0.36321399285077103289E-02
    0.36263287588545515226E-02
    0.36765047379331296760E-02
    0.36841188271970666014E-02
    0.34373593371661704914E-02
    0.34433647665560820385E-02
    0.34614840752706585447E-02
    0.34642670799590602471E-02
    0.34481093510096648934E-02
    0.34483247813589961751E-02
    0.34321434114511855350E-02
    0.34260431350553546305E-02
    0.34131144048710148307E-02
    0.34113185061750372039E-02
    0.34220625791124051861E-02
    0.34225673584513472206E-02
    0.34333357996545418346E-02
    0.34346107153937410414E-02
    0.34993799141933299227E-02
    0.35113954470764132711E-02
    0.35433219023415464186E-02
    0.35494681381950028178E-02
    0.35216733778451118735E-02
    0.35230196693413137754E-02
    0.34946525850981843137E-02
    0.34832782035725665983E-02
    0.34605885881615634087E-02
    0.34568231677916160319E-02
    0.34748238870826440340E-02
    0.34743199299553644693E-02
    0.34948811969193341667E-02
    0.34976226955181232738E-02
    0.34842721994465778064E-02
    0.34909296612375992179E-02
    0.35173821635596505195E-02
    0.35195606352335824518E-02
    0.34944998178965932037E-02
    0.34924581236927751404E-02
    0.34683764339259854324E-02
    0.34614781187811637618E-02
    0.34427965584118988898E-02
    0.34415414858455636513E-02
    0.34586107204825460026E-02
    0.34614818102679818096E-02
    0.34745590626165953965E-02
    0.34755007035300231576E-02
    0.35706124337937243836E-02
    0.35854232626373171849E-02
    0.36310300578094715541E-02
    0.36380655244647201393E-02
    0.35966662499177372118E-02
    0.35962506394070421246E-02
    0.35545159220087235545E-02
    0.35403742011335189062E-02
    0.35078785794105276676E-02
    0.35041623343140767578E-02
    0.35316570551081854883E-02
    0.35335019048351023335E-02
    0.35598189850828756975E-02
    0.35627400610166279522E-02
    0.36118317131351757206E-02
    0.36348087867679994972E-02
    0.36924507356604460880E-02
    0.37043010260746135100E-02
    0.36543817143392387514E-02
    0.36567959836864166213E-02
    0.36060010237307592827E-02
    0.35856852971617825081E-02
    0.35452940216111794754E-02
    0.35382471045472107390E-02
    0.35697423634815164672E-02
    0.35676731148191675666E-02
    0.36058394430406137503E-02
    0.36110381926853190974E-02
    0.38176889056434062594E-02
    0.38596334100642810429E-02
    0.39650835767700894768E-02
    0.39854131538688223474E-02
    0.38930442334854809677E-02
    0.38943261014879582659E-02
    0.38025525940421651266E-02
    0.37682001771165247669E-02
    0.36959378507152593554E-02
    0.36839929754087299973E-02
    0.37411014058943269783E-02
    0.37374623226267178651E-02
    0.38062668657722646334E-02
    0.38151273846913588174E-02
    0.37273244825611821611E-02
    0.37586336044228485162E-02
    0.38410614617700989358E-02
    0.38577402266033412534E-02
    0.37849938495321771952E-02
    0.37872730539365542964E-02
    0.37120172951922688134E-02
    0.36845311930984664742E-02
    0.36260640408745780511E-02
    0.36176429296269170185E-02
    0.36644387727144309662E-02
    0.36635733494385833674E-02
    0.37159044674734561207E-02
    0.37227067509188888073E-02
    0.40208874635778209944E-02
    0.40836354943884376964E-02
    0.42375953704401258734E-02
    0.42714010928532990252E-02
    0.41365543753833777796E-02
    0.41409118120517484848E-02
    0.40016042738153217301E-02
    0.39508377315781301187E-02
    0.38433526135841270498E-02
    0.38268360094373564048E-02
    0.39110348980719794945E-02
    0.39055325438365640772E-02
    0.40068639473985600413E-02
    0.40204472608711917456E-02
    0.34129913932747064052E-02
    0.34085820844738804261E-02
    0.34143326800479567064E-02
    0.34104514537379253779E-02
    0.34012087808406050310E-02
    0.33956228846630342848E-02
    0.33891110821502499172E-02
    0.33917448939444379274E-02
    0.33880929962772860300E-02
    0.33914490358222739060E-02
    0.33987063138171793100E-02
    0.34057147250849436997E-02
    0.34005401471474956503E-02
    0.33984419612523271773E-02
    0.34231531941370037415E-02
    0.34210732086940496242E-02
    0.34312245190681969244E-02
    0.34281140943076718157E-02
    0.34154347023713938630E-02
    0.34100063196251971173E-02
    0.34002085440043099650E-02
    0.34012560443138044330E-02
    0.33946498675119832732E-02
    0.33970385873704120848E-02
    0.34063317905823004353E-02
    0.34123267473423362674E-02
    0.34111321143473903768E-02
    0.34095642634775244310E-02
    0.34615811123713683198E-02
    0.34540818940170217761E-02
    0.34641189007528993236E-02
    0.34574237494260653090E-02
    0.34413471539262467311E-02
    0.34315878955969107006E-02
    0.34203062425535121251E-02
    0.34249453655346359660E-02
    0.34186581688570327232E-02
    0.34244627084966772039E-02
    0.34370047135425401720E-02
    0.34490619805020985775E-02
    0.34401889613964713871E-02
    0.34365575346819261446E-02
    0.34795493777929221296E-02
    0.34758341420824652793E-02
    0.34935231027637377380E-02
    0.34877924901612965096E-02
    0.34655284170757036724E-02
    0.34555080031470003857E-02
    0.34386447322534482302E-02
    0.34409371206523798291E-02
    0.34296627901836884353E-02
    0.34339847611628932997E-02
    0.34501534821835149781E-02
    0.34606944387504052010E-02
    0.34583794210110126513E-02
    0.34555226160644225003E-02
    0.34483247815944523609E-02
    0.34481093512252177294E-02
    0.34642670802033496448E-02
    0.34614840754898547337E-02
    0.34433647667264505321E-02
    0.34373593372971846145E-02
    0.34225673585455388022E-02
    0.34220625792335196760E-02
    0.34113185062824048777E-02
    0.34131144049975221423E-02
    0.34260431352233383130E-02
    0.34321434116587564746E-02
    0.34346107155679653916E-02
    0.34333357998152700362E-02
    0.34924581239391501095E-02
    0.34944998180960777298E-02
    0.35195606354471754840E-02
    0.35173821637255885293E-02
    0.34909296613571715387E-02
    0.34842721995055185059E-02
    0.34614818102976646630E-02
    0.34586107205641452265E-02
    0.34415414859285740727E-02
    0.34427965585322201775E-02
    0.34614781189435651042E-02
    0.34683764341487221920E-02
    0.34755007036815807435E-02
    0.34745590627442107627E-02
    0.35230196698720459177E-02
    0.35216733783497745913E-02
    0.35494681387790395430E-02
    0.35433219028817609930E-02
    0.35113954475098521461E-02
    0.34993799145569158202E-02
    0.34743199302324600901E-02
    0.34748238873988290462E-02
    0.34568231680645578573E-02
    0.34605885884662775619E-02
    0.34832782039637272264E-02
    0.34946525855581267277E-02
    0.34976226959370238651E-02
    0.34948811973162970113E-02
    0.35962506400477856593E-02
    0.35966662504962596848E-02
    0.36380655251094374918E-02
    0.36310300583843498068E-02
    0.35854232630855224599E-02
    0.35706124341374359879E-02
    0.35335019050857252067E-02
    0.35316570554366202503E-02
    0.35041623346110492739E-02
    0.35078785797692641456E-02
    0.35403742015912421752E-02
    0.35545159225732676257E-02
    0.35627400614847513222E-02
    0.35598189855131421970E-02
    0.35439892820262699526E-02
    0.35317446382673043162E-02
    0.35492435400121544534E-02
    0.35382427542608304791E-02
    0.35105910150334397428E-02
    0.34940056452092810822E-02
    0.34744209770066107959E-02
    0.34822101366837796520E-02
    0.34713033166437362066E-02
    0.34811864686526672839E-02
    0.35025115576273386543E-02
    0.35228223219595043020E-02
    0.35081389724792590677E-02
    0.35020685035748260437E-02
    0.35772035483189524620E-02
    0.35716200600279073007E-02
    0.36033358631112756380E-02
    0.35935971640423136110E-02
    0.35541297808561276433E-02
    0.35364033115936320019E-02
    0.35066463398258718512E-02
    0.35106960881374268263E-02
    0.34908909791547932354E-02
    0.34982810452426371141E-02
    0.35264161402850805263E-02
    0.35442404985339143880E-02
    0.35411535868935567657E-02
    0.35362899036397075180E-02
    0.36798609745956460150E-02
    0.36609638853914282935E-02
    0.36912979691450793600E-02
    0.36743282209830206535E-02
    0.36275436165250319817E-02
    0.36005658459386160469E-02
    0.35666726198043006632E-02
    0.35790306478078112717E-02
    0.35602549036105380666E-02
    0.35765403382082548191E-02
    0.36119574988769179158E-02
    0.36450996674911623381E-02
    0.36219338143827347828E-02
    0.36122175918676486736E-02
    0.37429433192334867452E-02
    0.37365117316524956194E-02
    0.37939957033984996956E-02
    0.37791029868936244426E-02
    0.37093853811938888934E-02
    0.36794843183105873166E-02
    0.36263287598675593426E-02
    0.36321399295867907303E-02
    0.35966758702082810006E-02
    0.36085477997374313698E-02
    0.36570060584636006860E-02
    0.36856652881316616203E-02
    0.36841188285324792846E-02
    0.36765047392274875261E-02
    0.36567959847885098644E-02
    0.36543817154145313841E-02
    0.37043010273255178380E-02
    0.36924507368478538989E-02
    0.36348087877267208808E-02
    0.36118317139733524708E-02
    0.35676731154669111441E-02
    0.35697423641877119860E-02
    0.35382471051486302609E-02
    0.35452940222665168049E-02
    0.35856852979895673973E-02
    0.36060010246809917969E-02
    0.36110381935867651160E-02
    0.36058394439071115960E-02
    0.37872730553795332792E-02
    0.37849938508848599179E-02
    0.38577402281498676152E-02
    0.38410614631903296223E-02
    0.37586336055645888643E-02
    0.37273244835112897752E-02
    0.36635733501722590744E-02
    0.36644387735609274502E-02
    0.36176429303732063336E-02
    0.36260640417179901968E-02
    0.36845311941593318454E-02
    0.37120172964383441050E-02