# vtk DataFile Version 3.0
LAPLACIEN  2D
ASCII
DATASET UNSTRUCTURED_GRID
FIELD FieldData 1
TIME 1 1 double
4.5000
 POINTS        7297  float
   1.5625000000000000E-002  0.96875000000000000        0.0000000000000000     
   3.1250000000000000E-002  0.96875000000000000        0.0000000000000000     
   3.1250000000000000E-002  0.98437500000000000        0.0000000000000000     
   9.3749999999999997E-003  0.97812500000000002        0.0000000000000000     
   2.0312500000000001E-002  0.97968750000000004        0.0000000000000000     
   2.1874999999999999E-002  0.99062499999999998        0.0000000000000000     
   1.0937499999999999E-002  0.98906249999999996        0.0000000000000000     
   4.6875000000000000E-002  0.96875000000000000        0.0000000000000000     
   6.2500000000000000E-002  0.96875000000000000        0.0000000000000000     
   6.2500000000000000E-002  0.98437500000000000        0.0000000000000000     
   4.0625000000000001E-002  0.97812500000000002        0.0000000000000000     
   5.1562499999999997E-002  0.97968750000000004        0.0000000000000000     
   5.3124999999999999E-002  0.99062499999999998        0.0000000000000000     
   4.2187500000000003E-002  0.98906249999999996        0.0000000000000000     
   1.5625000000000000E-002  0.93750000000000000        0.0000000000000000     
   3.1250000000000000E-002  0.93750000000000000        0.0000000000000000     
   3.1250000000000000E-002  0.95312500000000000        0.0000000000000000     
   9.3749999999999997E-003  0.94687500000000002        0.0000000000000000     
   2.0312500000000001E-002  0.94843750000000004        0.0000000000000000     
   2.1874999999999999E-002  0.95937499999999998        0.0000000000000000     
   1.0937499999999999E-002  0.95781249999999996        0.0000000000000000     
   4.6875000000000000E-002  0.93750000000000000        0.0000000000000000     
   6.2500000000000000E-002  0.93750000000000000        0.0000000000000000     
   6.2500000000000000E-002  0.95312500000000000        0.0000000000000000     
   4.0625000000000001E-002  0.94687500000000002        0.0000000000000000     
   5.1562499999999997E-002  0.94843750000000004        0.0000000000000000     
   5.3124999999999999E-002  0.95937499999999998        0.0000000000000000     
   4.2187500000000003E-002  0.95781249999999996        0.0000000000000000     
   7.8125000000000000E-002  0.96875000000000000        0.0000000000000000     
   9.3750000000000000E-002  0.96875000000000000        0.0000000000000000     
   9.3750000000000000E-002  0.98437500000000000        0.0000000000000000     
   7.1874999999999994E-002  0.97812500000000002        0.0000000000000000     
   8.2812499999999997E-002  0.97968750000000004        0.0000000000000000     
   8.4375000000000006E-002  0.99062499999999998        0.0000000000000000     
   7.3437500000000003E-002  0.98906249999999996        0.0000000000000000     
  0.10937500000000000       0.96875000000000000        0.0000000000000000     
  0.12500000000000000       0.96875000000000000        0.0000000000000000     
  0.12500000000000000       0.98437500000000000        0.0000000000000000     
  0.10312499999999999       0.97812500000000002        0.0000000000000000     
  0.11406250000000000       0.97968750000000004        0.0000000000000000     
  0.11562500000000001       0.99062499999999998        0.0000000000000000     
  0.10468750000000000       0.98906249999999996        0.0000000000000000     
   7.8125000000000000E-002  0.93750000000000000        0.0000000000000000     
   9.3750000000000000E-002  0.93750000000000000        0.0000000000000000     
   9.3750000000000000E-002  0.95312500000000000        0.0000000000000000     
   7.1874999999999994E-002  0.94687500000000002        0.0000000000000000     
   8.2812499999999997E-002  0.94843750000000004        0.0000000000000000     
   8.4375000000000006E-002  0.95937499999999998        0.0000000000000000     
   7.3437500000000003E-002  0.95781249999999996        0.0000000000000000     
  0.10937500000000000       0.93750000000000000        0.0000000000000000     
  0.12500000000000000       0.93750000000000000        0.0000000000000000     
  0.12500000000000000       0.95312500000000000        0.0000000000000000     
  0.10312499999999999       0.94687500000000002        0.0000000000000000     
  0.11406250000000000       0.94843750000000004        0.0000000000000000     
  0.11562500000000001       0.95937499999999998        0.0000000000000000     
  0.10468750000000000       0.95781249999999996        0.0000000000000000     
   1.5625000000000000E-002  0.90625000000000000        0.0000000000000000     
   3.1250000000000000E-002  0.90625000000000000        0.0000000000000000     
   3.1250000000000000E-002  0.92187500000000000        0.0000000000000000     
   9.3749999999999997E-003  0.91562500000000002        0.0000000000000000     
   2.0312500000000001E-002  0.91718750000000004        0.0000000000000000     
   2.1874999999999999E-002  0.92812499999999998        0.0000000000000000     
   1.0937499999999999E-002  0.92656249999999996        0.0000000000000000     
   4.6875000000000000E-002  0.90625000000000000        0.0000000000000000     
   6.2500000000000000E-002  0.90625000000000000        0.0000000000000000     
   6.2500000000000000E-002  0.92187500000000000        0.0000000000000000     
   4.0625000000000001E-002  0.91562500000000002        0.0000000000000000     
   5.1562499999999997E-002  0.91718750000000004        0.0000000000000000     
   5.3124999999999999E-002  0.92812499999999998        0.0000000000000000     
   4.2187500000000003E-002  0.92656249999999996        0.0000000000000000     
   1.5625000000000000E-002  0.87500000000000000        0.0000000000000000     
   3.1250000000000000E-002  0.87500000000000000        0.0000000000000000     
   3.1250000000000000E-002  0.89062500000000000        0.0000000000000000     
   9.3749999999999997E-003  0.88437500000000002        0.0000000000000000     
   2.0312500000000001E-002  0.88593750000000004        0.0000000000000000     
   2.1874999999999999E-002  0.89687499999999998        0.0000000000000000     
   1.0937499999999999E-002  0.89531249999999996        0.0000000000000000     
   4.6875000000000000E-002  0.87500000000000000        0.0000000000000000     
   6.2500000000000000E-002  0.87500000000000000        0.0000000000000000     
   6.2500000000000000E-002  0.89062500000000000        0.0000000000000000     
   4.0625000000000001E-002  0.88437500000000002        0.0000000000000000     
   5.1562499999999997E-002  0.88593750000000004        0.0000000000000000     
   5.3124999999999999E-002  0.89687499999999998        0.0000000000000000     
   4.2187500000000003E-002  0.89531249999999996        0.0000000000000000     
   7.8125000000000000E-002  0.90625000000000000        0.0000000000000000     
   9.3750000000000000E-002  0.90625000000000000        0.0000000000000000     
   9.3750000000000000E-002  0.92187500000000000        0.0000000000000000     
   7.1874999999999994E-002  0.91562500000000002        0.0000000000000000     
   8.2812499999999997E-002  0.91718750000000004        0.0000000000000000     
   8.4375000000000006E-002  0.92812499999999998        0.0000000000000000     
   7.3437500000000003E-002  0.92656249999999996        0.0000000000000000     
  0.10937500000000000       0.90625000000000000        0.0000000000000000     
  0.12500000000000000       0.90625000000000000        0.0000000000000000     
  0.12500000000000000       0.92187500000000000        0.0000000000000000     
  0.10312499999999999       0.91562500000000002        0.0000000000000000     
  0.11406250000000000       0.91718750000000004        0.0000000000000000     
  0.11562500000000001       0.92812499999999998        0.0000000000000000     
  0.10468750000000000       0.92656249999999996        0.0000000000000000     
   7.8125000000000000E-002  0.87500000000000000        0.0000000000000000     
   9.3750000000000000E-002  0.87500000000000000        0.0000000000000000     
   9.3750000000000000E-002  0.89062500000000000        0.0000000000000000     
   7.1874999999999994E-002  0.88437500000000002        0.0000000000000000     
   8.2812499999999997E-002  0.88593750000000004        0.0000000000000000     
   8.4375000000000006E-002  0.89687499999999998        0.0000000000000000     
   7.3437500000000003E-002  0.89531249999999996        0.0000000000000000     
  0.10937500000000000       0.87500000000000000        0.0000000000000000     
  0.12500000000000000       0.87500000000000000        0.0000000000000000     
  0.12500000000000000       0.89062500000000000        0.0000000000000000     
  0.10312499999999999       0.88437500000000002        0.0000000000000000     
  0.11406250000000000       0.88593750000000004        0.0000000000000000     
  0.11562500000000001       0.89687499999999998        0.0000000000000000     
  0.10468750000000000       0.89531249999999996        0.0000000000000000     
  0.14062500000000000       0.96875000000000000        0.0000000000000000     
  0.15625000000000000       0.96875000000000000        0.0000000000000000     
  0.15625000000000000       0.98437500000000000        0.0000000000000000     
  0.13437499999999999       0.97812500000000002        0.0000000000000000     
  0.14531250000000001       0.97968750000000004        0.0000000000000000     
  0.14687500000000001       0.99062499999999998        0.0000000000000000     
  0.13593749999999999       0.98906249999999996        0.0000000000000000     
  0.17187500000000000       0.96875000000000000        0.0000000000000000     
  0.18750000000000000       0.96875000000000000        0.0000000000000000     
  0.18750000000000000       0.98437500000000000        0.0000000000000000     
  0.16562499999999999       0.97812500000000002        0.0000000000000000     
  0.17656250000000001       0.97968750000000004        0.0000000000000000     
[...]
 CELL_DATA       14336
 SCALARS Nutrient float
 LOOKUP_TABLE default
    0.31942326225066499344E-02
    0.31941438071115472834E-02
    0.31948034279851949928E-02
    0.31948034279426851603E-02
    0.31941438072762879004E-02
    0.31942326223574598124E-02
    0.31937065873722894106E-02
    0.31933982160065117924E-02
    0.31930646611324068652E-02
    0.31930646601763469812E-02
    0.31933982165005107313E-02
    0.31937065871719084661E-02
    0.31936585346670916773E-02
    0.31936585345110671784E-02
    0.31963910003530255841E-02
    0.31969662941174321023E-02
    0.31985285057979455890E-02
    0.31989597975558840999E-02
    0.31977899139195532438E-02
    0.31983535813714554508E-02
    0.31971246973683917388E-02
    0.31961025693053265496E-02
    0.31950256557889307463E-02
    0.31946335275070364239E-02
    0.31953108977772069939E-02
    0.31952253657616213993E-02
    0.31962783273943970626E-02
    0.31965124206428299075E-02
    0.31983535814138490568E-02
    0.31977899139065675375E-02
    0.31989597975783136408E-02
    0.31985285057958487420E-02
    0.31969662941648767894E-02
    0.31963910003047165710E-02
    0.31952253658662130818E-02
    0.31953108976833363361E-02
    0.31946335276411348854E-02
    0.31950256556740499851E-02
    0.31961025693798368261E-02
    0.31971246973624342647E-02
    0.31965124206841987256E-02
    0.31962783273873636262E-02
    0.32012436167937041026E-02
    0.32014936479323320533E-02
    0.32039289467643292456E-02
    0.32039289467589182094E-02
    0.32014936479401495846E-02
    0.32012436167713998955E-02
    0.31990822025461992245E-02
    0.31984660230909749482E-02
    0.31968568479845758772E-02
    0.31968568479359251236E-02
    0.31984660231255566606E-02
    0.31990822025331055317E-02
    0.31997917816670821967E-02
    0.31997917816571756246E-02
    0.32021572587142238357E-02
    0.32037092577895391783E-02
    0.32067468185036423697E-02
    0.32078779890671134042E-02
    0.32058695130695383235E-02
    0.32072298564506727774E-02
    0.32048304367276918628E-02
    0.32026020840486375471E-02
    0.32002978083394578203E-02
    0.31993200097374099519E-02
    0.32005530042517431333E-02
    0.31999602629022090745E-02
    0.32026481068885290573E-02
    0.32032620179662540418E-02
    0.32136638082689225615E-02
    0.32167843741903153279E-02
    0.32221397778953767520E-02
    0.32243166767318837129E-02
    0.32209376272434174678E-02
    0.32234458284008016445E-02
    0.32192139101927304962E-02
    0.32151868663241925904E-02
    0.32109989123528647620E-02
    0.32090947339780814471E-02
    0.32112469156614018018E-02
    0.32098245338885804910E-02
    0.32151053817155361356E-02
    0.32162902391796410577E-02
    0.32087866581067565203E-02
    0.32099973832042504734E-02
    0.32142616421828250871E-02
    0.32148307555945150257E-02
    0.32110409700376496729E-02
    0.32112599071447847990E-02
    0.32075196691512446526E-02
    0.32058662897654658860E-02
    0.32028024219726250639E-02
    0.32023408139546798330E-02
    0.32049053039293023785E-02
    0.32051919730199563037E-02
    0.32075391421345195685E-02
    0.32078318628647795908E-02
    0.32230488173659766100E-02
    0.32258294228058440913E-02
    0.32331571957313078557E-02
    0.32346734262994384333E-02
    0.32286178437190837798E-02
    0.32295867821389230741E-02
    0.32232871555629310535E-02
    0.32199675687691262094E-02
    0.32145764454360559008E-02
    0.32133550210715947602E-02
    0.32174089370874165046E-02
    0.32171798337070453729E-02
    0.32221520699033732830E-02
    0.32229339430316799632E-02
    0.32072298565019429634E-02
    0.32058695131043377438E-02
    0.32078779891087216142E-02
    0.32067468185354541625E-02
    0.32037092578253234879E-02
    0.32021572587220231525E-02
    0.31999602629394744042E-02
    0.32005530042570370756E-02
    0.31993200097818557358E-02
    0.32002978083486505537E-02
    0.32026020840927585040E-02
    0.32048304367687380223E-02
    0.32032620180035978677E-02
    0.32026481069166693079E-02
    0.32112599071824881464E-02
    0.32110409700632411810E-02
    0.32148307556250270769E-02
    0.32142616422053751912E-02
    0.32099973832237674136E-02
    0.32087866581085033868E-02
    0.32051919730306413329E-02
    0.32049053039322201834E-02
    0.32023408139802219015E-02
    0.32028024219809807932E-02
    0.32058662897950962641E-02
    0.32075196691787404533E-02
    0.32078318628892574065E-02
    0.32075391421512318944E-02
    0.32234458285060872164E-02
    0.32209376273342397827E-02
    0.32243166768282484694E-02
    0.32221397779803339669E-02
    0.32167843742624134713E-02
    0.32136638083212223059E-02
    0.32098245339370855278E-02
    0.32112469157157407136E-02
    0.32090947340337313762E-02
    0.32109989124131151778E-02
    0.32151868664042951816E-02
    0.32192139102907805365E-02
    0.32162902392580223696E-02
    0.32151053817857750891E-02
    0.32295867822347726177E-02
    0.32286178438035899665E-02
    0.32346734263938368807E-02
    0.32331571958151132141E-02
    0.32258294228711204346E-02
    0.32230488174100637398E-02
    0.32171798337432572917E-02
    0.32174089371326741391E-02
    0.32133550211177926148E-02
    0.32145764454876270613E-02
    0.32199675688384006567E-02
    0.32232871556458126718E-02
    0.32229339431013260750E-02
    0.32221520699661602982E-02
    0.32217514157077270509E-02
    0.32226896660524657207E-02
    0.32290044929042856919E-02
    0.32290044928985615381E-02
    0.32226896660445107125E-02
    0.32217514156858621625E-02
    0.32159925527193542090E-02
    0.32146567804268054089E-02
    0.32102341060909682195E-02
    0.32102341060904053018E-02
    0.32146567804384423676E-02
    0.32159925527399163200E-02
    0.32183082095598647063E-02
    0.32183082095564880670E-02
    0.32412533376793926237E-02
    0.32440300748077912155E-02
    0.32546470017292333451E-02
    0.32556361759479559778E-02
    0.32457540625855903563E-02
    0.32452299097572049821E-02
    0.32357092986370246390E-02
    0.32326313773201149557E-02
    0.32250939075074216977E-02
    0.32244208579587851568E-02
    0.32311490952987003550E-02
    0.32321667024820593603E-02
    0.32375937149606757136E-02
    0.32380629878887797791E-02
    0.32452299098513722776E-02
    0.32457540626628388937E-02
    0.32556361760316785033E-02
    0.32546470017953952648E-02
    0.32440300748551582737E-02
    0.32412533377027589153E-02
    0.32321667024936833086E-02
    0.32311490953288650278E-02
    0.32244208579900409707E-02
    0.32250939075496912710E-02
    0.32326313773824778310E-02
    0.32357092987226792127E-02
    0.32380629879475578484E-02
    0.32375937150100845413E-02
    0.32737098853353619604E-02
    0.32763424750105259349E-02
    0.32923351227556957657E-02
    0.32923351227413001630E-02
    0.32763424749844157445E-02
    0.32737098852747763093E-02
    0.32591747667454597573E-02
    0.32560461406395692883E-02
    0.32449524975929032455E-02
    0.32449524976045670925E-02
    0.32560461406659418557E-02
    0.32591747668078117905E-02
    0.32653222825257980852E-02
    0.32653222825181171633E-02
    0.32342775924230210416E-02
    0.32398782317513848648E-02
    0.32491415308182440558E-02
    0.32530319036113385101E-02
    0.32472701664339703558E-02
    0.32516899838821201885E-02
    0.32443975279211720482E-02
    0.32373717681568720504E-02
    0.32300955201911164122E-02
    0.32267296700278572108E-02
    0.32303911505172323501E-02
    0.32277489829318846588E-02
    0.32371058936321046168E-02
    0.32392096087842875765E-02
    0.32703176318740569996E-02
    0.32800940159570103442E-02
    0.32961935010379916910E-02
    0.33028990560220565509E-02
    0.32928500893713123776E-02
    0.33003611532999555488E-02
    0.32878246344318550962E-02
    0.32757478534028269986E-02
    0.32631843996396674157E-02
    0.32573684619450183307E-02
    0.32636663564457966263E-02
    0.32590171413734679573E-02
    0.32752986211383198697E-02
    0.32789364092588564950E-02
    0.32486871098390090844E-02
    0.32541273356269679456E-02
    0.32668291841712764935E-02
    0.32699460619745992010E-02
    0.32597791178916031389E-02
    0.32618652965414733115E-02
    0.32510195104400361164E-02
    0.32450101429716488380E-02
    0.32356960284576868729E-02
    0.32333002077631089501E-02
    0.32399206180559370245E-02
    0.32388690901848518969E-02
    0.32482470487228427142E-02
    0.32498188691636726959E-02
    0.32942633093453800065E-02
    0.33042979114803056051E-02
    0.33265865754437099096E-02
    0.33323249307349216489E-02
    0.33146196629063890554E-02
    0.33183425107774673635E-02
    0.32994667980030161283E-02
    0.32889092165694668035E-02
    0.32727171835592234507E-02
    0.32683865052226712851E-02
    0.32796760685890428977E-02
    0.32773778748935774446E-02
    0.32942821306145529670E-02
    0.32971437503127049712E-02
    0.33328186699918284884E-02
    0.33494226262898215557E-02
    0.33770984296323841752E-02
    0.33881103413036387298E-02
    0.33705991497263759933E-02
    0.33828563541001299177E-02
    0.33616712599126349209E-02
    0.33413397533907976920E-02
    0.33199917404619166093E-02
    0.33100961702127499296E-02
    0.33210143499394135548E-02
    0.33132139169296231235E-02
    0.33408942846926349864E-02
    0.33469716197358518467E-02
    0.34394662594960921133E-02
    0.34664630771612369581E-02
    0.35132717225917469567E-02
    0.35302526821774996013E-02
    0.34999065869736755048E-02
    0.35188162849866329480E-02
    0.34840370091778027732E-02
    0.34508739532729875918E-02
    0.34154335286895663552E-02
    0.33991352647397433256E-02
    0.34179225197228423408E-02
    0.34055526530497996253E-02
    0.34511314142943697210E-02
    0.34608546489059877245E-02
    0.33752409639300749201E-02
    0.33929830800106240175E-02
    0.34324759837241012456E-02
    0.34422231758136166008E-02
    0.34104910270184606892E-02
    0.34160829868862228886E-02
    0.33830986629418031975E-02
    0.33652564001196696650E-02
    0.33370966572780209718E-02
    0.33296967967621849196E-02
    0.33495176215216360127E-02
    0.33454608060580533907E-02
    0.33751333438995188840E-02
    0.33800023770135362820E-02
    0.35184077264509782366E-02
    0.35483248412784269658E-02
    0.36180674903169363424E-02
    0.36329688444197835370E-02
    0.35754693478440989669E-02
    0.35819097307833338943E-02
    0.35246110424447313000E-02
    0.34959336160054802455E-02
    0.34474506463424282703E-02
    0.34355684205774690738E-02
    0.34710479882118332184E-02
    0.34652290364582849676E-02
    0.35154348735946354398E-02
    0.35230545049090579955E-02
    0.32760829047312972975E-02
    0.32820974260068937027E-02
    0.33002407707754511344E-02
    0.33030277227976156430E-02
    0.32868502205734367004E-02
    0.32870677273694436094E-02
    0.32708637504277934122E-02
    0.32647519335194876040E-02
    0.32518005241738067931E-02
    0.32500001644853063025E-02
    0.32607627688281985365E-02
    0.32612675991972347837E-02
    0.32720546478319733306E-02
    0.32733320248551139517E-02
    0.33381770919941166492E-02
    0.33502040244354660929E-02
    0.33821564364515943613E-02
    0.33883078836168404116E-02
    0.33604928838451833192E-02
    0.33618427017883035536E-02
    0.33334517656188043279E-02
    0.33220636730075820547E-02
    0.32993491171440028631E-02
    0.32955776201416364483E-02
    0.33135977369475213931E-02
    0.33130920254002822582E-02
    0.33336759298424880824E-02
    0.33364207326909809011E-02
    0.33230531556973199117E-02
    0.33297172857871207979E-02
    0.33561950210105767102E-02
    0.33583752458116963337E-02
    0.33332911480981912075E-02
    0.33312478371062578635E-02
    0.33071407054437464666E-02
    0.33002335208426763526E-02
    0.32815278095502469456E-02
    0.32802706757491862689E-02
    0.32973621774872370095E-02
    0.33002369039886272385E-02
    0.33133294615528062314E-02
    0.33142722214973942621E-02
    0.34094657121060858822E-02
    0.34242854084533909040E-02
    0.34699191575556713289E-02
    0.34769575724401791637E-02
    0.34355347564000776259E-02
    0.34351189766688473848E-02
    0.33933578258753122059E-02
    0.33792051206666855537E-02
    0.33466832847200492229E-02
    0.33429633830410476758E-02
    0.33704810708430838276E-02
    0.33723277558891933021E-02
    0.33986640267683059131E-02
    0.34015870467283136798E-02
    0.34507096958689728421E-02
    0.34736994707076722898E-02
    0.35313679821918388113E-02
    0.35432241641292433823E-02
    0.34932849280159294393E-02
    0.34957036527380890185E-02
    0.34448847084722496702E-02
    0.34245540073059490410E-02
    0.33841367209567351122E-02
    0.33770826383284530299E-02
    0.34085975293439074382E-02
    0.34065252443061448499E-02
    0.34447166313009590019E-02
    0.34499192114182883340E-02
    0.36566498506776937485E-02
    0.36986072545324532972E-02
    0.38040828586361902230E-02
    0.38244183766010897245E-02
    0.37320309873776790800E-02
    0.37333177438248228014E-02
    0.36415214928064492880E-02
    0.36071539251458489134E-02
    0.35348659564160816310E-02
    0.35229134104483605418E-02
    0.35800408638878345770E-02
    0.35763979874347024031E-02
    0.36452281298702988999E-02
    0.36540926464106930453E-02
    0.35662564411486716992E-02
    0.35975755496500871553E-02
    0.36800305080118061660E-02
    0.36967127690001244308E-02
    0.36239435314762572307E-02
    0.36262234335538365282E-02
    0.35509415350420256083E-02
    0.35234433842775592267E-02
    0.34649492657018196411E-02
    0.34565234692773179337E-02
    0.35033422866192387608E-02
    0.35024774254813631838E-02
    0.35548298441658581111E-02
    0.35616345337324511848E-02
    0.38598986547310641312E-02
    0.39226564544909640203E-02
    0.40766414979843340963E-02
    0.41104504946547033503E-02
    0.39755830173892735963E-02
    0.39799415074419555033E-02
    0.38406098714499838261E-02
    0.37898314071310376661E-02
    0.36823203299594479965E-02
    0.36657986284466780036E-02
    0.37500194331617853552E-02
    0.37445170194391674476E-02
    0.38458695833909800794E-02
    0.38594553745849528165E-02
    0.32516899840976578456E-02
    0.32472701666268061205E-02
    0.32530319038165810171E-02
    0.32491415310039297240E-02
    0.32398782319079714141E-02
    0.32342775925504026538E-02
    0.32277489830390307217E-02
    0.32303911506434972341E-02
    0.32267296701468045975E-02
    0.32300955203255483743E-02
    0.32373717683230203955E-02
    0.32443975281233297832E-02
    0.32392096089495360338E-02
    0.32371058937859329557E-02
    0.32618652967549162901E-02
    0.32597791180908218187E-02
    0.32699460621991036438E-02
    0.32668291843801805681E-02
    0.32541273357934315767E-02
    0.32486871099718307894E-02
    0.32388690902902736446E-02
    0.32399206181804264190E-02
    0.32333002078750857841E-02
    0.32356960285855607129E-02
    0.32450101431309836229E-02
    0.32510195106265783044E-02
    0.32498188693302174253E-02
    0.32482470488793073991E-02
    0.33003611537188400939E-02
    0.32928500897516149379E-02
    0.33028990564299125915E-02
    0.32961935014119915673E-02
    0.32800940162743498149E-02
    0.32703176321417499854E-02
    0.32590171415978609441E-02
    0.32636663567044534376E-02
    0.32573684621862502783E-02
    0.32631843999100049875E-02
    0.32757478537301654153E-02
    0.32878246348242014079E-02
    0.32789364095873472019E-02
    0.32752986214471596291E-02
    0.33183425112136965413E-02
    0.33146196633247614234E-02
    0.33323249312105268811E-02
    0.33265865758965776876E-02
    0.33042979118456717626E-02
    0.32942633096538090701E-02
    0.32773778751406671197E-02
    0.32796760688655374368E-02
    0.32683865054666519021E-02
    0.32727171838303399133E-02
    0.32889092169018597708E-02
    0.32994667983834318793E-02
    0.32971437506662468198E-02
    0.32942821309521297217E-02
    0.32870677276155644414E-02
    0.32868502207981840045E-02
    0.33030277230509173629E-02
    0.33002407710024305940E-02
    0.32820974261840701186E-02
    0.32760829048674670189E-02
    0.32612675992962792543E-02
    0.32607627689556122411E-02
    0.32500001645991171730E-02
    0.32518005243078428046E-02
    0.32647519336959588548E-02
    0.32708637506454665139E-02
    0.32733320250373653011E-02
    0.32720546480000663007E-02
    0.33312478373602738557E-02
    0.33332911483035642525E-02
    0.33583752460307246882E-02
    0.33561950211805496869E-02
    0.33297172859098802394E-02
    0.33230531557576093588E-02
    0.33002369040195924862E-02
    0.32973621775718169220E-02
    0.32802706758356171314E-02
    0.32815278096752329047E-02
    0.33002335210105785031E-02
    0.33071407056737625596E-02
    0.33142722216537223376E-02
    0.33133294616844279415E-02
    0.33618427023356092440E-02
    0.33604928843647737663E-02
    0.33883078842157467528E-02
    0.33821564370052820993E-02
    0.33502040248811512484E-02
    0.33381770923680332587E-02
    0.33130920256872150621E-02
    0.33135977372751434372E-02
    0.32955776204260643115E-02
    0.32993491174614273352E-02
    0.33220636734126816197E-02
    0.33334517660945418328E-02
    0.33364207331233958556E-02
    0.33336759302522076497E-02
    0.34351189773231213288E-02
    0.34355347569902162409E-02
    0.34769575730961592083E-02
    0.34699191581402761761E-02
    0.34242854089102056116E-02
    0.34094657124563304551E-02
    0.33723277561460715882E-02
    0.33704810711796336260E-02
    0.33429633833464695962E-02
    0.33466832850886302567E-02
    0.33792051211353544941E-02
    0.33933578264528302740E-02
    0.34015870472066896991E-02
    0.33986640272079659403E-02
    0.33828563548874935815E-02
    0.33705991504491940661E-02
    0.33881103420815277677E-02
    0.33770984303562625976E-02
    0.33494226269034925621E-02
    0.33328186705203315110E-02
    0.33132139173723991477E-02
    0.33210143504405339673E-02
    0.33100961706779715409E-02
    0.33199917409794431691E-02
    0.33413397540114019545E-02
    0.33616712606487917162E-02
    0.33469716203623506995E-02
    0.33408942852854073453E-02
    0.34160829877407619844E-02
    0.34104910278483285477E-02
    0.34422231767694817621E-02
    0.34324759846392090788E-02
    0.33929830807567025637E-02
    0.33752409645765295981E-02
    0.33454608065791933795E-02
    0.33495176220863730719E-02
    0.33296967972560979898E-02
    0.33370966578158524699E-02
    0.33652564007761631877E-02
    0.33830986636805221793E-02
    0.33800023777201568080E-02
    0.33751333445799225341E-02
    0.35188162864237229784E-02
    0.34999065883152958960E-02
    0.35302526836445318262E-02
    0.35132717239574808715E-02
    0.34664630783185312705E-02
    0.34394662605028909243E-02
    0.34055526538952379280E-02
    0.34179225206645257040E-02
    0.33991352656107293347E-02
    0.34154335296519983123E-02
    0.34508739544184484881E-02
    0.34840370105213070741E-02
    0.34608546500713020973E-02
    0.34511314154023900805E-02
    0.35819097323931720252E-02
    0.35754693494431809449E-02
    0.36329688462851247518E-02
    0.36180674921138657012E-02
    0.35483248427420626021E-02
    0.35184077277436447313E-02
    0.34652290374965898263E-02
    0.34710479893178634164E-02
    0.34355684215342861647E-02
    0.34474506473758069480E-02
    0.34959336172612387635E-02
    0.35246110438416360273E-02
    0.35230545062740819748E-02
    0.35154348749177671482E-02
    0.34957036538636313862E-02
    0.34932849291128649158E-02
    0.35432241654018235139E-02
    0.35313679833993963028E-02
    0.34736994716850605990E-02
    0.34507096967236710987E-02
    0.34065252449697173455E-02
    0.34085975300676952214E-02
    0.33770826389474054019E-02
    0.33841367216309869992E-02
    0.34245540081541243037E-02
    0.34448847094449689711E-02
    0.34499192123397335458E-02
    0.34447166321866177358E-02
    0.36262234350172084865E-02
    0.36239435328472634039E-02
    0.36967127705647322491E-02
    0.36800305094484156779E-02
    0.35975755508068575812E-02
    0.35662564421114844281E-02
    0.35024774262272847375E-02
    0.35033422874799994423E-02
    0.34565234700380978276E-02
    0.34649492665612545601E-02
    0.35234433853558134661E-02
    0.35509415363077410054E-02