# vtk DataFile Version 3.0
LAPLACIEN  2D
ASCII
DATASET UNSTRUCTURED_GRID
FIELD FieldData 1
TIME 1 1 double
6.0000
 POINTS        7297  float
   1.5625000000000000E-002  0.96875000000000000        0.0000000000000000     
   3.1250000000000000E-002  0.96875000000000000        0.0000000000000000     
   3.1250000000000000E-002  0.98437500000000000        0.0000000000000000     
   9.3749999999999997E-003  0.97812500000000002        0.0000000000000000     
   2.0312500000000001E-002  0.97968750000000004        0.0000000000000000     
   2.1874999999999999E-002  0.99062499999999998        0.0000000000000000     
   1.0937499999999999E-002  0.98906249999999996        0.0000000000000000     
   4.6875000000000000E-002  0.96875000000000000        0.0000000000000000     
   6.2500000000000000E-002  0.96875000000000000        0.0000000000000000     
   6.2500000000000000E-002  0.98437500000000000        0.0000000000000000     
   4.0625000000000001E-002  0.97812500000000002        0.0000000000000000     
   5.1562499999999997E-002  0.97968750000000004        0.0000000000000000     
   5.3124999999999999E-002  0.99062499999999998        0.0000000000000000     
   4.2187500000000003E-002  0.98906249999999996        0.0000000000000000     
   1.5625000000000000E-002  0.93750000000000000        0.0000000000000000     
   3.1250000000000000E-002  0.93750000000000000        0.0000000000000000     
   3.1250000000000000E-002  0.95312500000000000        0.0000000000000000     
   9.3749999999999997E-003  0.94687500000000002        0.0000000000000000     
   2.0312500000000001E-002  0.94843750000000004        0.0000000000000000     
   2.1874999999999999E-002  0.95937499999999998        0.0000000000000000     
   1.0937499999999999E-002  0.95781249999999996        0.0000000000000000     
   4.6875000000000000E-002  0.93750000000000000        0.0000000000000000     
   6.2500000000000000E-002  0.93750000000000000        0.0000000000000000     
   6.2500000000000000E-002  0.95312500000000000        0.0000000000000000     
   4.0625000000000001E-002  0.94687500000000002        0.0000000000000000     
   5.1562499999999997E-002  0.94843750000000004        0.0000000000000000     
   5.3124999999999999E-002  0.95937499999999998        0.0000000000000000     
   4.2187500000000003E-002  0.95781249999999996        0.0000000000000000     
   7.8125000000000000E-002  0.96875000000000000        0.0000000000000000     
   9.3750000000000000E-002  0.96875000000000000        0.0000000000000000     
   9.3750000000000000E-002  0.98437500000000000        0.0000000000000000     
   7.1874999999999994E-002  0.97812500000000002        0.0000000000000000     
   8.2812499999999997E-002  0.97968750000000004        0.0000000000000000     
   8.4375000000000006E-002  0.99062499999999998        0.0000000000000000     
   7.3437500000000003E-002  0.98906249999999996        0.0000000000000000     
  0.10937500000000000       0.96875000000000000        0.0000000000000000     
  0.12500000000000000       0.96875000000000000        0.0000000000000000     
  0.12500000000000000       0.98437500000000000        0.0000000000000000     
  0.10312499999999999       0.97812500000000002        0.0000000000000000     
  0.11406250000000000       0.97968750000000004        0.0000000000000000     
  0.11562500000000001       0.99062499999999998        0.0000000000000000     
  0.10468750000000000       0.98906249999999996        0.0000000000000000     
   7.8125000000000000E-002  0.93750000000000000        0.0000000000000000     
   9.3750000000000000E-002  0.93750000000000000        0.0000000000000000     
   9.3750000000000000E-002  0.95312500000000000        0.0000000000000000     
   7.1874999999999994E-002  0.94687500000000002        0.0000000000000000     
   8.2812499999999997E-002  0.94843750000000004        0.0000000000000000     
   8.4375000000000006E-002  0.95937499999999998        0.0000000000000000     
   7.3437500000000003E-002  0.95781249999999996        0.0000000000000000     
  0.10937500000000000       0.93750000000000000        0.0000000000000000     
  0.12500000000000000       0.93750000000000000        0.0000000000000000     
  0.12500000000000000       0.95312500000000000        0.0000000000000000     
  0.10312499999999999       0.94687500000000002        0.0000000000000000     
  0.11406250000000000       0.94843750000000004        0.0000000000000000     
  0.11562500000000001       0.95937499999999998        0.0000000000000000     
  0.10468750000000000       0.95781249999999996        0.0000000000000000     
   1.5625000000000000E-002  0.90625000000000000        0.0000000000000000     
   3.1250000000000000E-002  0.90625000000000000        0.0000000000000000     
   3.1250000000000000E-002  0.92187500000000000        0.0000000000000000     
   9.3749999999999997E-003  0.91562500000000002        0.0000000000000000     
   2.0312500000000001E-002  0.91718750000000004        0.0000000000000000     
   2.1874999999999999E-002  0.92812499999999998        0.0000000000000000     
   1.0937499999999999E-002  0.92656249999999996        0.0000000000000000     
   4.6875000000000000E-002  0.90625000000000000        0.0000000000000000     
   6.2500000000000000E-002  0.90625000000000000        0.0000000000000000     
   6.2500000000000000E-002  0.92187500000000000        0.0000000000000000     
   4.0625000000000001E-002  0.91562500000000002        0.0000000000000000     
   5.1562499999999997E-002  0.91718750000000004        0.0000000000000000     
   5.3124999999999999E-002  0.92812499999999998        0.0000000000000000     
   4.2187500000000003E-002  0.92656249999999996        0.0000000000000000     
   1.5625000000000000E-002  0.87500000000000000        0.0000000000000000     
   3.1250000000000000E-002  0.87500000000000000        0.0000000000000000     
   3.1250000000000000E-002  0.89062500000000000        0.0000000000000000     
   9.3749999999999997E-003  0.88437500000000002        0.0000000000000000     
   2.0312500000000001E-002  0.88593750000000004        0.0000000000000000     
   2.1874999999999999E-002  0.89687499999999998        0.0000000000000000     
   1.0937499999999999E-002  0.89531249999999996        0.0000000000000000     
   4.6875000000000000E-002  0.87500000000000000        0.0000000000000000     
   6.2500000000000000E-002  0.87500000000000000        0.0000000000000000     
   6.2500000000000000E-002  0.89062500000000000        0.0000000000000000     
   4.0625000000000001E-002  0.88437500000000002        0.0000000000000000     
   5.1562499999999997E-002  0.88593750000000004        0.0000000000000000     
   5.3124999999999999E-002  0.89687499999999998        0.0000000000000000     
   4.2187500000000003E-002  0.89531249999999996        0.0000000000000000     
   7.8125000000000000E-002  0.90625000000000000        0.0000000000000000     
   9.3750000000000000E-002  0.90625000000000000        0.0000000000000000     
   9.3750000000000000E-002  0.92187500000000000        0.0000000000000000     
   7.1874999999999994E-002  0.91562500000000002        0.0000000000000000     
   8.2812499999999997E-002  0.91718750000000004        0.0000000000000000     
   8.4375000000000006E-002  0.92812499999999998        0.0000000000000000     
   7.3437500000000003E-002  0.92656249999999996        0.0000000000000000     
  0.10937500000000000       0.90625000000000000        0.0000000000000000     
  0.12500000000000000       0.90625000000000000        0.0000000000000000     
  0.12500000000000000       0.92187500000000000        0.0000000000000000     
  0.10312499999999999       0.91562500000000002        0.0000000000000000     
  0.11406250000000000       0.91718750000000004        0.0000000000000000     
  0.11562500000000001       0.92812499999999998        0.0000000000000000     
  0.10468750000000000       0.92656249999999996        0.0000000000000000     
   7.8125000000000000E-002  0.87500000000000000        0.0000000000000000     
   9.3750000000000000E-002  0.87500000000000000        0.0000000000000000     
   9.3750000000000000E-002  0.89062500000000000        0.0000000000000000     
   7.1874999999999994E-002  0.88437500000000002        0.0000000000000000     
   8.2812499999999997E-002  0.88593750000000004        0.0000000000000000     
   8.4375000000000006E-002  0.89687499999999998        0.0000000000000000     
   7.3437500000000003E-002  0.89531249999999996        0.0000000000000000     
  0.10937500000000000       0.87500000000000000        0.0000000000000000     
  0.12500000000000000       0.87500000000000000        0.0000000000000000     
  0.12500000000000000       0.89062500000000000        0.0000000000000000     
  0.10312499999999999       0.88437500000000002        0.0000000000000000     
  0.11406250000000000       0.88593750000000004        0.0000000000000000     
  0.11562500000000001       0.89687499999999998        0.0000000000000000     
  0.10468750000000000       0.89531249999999996        0.0000000000000000     
  0.14062500000000000       0.96875000000000000        0.0000000000000000     
  0.15625000000000000       0.96875000000000000        0.0000000000000000     
  0.15625000000000000       0.98437500000000000        0.0000000000000000     
  0.13437499999999999       0.97812500000000002        0.0000000000000000     
  0.14531250000000001       0.97968750000000004        0.0000000000000000     
  0.14687500000000001       0.99062499999999998        0.0000000000000000     
  0.13593749999999999       0.98906249999999996        0.0000000000000000     
  0.17187500000000000       0.96875000000000000        0.0000000000000000     
  0.18750000000000000       0.96875000000000000        0.0000000000000000     
  0.18750000000000000       0.98437500000000000        0.0000000000000000     
  0.16562499999999999       0.97812500000000002        0.0000000000000000     
  0.17656250000000001       0.97968750000000004        0.0000000000000000     
[...]
 CELL_DATA       14336
 SCALARS Nutrient float
 LOOKUP_TABLE default
    0.37433226849130224467E-02
    0.37432361155347059802E-02
    0.37438885359185746123E-02
    0.37438885358691423658E-02
    0.37432361157294551449E-02
    0.37433226847400249797E-02
    0.37428033609487381880E-02
    0.37424982405553338174E-02
    0.37421683681956962979E-02
    0.37421683670711882591E-02
    0.37424982411355177218E-02
    0.37428033607111066590E-02
    0.37427557842788861456E-02
    0.37427557840956793972E-02
    0.37454606978876707653E-02
    0.37460305236737831761E-02
    0.37475785988830890606E-02
    0.37480061499808136997E-02
    0.37468460460855241428E-02
    0.37474036348965579155E-02
    0.37461862967110765889E-02
    0.37451743549104508403E-02
    0.37441077697403508766E-02
    0.37437213626030103192E-02
    0.37443905054622859604E-02
    0.37443066969784564828E-02
    0.37453490544422352558E-02
    0.37455799576856028781E-02
    0.37474036349374995579E-02
    0.37468460460633591473E-02
    0.37480061500004702851E-02
    0.37475785988756635768E-02
    0.37460305237258756210E-02
    0.37454606978293216064E-02
    0.37443066971001035328E-02
    0.37443905053489035667E-02
    0.37437213627578534714E-02
    0.37441077696012381969E-02
    0.37451743549924520864E-02
    0.37461862966960877107E-02
    0.37455799577289887459E-02
    0.37453490544296389950E-02
    0.37502731420812718093E-02
    0.37505220277002514380E-02
    0.37529405306469939760E-02
    0.37529405306416627371E-02
    0.37505220277115149975E-02
    0.37502731420599646345E-02
    0.37481285166135473903E-02
    0.37475176825065054272E-02
    0.37459225643923532191E-02
    0.37459225643343713880E-02
    0.37475176825453614983E-02
    0.37481285165938140434E-02
    0.37488329750711975145E-02
    0.37488329750601030906E-02
    0.37511786884342605310E-02
    0.37527188685660935533E-02
    0.37557359707980114867E-02
    0.37568593701514355239E-02
    0.37548633947545374291E-02
    0.37562141290917294006E-02
    0.37538307471025158038E-02
    0.37516186604067739384E-02
    0.37493316736413890428E-02
    0.37483627348713758655E-02
    0.37495854481866311946E-02
    0.37489981926224495885E-02
    0.37516648293119659284E-02
    0.37522737630289529354E-02
    0.37626121573666633513E-02
    0.37657153384359769339E-02
    0.37710447116576597572E-02
    0.37732105691355532877E-02
    0.37698462451469195653E-02
    0.37723415728130186078E-02
    0.37681297327826161064E-02
    0.37641242132883398833E-02
    0.37599596409002367450E-02
    0.37580672374802723441E-02
    0.37602071680544898145E-02
    0.37587940233215480154E-02
    0.37640440066169979921E-02
    0.37652222141763289423E-02
    0.37577683046562883502E-02
    0.37589715916366236471E-02
    0.37632126185788645004E-02
    0.37637779411375622482E-02
    0.37600075230199638161E-02
    0.37602235551767709126E-02
    0.37565047708971771763E-02
    0.37548630345384977069E-02
    0.37518198516083510995E-02
    0.37513620530169166506E-02
    0.37539099391373396616E-02
    0.37541953522885721135E-02
    0.37565268357796265455E-02
    0.37568173867484860699E-02
    0.37719580118568424992E-02
    0.37747256571692201256E-02
    0.37820247099462087417E-02
    0.37835339666772416743E-02
    0.37774997765372955380E-02
    0.37784622758486527405E-02
    0.37721880337712706058E-02
    0.37688855214221598199E-02
    0.37635207372044682771E-02
    0.37623068259093140134E-02
    0.37663416699503906096E-02
    0.37661152788618784681E-02
    0.37710623768292912336E-02
    0.37718400058832464092E-02
    0.37562141291318257991E-02
    0.37548633947781270663E-02
    0.37568593701825274064E-02
    0.37557359708201344152E-02
    0.37527188685955547957E-02
    0.37511786884342397143E-02
    0.37489981926584255850E-02
    0.37495854481823451265E-02
    0.37483627349132681364E-02
    0.37493316736403139479E-02
    0.37516186604438154888E-02
    0.37538307471323881757E-02
    0.37522737630584185146E-02
    0.37516648293318584362E-02
    0.37602235552050989470E-02
    0.37600075230374220732E-02
    0.37637779411609202998E-02
    0.37632126185957880289E-02
    0.37589715916525848378E-02
    0.37577683046555879556E-02
    0.37541953522990637211E-02
    0.37539099391351105420E-02
    0.37513620530407018779E-02
    0.37518198516096343612E-02
    0.37548630345625019430E-02
    0.37565047709150070979E-02
    0.37568173867674513680E-02
    0.37565268357910562048E-02
    0.37723415728971036905E-02
    0.37698462452182153991E-02
    0.37732105692118980342E-02
    0.37710447117243555380E-02
    0.37657153384924603977E-02
    0.37626121574052835000E-02
    0.37587940233586945166E-02
    0.37602071680945280997E-02
    0.37580672375231885356E-02
    0.37599596409455047878E-02
    0.37641242133518134153E-02
    0.37681297328612077535E-02
    0.37652222142378981816E-02
    0.37640440066711230993E-02
    0.37784622759253513706E-02
    0.37774997766050603422E-02
    0.37835339667550674410E-02
    0.37820247100156197985E-02
    0.37747256572223074345E-02
    0.37719580118914784218E-02
    0.37661152788898799408E-02
    0.37663416699842602181E-02
    0.37623068259449417641E-02
    0.37635207372428737538E-02
    0.37688855214767337867E-02
    0.37721880338362247242E-02
    0.37718400059386794979E-02
    0.37710623768789294785E-02
    0.37706678803467058060E-02
    0.37716028045110651726E-02
    0.37778919582490489218E-02
    0.37778919582443976945E-02
    0.37716028045054516074E-02
    0.37706678803296395965E-02
    0.37649354389553664826E-02
    0.37636070484743243576E-02
    0.37592076070740590779E-02
    0.37592076070718967451E-02
    0.37636070484844707552E-02
    0.37649354389709642488E-02
    0.37672409131713109620E-02
    0.37672409131684053002E-02
    0.37900985768631613969E-02
    0.37928665025279278966E-02
    0.38034526031670546319E-02
    0.38044385762553193341E-02
    0.37945838391686354321E-02
    0.37940594330772361986E-02
    0.37845689806084025116E-02
    0.37815037498377108809E-02
    0.37739951021350825501E-02
    0.37733256437393379937E-02
    0.37800284010642746201E-02
    0.37810426090251819317E-02
    0.37864500687987212926E-02
    0.37869173529613306232E-02
    0.37940594331570300091E-02
    0.37945838392346750538E-02
    0.38044385763286313502E-02
    0.38034526032254311126E-02
    0.37928665025693157967E-02
    0.37900985768839121591E-02
    0.37810426090345433670E-02
    0.37800284010888023090E-02
    0.37733256437645777866E-02
    0.37739951021687301140E-02
    0.37815037498900002169E-02
    0.37845689806804733331E-02
    0.37869173530112108621E-02
    0.37864500688406031552E-02
    0.38224702511862099739E-02
    0.38250977400355488586E-02
    0.38410581708032518096E-02
    0.38410581707903719215E-02
    0.38250977400124210916E-02
    0.38224702511324799500E-02
    0.38079691629092204258E-02
    0.38048492123942878260E-02
    0.37937863196263604815E-02
    0.37937863196366356823E-02
    0.38048492124179611636E-02
    0.38079691629650342863E-02
    0.38141022160933374385E-02
    0.38141022160864792093E-02
    0.37831317151575481056E-02
    0.37887105229162981908E-02
    0.37979434301933048292E-02
    0.38018203321583451254E-02
    0.37960748969044742773E-02
    0.38004792222508204484E-02
    0.37932099577960612900E-02
    0.37862098342093487499E-02
    0.37789617161108099257E-02
    0.37756103745346550164E-02
    0.37792577374324573883E-02
    0.37766279818275999731E-02
    0.37859462499473550169E-02
    0.37880418199983919084E-02
    0.38190615813619749504E-02
    0.38288130042202928732E-02
    0.38448795105756241458E-02
    0.38515700453016156642E-02
    0.38415380798139196067E-02
    0.38490320048664540889E-02
    0.38365204804887572364E-02
    0.38244719843416106857E-02
    0.38119397622908782891E-02
    0.38061404473402065014E-02
    0.38124228559336310364E-02
    0.38077884305628023100E-02
    0.38240258239161961130E-02
    0.38276543925942893218E-02
    0.37975032130139955815E-02
    0.38029260013619074245E-02
    0.38155950876928483931E-02
    0.38187025330812386474E-02
    0.38085581693478309795E-02
    0.38106351228603162554E-02
    0.37998175618937485819E-02
    0.37938294566004227004E-02
    0.37845461533244171420E-02
    0.37821608801913626265E-02
    0.37887603942662094816E-02
    0.37877148927155574777E-02
    0.37970600182689784492E-02
    0.37986259711395033677E-02
    0.38429711913776760067E-02
    0.38529853626193986613E-02
    0.38752391736427923598E-02
    0.38809664307376621345E-02
    0.38632838827942651144E-02
    0.38669955481903904582E-02
    0.38481492499223956399E-02
    0.38376157495825635041E-02
    0.38214573227685066925E-02
    0.38171393885450934438E-02
    0.38284071244182298760E-02
    0.38261174936547012911E-02
    0.38429835635542764979E-02
    0.38458381908015827275E-02
    0.38814431268135367141E-02
    0.38980207376516098038E-02
    0.39256631957278022640E-02
    0.39366594461241102149E-02
    0.39191649240919428782E-02
    0.39314044833171721965E-02
    0.39102444721852190959E-02
    0.38899421223668878556E-02
    0.38686265091275331106E-02
    0.38587485871794135507E-02
    0.38696508445818927902E-02
    0.38618666030474707238E-02
    0.38895002503191314705E-02
    0.38955678928071697277E-02
    0.39879702063342469670E-02
    0.40149411856195719658E-02
    0.40617186202888790406E-02
    0.40786844714839915610E-02
    0.40483532883484260601E-02
    0.40672460604799509643E-02
    0.40324901026778919161E-02
    0.39993549009143631798E-02
    0.39639457738858945718E-02
    0.39476650313290404318E-02
    0.39664370121815341677E-02
    0.39540836494029660275E-02
    0.39996163527904670873E-02
    0.40093300896316703269E-02
    0.39238329481777614940E-02
    0.39415532691584615615E-02
    0.39810118960642180627E-02
    0.39907472432118423766E-02
    0.39590363632389597229E-02
    0.39646160836656705456E-02
    0.39316603223498048508E-02
    0.39138432018627818815E-02
    0.38857176873934202999E-02
    0.38783318516752260559E-02
    0.38981311036760798658E-02
    0.38940845589347052903E-02
    0.39237164756732627671E-02
    0.39285779298035145013E-02
    0.40668854756890594412E-02
    0.40967815173864313011E-02
    0.41664937655298767485E-02
    0.41813836054391227692E-02
    0.41239015384655760763E-02
    0.41303293490478074426E-02
    0.40730557321209731256E-02
    0.40444026828957962277E-02
    0.39959517719622694720E-02
    0.39840837987733740758E-02
    0.40195438155628824065E-02
    0.40137360161634685202E-02
    0.40639021520115651068E-02
    0.40715142222260544344E-02
    0.38248371184857331458E-02
    0.38308384981947836423E-02
    0.38489473427097305180E-02
    0.38517286343482583927E-02
    0.38355793008040470204E-02
    0.38357936279913864251E-02
    0.38196221893964663399E-02
    0.38135272442341374040E-02
    0.38006088896467829161E-02
    0.37988151119151200574E-02
    0.38095507722070926296E-02
    0.38100555826411984343E-02
    0.38208155355798508433E-02
    0.38220893203775880426E-02
    0.38868265221387622577E-02
    0.38988374739105163477E-02
    0.39307541070777943931E-02
    0.39368983285512793718E-02
    0.39091108497212078213E-02
    0.39104554144135904303E-02
    0.38820974775790524115E-02
    0.38707289122310731613E-02
    0.38480496721424524605E-02
    0.38442869848871762985E-02
    0.38622797336130935963E-02
    0.38617766388339544101E-02
    0.38823284904506878690E-02
    0.38850685867747396761E-02
    0.38717256760463880476E-02
    0.38783804315120663786E-02
    0.39048228942205869679E-02
    0.39070007047829827251E-02
    0.38819490145808040020E-02
    0.38799078704667890743E-02
    0.38558366257681838708E-02
    0.38489421325497430448E-02
    0.38302709864934721823E-02
    0.38290168605795288359E-02
    0.38460765220221155604E-02
    0.38489460708727497341E-02
    0.38620168620377855716E-02
    0.38629580218144262370E-02
    0.39580383407741013060E-02
    0.39728462357834929200E-02
    0.40184442119159079210E-02
    0.40254789111552093106E-02
    0.39840870684845468980E-02
    0.39836713985387101067E-02
    0.39419456276413291848E-02
    0.39278080435494909170E-02
    0.38953222792338618348E-02
    0.38916075341295579097E-02
    0.39190935871535065999E-02
    0.39209377161650814381E-02
    0.39472478236488358488E-02
    0.39501682003259966716E-02
    0.39992491174204048560E-02
    0.40222221433323717896E-02
    0.40798567071520224631E-02
    0.40917051866702332588E-02
    0.40417906670681576220E-02
    0.40442028261329643346E-02
    0.39934146195182984584E-02
    0.39731044256758937111E-02
    0.39327220625947310884E-02
    0.39256780742113125959E-02
    0.39571667950940130065E-02
    0.39550989078655585454E-02
    0.39932565118587842398E-02
    0.39984538366944271867E-02
    0.42050857450179959796E-02
    0.42470279357370091522E-02
    0.43524759658158150913E-02
    0.43728044865076762596E-02
    0.42804355343607517967E-02
    0.42817149784933261278E-02
    0.41899435666560291835E-02
    0.41555952961585080827E-02
    0.40833384100890214932E-02
    0.40713961935203435427E-02
    0.41285010450718704136E-02
    0.41248635984202901977E-02
    0.41936622156738458805E-02
    0.42025215933287765960E-02
    0.41147271694575472678E-02
    0.41460344249421065069E-02
    0.42284571959054200602E-02
    0.42451357820101048163E-02
    0.41723933094874147975E-02
    0.41746722490401001054E-02
    0.40994218262365555300E-02
    0.40719390175837184495E-02
    0.40134793462347348111E-02
    0.40050597587326314600E-02
    0.40518490189029605225E-02
    0.40509833341440147289E-02
    0.41033090682707573996E-02
    0.41101108098704867977E-02
    0.44082801551347944313E-02
    0.44710292523525482083E-02
    0.46249916011460966148E-02
    0.46587986831969118232E-02
    0.45239491998637507489E-02
    0.45283062946216545014E-02
    0.43889971442903465484E-02
    0.43382316337572165293E-02
    0.42307487043083003703E-02
    0.42142330795337549706E-02
    0.42984296192185335317E-02
    0.42929269000165082293E-02
    0.43942576570960090523E-02
    0.44078409916857566250E-02
    0.38004792224329976384E-02
    0.37960748970662441804E-02
    0.38018203323315971631E-02
    0.37979434303492213415E-02
    0.37887105230461947183E-02
    0.37831317152613483205E-02
    0.37766279819131548003E-02
    0.37792577375346894132E-02
    0.37756103746307209668E-02
    0.37789617162203984792E-02
    0.37862098343477710097E-02
    0.37932099579673006148E-02
    0.37880418201356774906E-02
    0.37859462500743844802E-02
    0.38106351230424891086E-02
    0.38085581695187463447E-02
    0.38187025332772151290E-02
    0.38155950878758495767E-02
    0.38029260015052198697E-02
    0.37975032131272725908E-02
    0.37877148928027997571E-02
    0.37887603943694641261E-02
    0.37821608802825726521E-02
    0.37845461534291393625E-02
    0.37938294567339968417E-02
    0.37998175620509396823E-02
    0.37986259712807445531E-02
    0.37970600184015438489E-02
    0.38490320052373839382E-02
    0.38415380801489801450E-02
    0.38515700456630014986E-02
    0.38448795109057784525E-02
    0.38288130044974535461E-02
    0.38190615815933116016E-02
    0.38077884307531869104E-02
    0.38124228561555837010E-02
    0.38061404475460513912E-02
    0.38119397625235914434E-02
    0.38244719846277095213E-02
    0.38365204808361061221E-02
    0.38276543928812203910E-02
    0.38240258241848922027E-02
    0.38669955485807600525E-02
    0.38632838831701580076E-02
    0.38809664311702904600E-02
    0.38752391740556782311E-02
    0.38529853629481569492E-02
    0.38429711916537654878E-02
    0.38261174938712312101E-02
    0.38284071246608183774E-02
    0.38171393887557773447E-02
    0.38214573230036900930E-02
    0.38376157498756931739E-02
    0.38481492502593799866E-02
    0.38458381911162416167E-02
    0.38429835638546044028E-02
    0.38357936282110488210E-02
    0.38355793010059792414E-02
    0.38517286345792303183E-02
    0.38489473429174003369E-02
    0.38308384983550833672E-02
    0.38248371186091097151E-02
    0.38100555827281926483E-02
    0.38095507723188448169E-02
    0.37988151120129359101E-02
    0.38006088897620951897E-02
    0.38135272443895521476E-02
    0.38196221895890722538E-02
    0.38220893205399173939E-02
    0.38208155357296645985E-02
    0.38799078707018779325E-02
    0.38819490147715802163E-02
    0.39070007049885674064E-02
    0.39048228943805649016E-02
    0.38783804316269406345E-02
    0.38717256761033372846E-02
    0.38489460709005313306E-02
    0.38460765220992964436E-02
    0.38290168606574838395E-02
    0.38302709866068810306E-02
    0.38489421327040219782E-02
    0.38558366259801588397E-02
    0.38629580219589334730E-02
    0.38620168621594790255E-02
    0.39104554149198477928E-02
    0.39091108502038356479E-02
    0.39368983291134095753E-02
    0.39307541075981307713E-02
    0.38988374743258872104E-02
    0.38868265224870955990E-02
    0.38617766390965043745E-02
    0.38622797339123607178E-02
    0.38442869851431347474E-02
    0.38480496724283552723E-02
    0.38707289126016369840E-02
    0.38820974780156593253E-02
    0.38850685871736657939E-02
    0.38823284908288038103E-02
    0.39836713991595225359E-02
    0.39840870690459389766E-02
    0.40254789117833622222E-02
    0.40184442124764569240E-02
    0.39728462362190151980E-02
    0.39580383411082021086E-02
    0.39209377164064777507E-02
    0.39190935874699574584E-02
    0.38916075344140681723E-02
    0.38953222795780626311E-02
    0.39278080439910717167E-02
    0.39419456281867505318E-02
    0.39501682007790075643E-02
    0.39472478240652466783E-02
    0.39314044840396107985E-02
    0.39191649247529341052E-02
    0.39366594468386965910E-02
    0.39256631963913279221E-02
    0.38980207382092058738E-02
    0.38814431272903731664E-02
    0.38618666034413991033E-02
    0.38696508450310916280E-02
    0.38587485875942770068E-02
    0.38686265095921358592E-02
    0.38899421229303099944E-02
    0.39102444728598920870E-02
    0.38955678933761017819E-02
    0.38895002508559516248E-02
    0.39646160844573887991E-02
    0.39590363640097797626E-02
    0.39907472441078790937E-02
    0.39810118969228914382E-02
    0.39415532698520508448E-02
    0.39238329487765967116E-02
    0.38940845594104493005E-02
    0.38981311041917155770E-02
    0.38783318521208782516E-02
    0.38857176878800141380E-02
    0.39138432024640760695E-02
    0.39316603230286056164E-02
    0.39285779304552388355E-02
    0.39237164763006211754E-02
    0.40672460618330656332E-02
    0.40483532896093965547E-02
    0.40786844728686417680E-02
    0.40617186215755728823E-02
    0.40149411867026144757E-02
    0.39879702072717531161E-02
    0.39540836501823503971E-02
    0.39664370130537522641E-02
    0.39476650321323743936E-02
    0.39639457747777636157E-02
    0.39993549019844403664E-02
    0.40324901039411643888E-02
    0.40093300907211313136E-02
    0.39996163538244368721E-02
    0.41303293505756772871E-02
    0.41239015399868158077E-02
    0.41813836072256468229E-02
    0.41664937672516626568E-02
    0.40967815187794402731E-02
    0.40668854769164916596E-02
    0.40137360171392227198E-02
    0.40195438166022810084E-02
    0.39840837996646333644E-02
    0.39959517729267774594E-02
    0.40444026840781637996E-02
    0.40730557334392025054E-02
    0.40715142235179090785E-02
    0.40639021532635818262E-02
    0.40442028272005547951E-02
    0.40417906681115764456E-02
    0.40917051878892685482E-02
    0.40798567083097699720E-02
    0.40222221442636129848E-02
    0.39992491182342538442E-02
    0.39550989084899549134E-02
    0.39571667957742613989E-02
    0.39256780747868721612E-02
    0.39327220632221536814E-02
    0.39731044264736288529E-02
    0.39934146204354051268E-02
    0.39984538375664050239E-02
    0.39932565126970633387E-02
    0.41746722504531061024E-02
    0.41723933108131780814E-02
    0.42451357835301016183E-02
    0.42284571973016079130E-02
    0.41460344260617629578E-02
    0.41147271703890061709E-02
    0.40509833348596653579E-02
    0.40518490197284720566E-02
    0.40050597594575793395E-02
    0.40134793470545460439E-02
    0.40719390186190135630E-02
    0.40994218274537624208E-02