# vtk DataFile Version 3.0
LAPLACIEN  2D
ASCII
DATASET UNSTRUCTURED_GRID
 POINTS        7297  float
   1.5625000000000000E-002  0.96875000000000000        0.0000000000000000     
   3.1250000000000000E-002  0.96875000000000000        0.0000000000000000     
   3.1250000000000000E-002  0.98437500000000000        0.0000000000000000     
   9.3749999999999997E-003  0.97812500000000002        0.0000000000000000     
   2.0312500000000001E-002  0.97968750000000004        0.0000000000000000     
   2.1874999999999999E-002  0.99062499999999998        0.0000000000000000     
   1.0937499999999999E-002  0.98906249999999996        0.0000000000000000     
   4.6875000000000000E-002  0.96875000000000000        0.0000000000000000     
   6.2500000000000000E-002  0.96875000000000000        0.0000000000000000     
   6.2500000000000000E-002  0.98437500000000000        0.0000000000000000     
   4.0625000000000001E-002  0.97812500000000002        0.0000000000000000     
   5.1562499999999997E-002  0.97968750000000004        0.0000000000000000     
   5.3124999999999999E-002  0.99062499999999998        0.0000000000000000     
   4.2187500000000003E-002  0.98906249999999996        0.0000000000000000     
   1.5625000000000000E-002  0.93750000000000000        0.0000000000000000     
   3.1250000000000000E-002  0.93750000000000000        0.0000000000000000     
   3.1250000000000000E-002  0.95312500000000000        0.0000000000000000     
   9.3749999999999997E-003  0.94687500000000002        0.0000000000000000     
   2.0312500000000001E-002  0.94843750000000004        0.0000000000000000     
   2.1874999999999999E-002  0.95937499999999998        0.0000000000000000     
   1.0937499999999999E-002  0.95781249999999996        0.0000000000000000     
   4.6875000000000000E-002  0.93750000000000000        0.0000000000000000     
   6.2500000000000000E-002  0.93750000000000000        0.0000000000000000     
   6.2500000000000000E-002  0.95312500000000000        0.0000000000000000     
   4.0625000000000001E-002  0.94687500000000002        0.0000000000000000     
   5.1562499999999997E-002  0.94843750000000004        0.0000000000000000     
   5.3124999999999999E-002  0.95937499999999998        0.0000000000000000     
   4.2187500000000003E-002  0.95781249999999996        0.0000000000000000     
   7.8125000000000000E-002  0.96875000000000000        0.0000000000000000     
   9.3750000000000000E-002  0.96875000000000000        0.0000000000000000     
   9.3750000000000000E-002  0.98437500000000000        0.0000000000000000     
   7.1874999999999994E-002  0.97812500000000002        0.0000000000000000     
   8.2812499999999997E-002  0.97968750000000004        0.0000000000000000     
   8.4375000000000006E-002  0.99062499999999998        0.0000000000000000     
   7.3437500000000003E-002  0.98906249999999996        0.0000000000000000     
  0.10937500000000000       0.96875000000000000        0.0000000000000000     
  0.12500000000000000       0.96875000000000000        0.0000000000000000     
  0.12500000000000000       0.98437500000000000        0.0000000000000000     
  0.10312499999999999       0.97812500000000002        0.0000000000000000     
  0.11406250000000000       0.97968750000000004        0.0000000000000000     
  0.11562500000000001       0.99062499999999998        0.0000000000000000     
  0.10468750000000000       0.98906249999999996        0.0000000000000000     
   7.8125000000000000E-002  0.93750000000000000        0.0000000000000000     
   9.3750000000000000E-002  0.93750000000000000        0.0000000000000000     
   9.3750000000000000E-002  0.95312500000000000        0.0000000000000000     
   7.1874999999999994E-002  0.94687500000000002        0.0000000000000000     
   8.2812499999999997E-002  0.94843750000000004        0.0000000000000000     
   8.4375000000000006E-002  0.95937499999999998        0.0000000000000000     
   7.3437500000000003E-002  0.95781249999999996        0.0000000000000000     
  0.10937500000000000       0.93750000000000000        0.0000000000000000     
  0.12500000000000000       0.93750000000000000        0.0000000000000000     
  0.12500000000000000       0.95312500000000000        0.0000000000000000     
  0.10312499999999999       0.94687500000000002        0.0000000000000000     
  0.11406250000000000       0.94843750000000004        0.0000000000000000     
  0.11562500000000001       0.95937499999999998        0.0000000000000000     
  0.10468750000000000       0.95781249999999996        0.0000000000000000     
   1.5625000000000000E-002  0.90625000000000000        0.0000000000000000     
   3.1250000000000000E-002  0.90625000000000000        0.0000000000000000     
   3.1250000000000000E-002  0.92187500000000000        0.0000000000000000     
   9.3749999999999997E-003  0.91562500000000002        0.0000000000000000     
   2.0312500000000001E-002  0.91718750000000004        0.0000000000000000     
   2.1874999999999999E-002  0.92812499999999998        0.0000000000000000     
   1.0937499999999999E-002  0.92656249999999996        0.0000000000000000     
   4.6875000000000000E-002  0.90625000000000000        0.0000000000000000     
   6.2500000000000000E-002  0.90625000000000000        0.0000000000000000     
   6.2500000000000000E-002  0.92187500000000000        0.0000000000000000     
   4.0625000000000001E-002  0.91562500000000002        0.0000000000000000     
   5.1562499999999997E-002  0.91718750000000004        0.0000000000000000     
   5.3124999999999999E-002  0.92812499999999998        0.0000000000000000     
   4.2187500000000003E-002  0.92656249999999996        0.0000000000000000     
   1.5625000000000000E-002  0.87500000000000000        0.0000000000000000     
   3.1250000000000000E-002  0.87500000000000000        0.0000000000000000     
   3.1250000000000000E-002  0.89062500000000000        0.0000000000000000     
   9.3749999999999997E-003  0.88437500000000002        0.0000000000000000     
   2.0312500000000001E-002  0.88593750000000004        0.0000000000000000     
   2.1874999999999999E-002  0.89687499999999998        0.0000000000000000     
   1.0937499999999999E-002  0.89531249999999996        0.0000000000000000     
   4.6875000000000000E-002  0.87500000000000000        0.0000000000000000     
   6.2500000000000000E-002  0.87500000000000000        0.0000000000000000     
   6.2500000000000000E-002  0.89062500000000000        0.0000000000000000     
   4.0625000000000001E-002  0.88437500000000002        0.0000000000000000     
   5.1562499999999997E-002  0.88593750000000004        0.0000000000000000     
   5.3124999999999999E-002  0.89687499999999998        0.0000000000000000     
   4.2187500000000003E-002  0.89531249999999996        0.0000000000000000     
   7.8125000000000000E-002  0.90625000000000000        0.0000000000000000     
   9.3750000000000000E-002  0.90625000000000000        0.0000000000000000     
   9.3750000000000000E-002  0.92187500000000000        0.0000000000000000     
   7.1874999999999994E-002  0.91562500000000002        0.0000000000000000     
   8.2812499999999997E-002  0.91718750000000004        0.0000000000000000     
   8.4375000000000006E-002  0.92812499999999998        0.0000000000000000     
   7.3437500000000003E-002  0.92656249999999996        0.0000000000000000     
  0.10937500000000000       0.90625000000000000        0.0000000000000000     
  0.12500000000000000       0.90625000000000000        0.0000000000000000     
  0.12500000000000000       0.92187500000000000        0.0000000000000000     
  0.10312499999999999       0.91562500000000002        0.0000000000000000     
  0.11406250000000000       0.91718750000000004        0.0000000000000000     
  0.11562500000000001       0.92812499999999998        0.0000000000000000     
  0.10468750000000000       0.92656249999999996        0.0000000000000000     
   7.8125000000000000E-002  0.87500000000000000        0.0000000000000000     
   9.3750000000000000E-002  0.87500000000000000        0.0000000000000000     
   9.3750000000000000E-002  0.89062500000000000        0.0000000000000000     
   7.1874999999999994E-002  0.88437500000000002        0.0000000000000000     
   8.2812499999999997E-002  0.88593750000000004        0.0000000000000000     
   8.4375000000000006E-002  0.89687499999999998        0.0000000000000000     
   7.3437500000000003E-002  0.89531249999999996        0.0000000000000000     
  0.10937500000000000       0.87500000000000000        0.0000000000000000     
  0.12500000000000000       0.87500000000000000        0.0000000000000000     
  0.12500000000000000       0.89062500000000000        0.0000000000000000     
  0.10312499999999999       0.88437500000000002        0.0000000000000000     
  0.11406250000000000       0.88593750000000004        0.0000000000000000     
  0.11562500000000001       0.89687499999999998        0.0000000000000000     
  0.10468750000000000       0.89531249999999996        0.0000000000000000     
  0.14062500000000000       0.96875000000000000        0.0000000000000000     
  0.15625000000000000       0.96875000000000000        0.0000000000000000     
  0.15625000000000000       0.98437500000000000        0.0000000000000000     
  0.13437499999999999       0.97812500000000002        0.0000000000000000     
  0.14531250000000001       0.97968750000000004        0.0000000000000000     
  0.14687500000000001       0.99062499999999998        0.0000000000000000     
  0.13593749999999999       0.98906249999999996        0.0000000000000000     
  0.17187500000000000       0.96875000000000000        0.0000000000000000     
  0.18750000000000000       0.96875000000000000        0.0000000000000000     
  0.18750000000000000       0.98437500000000000        0.0000000000000000     
  0.16562499999999999       0.97812500000000002        0.0000000000000000     
  0.17656250000000001       0.97968750000000004        0.0000000000000000     
  0.17812500000000001       0.99062499999999998        0.0000000000000000     
[...]
 CELL_DATA       14336
 SCALARS Nutrients float
 LOOKUP_TABLE default
    0.12152299883383882312E-04
    0.12059049241801480655E-04
    0.12737613579692071708E-04
    0.12737613578922098430E-04
    0.12059049240136632315E-04
    0.12152299879443408809E-04
    0.11610849367511293551E-04
    0.11294337863457557281E-04
    0.10952344819715039166E-04
    0.10952344820199140518E-04
    0.11294337865247957927E-04
    0.11610849372528349318E-04
    0.11561169486893859478E-04
    0.11561169486380691343E-04
    0.14372211584053982150E-04
    0.14963372654059512400E-04
    0.16576446632863446731E-04
    0.17016369067718976768E-04
    0.15808037448318692326E-04
    0.16390202932833688207E-04
    0.15121183194192012184E-04
    0.14071360386718924029E-04
    0.12965760665513086347E-04
    0.12560963910883033803E-04
    0.13259240837984271604E-04
    0.13170746917078673900E-04
    0.14252873483012260799E-04
    0.14494644229545912236E-04
    0.16390202942654781120E-04
    0.15808037454914168580E-04
    0.17016369072319304184E-04
    0.16576446636459538661E-04
    0.14963372657413969547E-04
    0.14372211585495971040E-04
    0.13170746918596648421E-04
    0.13259240841573409394E-04
    0.12560963915110327909E-04
    0.12965760670939116726E-04
    0.14071360394051678089E-04
    0.15121183205581029151E-04
    0.14494644235303061347E-04
    0.14252873487685778638E-04
    0.19382661307280263168E-04
    0.19644109703256024851E-04
    0.22166146448962380390E-04
    0.22166146449108812058E-04
    0.19644109702227798003E-04
    0.19382661304074141819E-04
    0.17147085288388077152E-04
    0.16513659029779725483E-04
    0.14852129817462917608E-04
    0.14852129818163271554E-04
    0.16513659031040815240E-04
    0.17147085291354311994E-04
    0.17883893429009920217E-04
    0.17883893428688176446E-04
    0.20317081124028405647E-04
    0.21909503119121576358E-04
    0.25043296034281476901E-04
    0.26199707010968014532E-04
    0.24121240541194281375E-04
    0.25514504440621201524E-04
    0.23044635163491831536E-04
    0.20754105234896261852E-04
    0.18386510368890615733E-04
    0.17375431091929893025E-04
    0.18653522409049730655E-04
    0.18047500237554492663E-04
    0.20806842523127714548E-04
    0.21439330396774432496E-04
    0.32171360257929418900E-04
    0.35370433456814009260E-04
    0.40891584218311333827E-04
    0.43116468318173674877E-04
    0.39618775404871197287E-04
    0.42181998353657165193E-04
    0.37829643268453891206E-04
    0.33693888916060569052E-04
    0.29387114308506021769E-04
    0.27431051079968775223E-04
    0.29654587629157990836E-04
    0.28203724134738541941E-04
    0.33624621840449923080E-04
    0.34838401491879274034E-04
    0.27200124334493537526E-04
    0.28449173861121529135E-04
    0.32869293734622298216E-04
    0.33448137446672115221E-04
    0.29511234257471570877E-04
    0.29718305933550915265E-04
    0.25848232424523096213E-04
    0.24152511720995691199E-04
    0.20986280288939605809E-04
    0.20515693817319039888E-04
    0.23171860019965902943E-04
    0.23474013048383058743E-04
    0.25895956811389428523E-04
    0.26193646796851962840E-04
    0.41974727511075113362E-04
    0.44828214396636727169E-04
    0.52425603164922481578E-04
    0.53963363802351943543E-04
    0.47658263795245389639E-04
    0.48613139043608925968E-04
    0.42094214502971083859E-04
    0.38693337851266294825E-04
    0.33123858158959496717E-04
    0.31879738644268868473E-04
    0.36089146573274431947E-04
    0.35877709628394365167E-04
    0.40991223414164590616E-04
    0.41785832659759624015E-04
    0.25514504459956856291E-04
    0.24121240556989318094E-04
    0.26199707026144385163E-04
    0.25043296046851466167E-04
    0.21909503129381395069E-04
    0.20317081130590603671E-04
    0.18047500242050509665E-04
    0.18653522418016245252E-04
    0.17375431102283654466E-04
    0.18386510380993195278E-04
    0.20754105250243797513E-04
    0.23044635184985214646E-04
    0.21439330410156146988E-04
    0.20806842534780140128E-04
    0.29718305946213603816E-04
    0.29511234268510751379E-04
    0.33448137459345422178E-04
    0.32869293746015013330E-04
    0.28449173867876837118E-04
    0.27200124336410457789E-04
    0.23474013047604852305E-04
    0.23171860023538657421E-04
    0.20515693821561228221E-04
    0.20986280295052083547E-04
    0.24152511729542477253E-04
    0.25848232436154051201E-04
    0.26193646804951180074E-04
    0.25895956818152993383E-04
    0.42181998410038971427E-04
    0.39618775452805150914E-04
    0.43116468368696235730E-04
    0.40891584262610770721E-04
    0.35370433491120822293E-04
    0.32171360282234907348E-04
    0.28203724151911270973E-04
    0.29654587654527352666E-04
    0.27431051103718626999E-04
    0.29387114338099557236E-04
    0.33693888956580389082E-04
    0.37829643323733294223E-04
    0.34838401530581632410E-04
    0.33624621875000214040E-04
    0.48613139095661025036E-04
    0.47658263843167532239E-04
    0.53963363859301194088E-04
    0.52425603217580473477E-04
    0.44828214433408507722E-04
    0.41974727535338446675E-04
    0.35877709642976152551E-04
    0.36089146595645276816E-04
    0.31879738662473402220E-04
    0.33123858183059745695E-04
    0.38693337885719292191E-04
    0.42094214546559175708E-04
    0.41785832696503506691E-04
    0.40991223447542757383E-04
    0.40660586325415594400E-04
    0.41649628589833796776E-04
    0.48230049262517212764E-04
    0.48230049259966308668E-04
    0.41649628585716715209E-04
    0.40660586316108552230E-04
    0.34673733663686563808E-04
    0.33294145847223075691E-04
    0.28703062535817279894E-04
    0.28703062537168636258E-04
    0.33294145851880815000E-04
    0.34673733675898590174E-04
    0.37092281339135463368E-04
    0.37092281337865605126E-04
    0.61001602377029829271E-04
    0.63878938889127089679E-04
    0.74949272013083664845E-04
    0.75945930032691408859E-04
    0.65615651332756624219E-04
    0.65008769117580182564E-04
    0.55101363433227482200E-04
    0.51942568038004205519E-04
    0.44111779425732206049E-04
    0.43431617957688171928E-04
    0.50446126842119128704E-04
    0.51523898915696633965E-04
    0.57148392679918254137E-04
    0.57621669949398999339E-04
    0.65008769180063553364E-04
    0.65615651386330075775E-04
    0.75945930094108168667E-04
    0.74949272063434650704E-04
    0.63878938923285217936E-04
    0.61001602395514608950E-04
    0.51523898921229358309E-04
    0.50446126860894820155E-04
    0.43431617973635647473E-04
    0.44111779450048807570E-04
    0.51942568077268519433E-04
    0.55101363489698674126E-04
    0.57621669988439384847E-04
    0.57148392713158307100E-04
    0.94895701716820248938E-04
    0.97685513710898632571E-04
    0.11444661259494060316E-03
    0.11444661258408783428E-03
    0.97685513690726292211E-04
    0.94895701670744692373E-04
    0.79697532486535462059E-04
    0.76451813435739248152E-04
    0.64866436415222819643E-04
    0.64866436424681277423E-04
    0.76451813456167500883E-04
    0.79697532535832535643E-04
    0.86158228869722487718E-04
    0.86158228863875724215E-04
    0.53391876356676447009E-04
    0.59122577024350725914E-04
    0.68663875664080908402E-04
    0.72631914997669716808E-04
    0.66671363543641261979E-04
    0.71181316900307937696E-04
    0.63689911411577196897E-04
    0.56483778832651604460E-04
    0.49007843613226408498E-04
    0.45556280239344258275E-04
    0.49336372329070484865E-04
    0.46645331246250519813E-04
    0.56238565559016352648E-04
    0.58389646723926256090E-04
    0.90440269580235448663E-04
    0.10042740976230486293E-03
    0.11698505523801298119E-03
    0.12380820253937642895E-03
    0.11343330928652288904E-03
    0.12108544589820266252E-03
    0.10822463810049052298E-03
    0.95856184501411529362E-04
    0.82965639533982509890E-04
    0.77008323628921667402E-04
    0.83504349291569374288E-04
    0.78777227644721440963E-04
    0.95444448769544396396E-04
    0.99158555380262017732E-04
    0.68501222248884050914E-04
    0.74068373718935134799E-04
    0.87224563156625516667E-04
    0.90375704829795020737E-04
    0.79791186269738303798E-04
    0.81849557289339101374E-04
    0.70635187006052167660E-04
    0.64492813178573148635E-04
    0.54877276293388412909E-04
    0.52441381430336556340E-04
    0.59324197125390544798E-04
    0.58297042412074192783E-04
    0.67920573229647614329E-04
    0.69514551429893716382E-04
    0.11556862495171799554E-03
    0.12580511508824453659E-03
    0.14884346572789172876E-03
    0.15462646572608572783E-03
    0.13622886288344951823E-03
    0.13989533590066843328E-03
    0.12041272354004032576E-03
    0.10964321076467006030E-03
    0.92953607002493695189E-04
    0.88560449879557075138E-04
    0.10028973157548869350E-03
    0.98038133349812771810E-04
    0.11534170598955217077E-03
    0.11823597487232718724E-03
    0.15457592173009554524E-03
    0.17150873694407156090E-03
    0.19991484519170146772E-03
    0.21109898781443279430E-03
    0.19306430671468477142E-03
    0.20553121397990227297E-03
    0.18383723002294750253E-03
    0.16304648449380274022E-03
    0.14117904050004573854E-03
    0.13105909289193038770E-03
    0.14230021161855198981E-03
    0.13438336048532346706E-03
    0.16267184911781130269E-03
    0.16886652218473205173E-03
    0.26379808572672453111E-03
    0.29128234672979702157E-03
    0.33923398991389871896E-03
    0.35644781640322082197E-03
    0.32526995226285645123E-03
    0.34447158083238056713E-03
    0.30891906415676437508E-03
    0.27506415050920253462E-03
    0.23882200494696633722E-03
    0.22218029778954374669E-03
    0.24148189481531135304E-03
    0.22895072189501539930E-03
    0.27545088976719644524E-03
    0.28534635411079820825E-03
    0.19897396572499448700E-03
    0.21702722019077835152E-03
    0.25773753815417466779E-03
    0.26752964117760370637E-03
    0.23466223860743929178E-03
    0.24013382675667119368E-03
    0.20617006683807675310E-03
    0.18800728005894136040E-03
    0.15904686238659608913E-03
    0.15155076759137311028E-03
    0.17210095607919455567E-03
    0.16813812744879345733E-03
    0.19843388038612484411E-03
    0.20334663652958257017E-03
    0.34602638327264889900E-03
    0.37639664323641311428E-03
    0.44808043078243381917E-03
    0.46300160742885053964E-03
    0.40365810148751618894E-03
    0.40984140437270256746E-03
    0.35099075241818827311E-03
    0.32185042046514261921E-03
    0.27210667760363594801E-03
    0.26009204630717881095E-03
    0.29676055855567146655E-03
    0.29113435175909713236E-03
    0.34227888277859989941E-03
    0.34994665324176603199E-03
    0.97280936131847539974E-04
    0.10346535750911478688E-03
    0.12237393066592665031E-03
    0.12517131195313301473E-03
    0.10824079781475934596E-03
    0.10832019624900865451E-03
    0.91466165709767002106E-04
    0.85215661371672505437E-04
    0.71767122582234028601E-04
    0.69953597664742321583E-04
    0.81198498768736575618E-04
    0.81801721970933813691E-04
    0.92927933852336076933E-04
    0.94212536169467329971E-04
    0.16180150300677953045E-03
    0.17410146689703475255E-03
    0.20731870963722502307E-03
    0.21347275801474199048E-03
    0.18440921687715790440E-03
    0.18551739568562351421E-03
    0.15605203518075523019E-03
    0.14444827238908799355E-03
    0.12091127753874340628E-03
    0.11711989426095859295E-03
    0.13594691933920075716E-03
    0.13560918584649798990E-03
    0.15674697860914470812E-03
    0.15949952138377538583E-03
    0.14666396316361112492E-03
    0.15359958603785480434E-03
    0.18136393929862461663E-03
    0.18354273788651284953E-03
    0.15717516102878073526E-03
    0.15486331443009774688E-03
    0.12964463307890279858E-03
    0.12254354439575010035E-03
    0.10300355469427395526E-03
    0.10174309308759162205E-03
    0.11966494750404231908E-03
    0.12272482397438389413E-03
    0.13636178500358003395E-03
    0.13730561360829359840E-03
    0.23712268942359171270E-03
    0.25238095284534810747E-03
    0.30014287419254261470E-03
    0.30716896967603849085E-03
    0.26361436530819955725E-03
    0.26274146945649406179E-03
    0.21913734646853902507E-03
    0.20467565900919693187E-03
    0.17077413622377247125E-03
    0.16705432267135451006E-03
    0.19595526092885652775E-03
    0.19812001379804428450E-03
    0.22534479981987142806E-03
    0.22826525057958468065E-03
    0.27831416831087320589E-03
    0.30172893449715871422E-03
    0.36146952568931429517E-03
    0.37330372190449902930E-03
    0.32130137021131935631E-03
    0.32329186922011371105E-03
    0.27071514389502999163E-03
    0.25005738247745604641E-03
    0.20830365181228601779E-03
    0.20122517880623601088E-03
    0.23407608632138217093E-03
    0.23230293688558271764E-03
    0.27137117304176501358E-03
    0.27657629253053229827E-03
    0.49071971269558714579E-03
    0.53331522180063203192E-03
    0.64215694970451908316E-03
    0.66239003110348806339E-03
    0.56661481184440410080E-03
    0.56711842241839738061E-03
    0.47248397016747364268E-03
    0.43764910174106991161E-03
    0.36320877581331377460E-03
    0.35124732025139989572E-03
    0.41057745654898115213E-03
    0.40746724841187549528E-03
    0.47765836475319287287E-03
    0.48649870963170114202E-03
    0.40058100460235642479E-03
    0.43260417034808557957E-03
    0.51856414439178271421E-03
    0.53520168319997729178E-03
    0.45890256962595200310E-03
    0.46038943225692091675E-03
    0.38207401737217649334E-03
    0.35409721570384914552E-03
    0.29333554090607945808E-03
    0.28492079260819351810E-03
    0.33404014982870707884E-03
    0.33371445815686551087E-03
    0.38750924647153889031E-03
    0.39429752292413915334E-03
    0.70515908712694846689E-03
    0.76902753263806129629E-03
    0.92876607169539899828E-03
    0.96243893821684430630E-03
    0.82173508151533786095E-03
    0.82470373510373773656E-03
    0.68040001304977757151E-03
    0.62890879961163804156E-03
    0.51769210516598013466E-03
    0.50122860335596441245E-03
    0.58925213347871859947E-03
    0.58468829009261581893E-03
    0.68833877533569965031E-03
    0.70186982447164724275E-03
    0.71181317042051948972E-04
    0.66671363668263078210E-04
    0.72631915131752809744E-04
    0.68663875784792386867E-04
    0.59122577120961331985E-04
    0.53391876432073167127E-04
    0.46645331303724158292E-04
    0.49336372402201493492E-04
    0.45556280306143078981E-04
    0.49007843692813759747E-04
    0.56483778936687328452E-04
    0.63689911546049667490E-04
    0.58389646826805441295E-04
    0.56238565653259711696E-04
    0.81849557434381431842E-04
    0.79791186407793737311E-04
    0.90375704992811349689E-04
    0.87224563310927231844E-04
    0.74068373834961111603E-04
    0.68501222339608882532E-04
    0.58297042476612533275E-04
    0.59324197203589507403E-04
    0.52441381494941663357E-04
    0.54877276370251177652E-04
    0.64492813280767890562E-04
    0.70635187127945982147E-04
    0.69514551540834513947E-04
    0.67920573333835174059E-04
    0.12108544621502748953E-03
    0.11343330957077375624E-03
    0.12380820284798763845E-03
    0.11698505551965581362E-03
    0.10042740999301424899E-03
    0.90440269769276058543E-04
    0.78777227794491909343E-04
    0.83504349470394929455E-04
    0.77008323792364860301E-04
    0.82965639722846936917E-04
    0.95856184739846397999E-04
    0.10822463839755984470E-03
    0.99158555619341607191E-04
    0.95444448991855200060E-04
    0.13989533624122999660E-03
    0.13622886321402425140E-03
    0.15462646611388202247E-03
    0.14884346610090823360E-03
    0.12580511537780181448E-03
    0.11556862519309511782E-03
    0.98038133531687333879E-04
    0.10028973177996518458E-03
    0.88560450050895509573E-04
    0.92953607196476152781E-04
    0.10964321101348096057E-03
    0.12041272382830775544E-03
    0.11823597514416930637E-03
    0.11534170624906792764E-03
    0.10832019643998390119E-03
    0.10824079799289841142E-03
    0.12517131216133707420E-03
    0.12237393085530278011E-03
    0.10346535765191035229E-03
    0.97280936242591256689E-04
    0.81801722044363818173E-04
    0.81198498863438030413E-04
    0.69953597743458760332E-04
    0.71767122676386904201E-04
    0.85215661503406999627E-04
    0.91466165874788237715E-04
    0.94212536310166332984E-04
    0.92927933982605583595E-04
    0.15486331464786940262E-03
    0.15717516120704287121E-03
    0.18354273808060097618E-03
    0.18136393945200382483E-03
    0.15359958614606287032E-03
    0.14666396321839773095E-03
    0.12272482399878164140E-03
    0.11966494757417628120E-03
    0.10174309315654025303E-03
    0.10300355479639812918E-03
    0.12254354453704216195E-03
    0.12964463327400869291E-03
    0.13730561374195984271E-03
    0.13636178511642921708E-03
    0.18551739615322738867E-03
    0.18440921732649676696E-03
    0.21347275854529038758E-03
    0.20731871013196013533E-03
    0.17410146728556044420E-03
    0.16180150333299151539E-03
    0.13560918608510448774E-03
    0.13594691961038888554E-03
    0.11711989448648047819E-03
    0.12091127779167283823E-03
    0.14444827272514529316E-03
    0.15605203557870488845E-03
    0.15949952175073786836E-03
    0.15674697895755494649E-03
    0.26274147005469464158E-03
    0.26361436585097583040E-03
    0.30716897028983689098E-03
    0.30014287474154768354E-03
    0.25238095326830518698E-03
    0.23712268974810120207E-03
    0.19812001402777604546E-03
    0.19595526122967983173E-03
    0.16705432293752232160E-03
    0.17077413654756557404E-03
    0.20467565942997828867E-03
    0.21913734698923031680E-03
    0.22826525101472808416E-03
    0.22534480022005039571E-03
    0.20553121463598328388E-03
    0.19306430731243128733E-03
    0.21109898846472053354E-03
    0.19991484579448003697E-03
    0.17150873744275075671E-03
    0.15457592215164156274E-03
    0.13438336082539651599E-03
    0.14230021201120849174E-03
    0.13105909325114505309E-03
    0.14117904090732154125E-03
    0.16304648499671479684E-03
    0.18383723063502085569E-03
    0.16886652269300077181E-03
    0.16267184959541721324E-03
    0.24013382748780718419E-03
    0.23466223932355539591E-03
    0.26752964201994840080E-03
    0.25773753896640570109E-03
    0.21702722083549879392E-03
    0.19897396627907150781E-03
    0.16813812787866631014E-03
    0.17210095654500434659E-03
    0.15155076798513314029E-03
    0.15904686281957783746E-03
    0.18800728060428239510E-03
    0.20617006745700895893E-03
    0.20334663712765627119E-03
    0.19843388096208629603E-03
    0.34447158211015332235E-03
    0.32526995345299639746E-03
    0.35644781771708032494E-03
    0.33923399113334188519E-03
    0.29128234774495785023E-03
    0.26379808659955915904E-03
    0.22895072260889661039E-03
    0.24148189562003878573E-03
    0.22218029852556244168E-03
    0.23882200577027786251E-03
    0.27506415150898173285E-03
    0.30891906534919887257E-03
    0.28534635513006203740E-03
    0.27545089073238081213E-03
    0.40984140583696622787E-03
    0.40365810295115534890E-03
    0.46300160916461007921E-03
    0.44808043245813528044E-03
    0.37639664457843623234E-03
    0.34602638445079301555E-03
    0.29113435268282193344E-03
    0.29676055953773512654E-03
    0.26009204713784290748E-03
    0.27210667850476169321E-03
    0.32185042158475320835E-03
    0.35099075367011088383E-03
    0.34994665447506530199E-03
    0.34227888397403243275E-03
    0.32329187024577086358E-03
    0.32130137121769223848E-03
    0.37330372309288397748E-03
    0.36146952682028672676E-03
    0.30172893539825870962E-03
    0.27831416909739769725E-03
    0.23230293747922856409E-03
    0.23407608696587658428E-03
    0.20122517934198060952E-03
    0.20830365239744768409E-03
    0.25005738323354725385E-03
    0.27071514476614263545E-03
    0.27657629336512581453E-03
    0.27137117384457503473E-03
    0.46038943365158785078E-03
    0.45890257093910303415E-03
    0.53520168471338648141E-03
    0.51856414578823988287E-03
    0.43260417145874510399E-03
    0.40058100552729406863E-03
    0.33371445885753609796E-03
    0.33404015063675059809E-03
    0.28492079330924818380E-03
    0.29333554170239673452E-03
    0.35409721671764078947E-03
    0.38207401856677690151E-03