# vtk DataFile Version 3.0
LAPLACIEN  2D
ASCII
DATASET UNSTRUCTURED_GRID
FIELD FieldData 1
TIME 1 1 double
12.2000
 POINTS        7297  float
   1.5625000000000000E-002  0.96875000000000000        0.0000000000000000     
   3.1250000000000000E-002  0.96875000000000000        0.0000000000000000     
   3.1250000000000000E-002  0.98437500000000000        0.0000000000000000     
   9.3749999999999997E-003  0.97812500000000002        0.0000000000000000     
   2.0312500000000001E-002  0.97968750000000004        0.0000000000000000     
   2.1874999999999999E-002  0.99062499999999998        0.0000000000000000     
   1.0937499999999999E-002  0.98906249999999996        0.0000000000000000     
   4.6875000000000000E-002  0.96875000000000000        0.0000000000000000     
   6.2500000000000000E-002  0.96875000000000000        0.0000000000000000     
   6.2500000000000000E-002  0.98437500000000000        0.0000000000000000     
   4.0625000000000001E-002  0.97812500000000002        0.0000000000000000     
   5.1562499999999997E-002  0.97968750000000004        0.0000000000000000     
   5.3124999999999999E-002  0.99062499999999998        0.0000000000000000     
   4.2187500000000003E-002  0.98906249999999996        0.0000000000000000     
   1.5625000000000000E-002  0.93750000000000000        0.0000000000000000     
   3.1250000000000000E-002  0.93750000000000000        0.0000000000000000     
   3.1250000000000000E-002  0.95312500000000000        0.0000000000000000     
   9.3749999999999997E-003  0.94687500000000002        0.0000000000000000     
   2.0312500000000001E-002  0.94843750000000004        0.0000000000000000     
   2.1874999999999999E-002  0.95937499999999998        0.0000000000000000     
   1.0937499999999999E-002  0.95781249999999996        0.0000000000000000     
   4.6875000000000000E-002  0.93750000000000000        0.0000000000000000     
   6.2500000000000000E-002  0.93750000000000000        0.0000000000000000     
   6.2500000000000000E-002  0.95312500000000000        0.0000000000000000     
   4.0625000000000001E-002  0.94687500000000002        0.0000000000000000     
   5.1562499999999997E-002  0.94843750000000004        0.0000000000000000     
   5.3124999999999999E-002  0.95937499999999998        0.0000000000000000     
   4.2187500000000003E-002  0.95781249999999996        0.0000000000000000     
   7.8125000000000000E-002  0.96875000000000000        0.0000000000000000     
   9.3750000000000000E-002  0.96875000000000000        0.0000000000000000     
   9.3750000000000000E-002  0.98437500000000000        0.0000000000000000     
   7.1874999999999994E-002  0.97812500000000002        0.0000000000000000     
   8.2812499999999997E-002  0.97968750000000004        0.0000000000000000     
   8.4375000000000006E-002  0.99062499999999998        0.0000000000000000     
   7.3437500000000003E-002  0.98906249999999996        0.0000000000000000     
  0.10937500000000000       0.96875000000000000        0.0000000000000000     
  0.12500000000000000       0.96875000000000000        0.0000000000000000     
  0.12500000000000000       0.98437500000000000        0.0000000000000000     
  0.10312499999999999       0.97812500000000002        0.0000000000000000     
  0.11406250000000000       0.97968750000000004        0.0000000000000000     
  0.11562500000000001       0.99062499999999998        0.0000000000000000     
  0.10468750000000000       0.98906249999999996        0.0000000000000000     
   7.8125000000000000E-002  0.93750000000000000        0.0000000000000000     
   9.3750000000000000E-002  0.93750000000000000        0.0000000000000000     
   9.3750000000000000E-002  0.95312500000000000        0.0000000000000000     
   7.1874999999999994E-002  0.94687500000000002        0.0000000000000000     
   8.2812499999999997E-002  0.94843750000000004        0.0000000000000000     
   8.4375000000000006E-002  0.95937499999999998        0.0000000000000000     
   7.3437500000000003E-002  0.95781249999999996        0.0000000000000000     
  0.10937500000000000       0.93750000000000000        0.0000000000000000     
  0.12500000000000000       0.93750000000000000        0.0000000000000000     
  0.12500000000000000       0.95312500000000000        0.0000000000000000     
  0.10312499999999999       0.94687500000000002        0.0000000000000000     
  0.11406250000000000       0.94843750000000004        0.0000000000000000     
  0.11562500000000001       0.95937499999999998        0.0000000000000000     
  0.10468750000000000       0.95781249999999996        0.0000000000000000     
   1.5625000000000000E-002  0.90625000000000000        0.0000000000000000     
   3.1250000000000000E-002  0.90625000000000000        0.0000000000000000     
   3.1250000000000000E-002  0.92187500000000000        0.0000000000000000     
   9.3749999999999997E-003  0.91562500000000002        0.0000000000000000     
   2.0312500000000001E-002  0.91718750000000004        0.0000000000000000     
   2.1874999999999999E-002  0.92812499999999998        0.0000000000000000     
   1.0937499999999999E-002  0.92656249999999996        0.0000000000000000     
   4.6875000000000000E-002  0.90625000000000000        0.0000000000000000     
   6.2500000000000000E-002  0.90625000000000000        0.0000000000000000     
   6.2500000000000000E-002  0.92187500000000000        0.0000000000000000     
   4.0625000000000001E-002  0.91562500000000002        0.0000000000000000     
   5.1562499999999997E-002  0.91718750000000004        0.0000000000000000     
   5.3124999999999999E-002  0.92812499999999998        0.0000000000000000     
   4.2187500000000003E-002  0.92656249999999996        0.0000000000000000     
   1.5625000000000000E-002  0.87500000000000000        0.0000000000000000     
   3.1250000000000000E-002  0.87500000000000000        0.0000000000000000     
   3.1250000000000000E-002  0.89062500000000000        0.0000000000000000     
   9.3749999999999997E-003  0.88437500000000002        0.0000000000000000     
   2.0312500000000001E-002  0.88593750000000004        0.0000000000000000     
   2.1874999999999999E-002  0.89687499999999998        0.0000000000000000     
   1.0937499999999999E-002  0.89531249999999996        0.0000000000000000     
   4.6875000000000000E-002  0.87500000000000000        0.0000000000000000     
   6.2500000000000000E-002  0.87500000000000000        0.0000000000000000     
   6.2500000000000000E-002  0.89062500000000000        0.0000000000000000     
   4.0625000000000001E-002  0.88437500000000002        0.0000000000000000     
   5.1562499999999997E-002  0.88593750000000004        0.0000000000000000     
   5.3124999999999999E-002  0.89687499999999998        0.0000000000000000     
   4.2187500000000003E-002  0.89531249999999996        0.0000000000000000     
   7.8125000000000000E-002  0.90625000000000000        0.0000000000000000     
   9.3750000000000000E-002  0.90625000000000000        0.0000000000000000     
   9.3750000000000000E-002  0.92187500000000000        0.0000000000000000     
   7.1874999999999994E-002  0.91562500000000002        0.0000000000000000     
   8.2812499999999997E-002  0.91718750000000004        0.0000000000000000     
   8.4375000000000006E-002  0.92812499999999998        0.0000000000000000     
   7.3437500000000003E-002  0.92656249999999996        0.0000000000000000     
  0.10937500000000000       0.90625000000000000        0.0000000000000000     
  0.12500000000000000       0.90625000000000000        0.0000000000000000     
  0.12500000000000000       0.92187500000000000        0.0000000000000000     
  0.10312499999999999       0.91562500000000002        0.0000000000000000     
  0.11406250000000000       0.91718750000000004        0.0000000000000000     
  0.11562500000000001       0.92812499999999998        0.0000000000000000     
  0.10468750000000000       0.92656249999999996        0.0000000000000000     
   7.8125000000000000E-002  0.87500000000000000        0.0000000000000000     
   9.3750000000000000E-002  0.87500000000000000        0.0000000000000000     
   9.3750000000000000E-002  0.89062500000000000        0.0000000000000000     
   7.1874999999999994E-002  0.88437500000000002        0.0000000000000000     
   8.2812499999999997E-002  0.88593750000000004        0.0000000000000000     
   8.4375000000000006E-002  0.89687499999999998        0.0000000000000000     
   7.3437500000000003E-002  0.89531249999999996        0.0000000000000000     
  0.10937500000000000       0.87500000000000000        0.0000000000000000     
  0.12500000000000000       0.87500000000000000        0.0000000000000000     
  0.12500000000000000       0.89062500000000000        0.0000000000000000     
  0.10312499999999999       0.88437500000000002        0.0000000000000000     
  0.11406250000000000       0.88593750000000004        0.0000000000000000     
  0.11562500000000001       0.89687499999999998        0.0000000000000000     
  0.10468750000000000       0.89531249999999996        0.0000000000000000     
  0.14062500000000000       0.96875000000000000        0.0000000000000000     
  0.15625000000000000       0.96875000000000000        0.0000000000000000     
  0.15625000000000000       0.98437500000000000        0.0000000000000000     
  0.13437499999999999       0.97812500000000002        0.0000000000000000     
  0.14531250000000001       0.97968750000000004        0.0000000000000000     
  0.14687500000000001       0.99062499999999998        0.0000000000000000     
  0.13593749999999999       0.98906249999999996        0.0000000000000000     
  0.17187500000000000       0.96875000000000000        0.0000000000000000     
  0.18750000000000000       0.96875000000000000        0.0000000000000000     
  0.18750000000000000       0.98437500000000000        0.0000000000000000     
  0.16562499999999999       0.97812500000000002        0.0000000000000000     
  0.17656250000000001       0.97968750000000004        0.0000000000000000     
[...]
 CELL_DATA       14336
 SCALARS Nutrient float
 LOOKUP_TABLE default
    0.65978839882315986828E-02
    0.65978006211822506216E-02
    0.65984522371616543407E-02
    0.65984522370738721286E-02
    0.65978006215339319793E-02
    0.65978839879278780925E-02
    0.65973673702764967786E-02
    0.65970616578406348143E-02
    0.65967315833535189115E-02
    0.65967315813359279561E-02
    0.65970616588792085552E-02
    0.65973673698447700756E-02
    0.65973194271178869919E-02
    0.65973194267900433369E-02
    0.66000255941646582616E-02
    0.66005961350871899390E-02
    0.66021444963330067068E-02
    0.66025733413253781534E-02
    0.66014124812398137024E-02
    0.66019686159141388604E-02
    0.66007519456468656885E-02
    0.65997397159492090721E-02
    0.65986709394182333638E-02
    0.65982885669769340484E-02
    0.65989540228739273359E-02
    0.65988719160655273308E-02
    0.65999153163242762696E-02
    0.66001441946599631247E-02
    0.66019686159688450999E-02
    0.66014124811856504313E-02
    0.66025733413474230193E-02
    0.66021444963100415701E-02
    0.66005961351729642086E-02
    0.66000255940567558594E-02
    0.65988719162806356439E-02
    0.65989540226637768625E-02
    0.65982885672489560366E-02
    0.65986709391592660370E-02
    0.65997397160837949909E-02
    0.66007519456014298112E-02
    0.66001441947262477761E-02
    0.65999153162927337926E-02
    0.66048415779640977721E-02
    0.66050908223770615074E-02
    0.66075110904629539080E-02
    0.66075110904550158133E-02
    0.66050908224011732964E-02
    0.66048415779354861105E-02
    0.66026960268737704823E-02
    0.66020842346673144774E-02
    0.66004884343964656881E-02
    0.66004884342911211356E-02
    0.66020842347333987682E-02
    0.66026960268298065179E-02
    0.66034006909591047574E-02
    0.66034006909401797916E-02
    0.66057476006488122927E-02
    0.66072890459756405263E-02
    0.66103082553895121248E-02
    0.66114326637687790764E-02
    0.66094353271630061977E-02
    0.66107866125734915039E-02
    0.66084016699219268187E-02
    0.66061882105055234199E-02
    0.66038987755510925037E-02
    0.66029312094537176425E-02
    0.66041529388642782744E-02
    0.66035655356129902005E-02
    0.66062347198462510744E-02
    0.66068431853123820233E-02
    0.66171897490005611095E-02
    0.66202953616013799146E-02
    0.66256289381803092076E-02
    0.66277965814395033498E-02
    0.66244296205379979772E-02
    0.66269269478382037547E-02
    0.66227116183395651899E-02
    0.66187030437020446735E-02
    0.66145351844201826300E-02
    0.66126414627977105759E-02
    0.66147829709320661237E-02
    0.66133686523404044619E-02
    0.66186227757067395139E-02
    0.66198019334974093908E-02
    0.66123424741823559267E-02
    0.66135467675627196416E-02
    0.66177910890438326752E-02
    0.66183567674154156549E-02
    0.66145833699071138884E-02
    0.66147993931510648546E-02
    0.66110779282843035176E-02
    0.66094348022866242567E-02
    0.66063897543935882345E-02
    0.66059310548737329438E-02
    0.66084812534600474720E-02
    0.66087667668193808557E-02
    0.66110999545389509749E-02
    0.66113910211969047909E-02
    0.66265433877483745709E-02
    0.66293133555375954175E-02
    0.66366181672376104231E-02
    0.66381287799146702563E-02
    0.66320895486719931219E-02
    0.66330525512839659183E-02
    0.66267732479335546281E-02
    0.66234681591553152061E-02
    0.66180992605314988356E-02
    0.66168841425083817914E-02
    0.66209225259736981944E-02
    0.66206959861052835925E-02
    0.66256469800755890542E-02
    0.66264253145857533039E-02
    0.66107866126026556750E-02
    0.66094353271694368177E-02
    0.66114326637881151716E-02
    0.66103082553980729852E-02
    0.66072890460029710946E-02
    0.66057476006306523400E-02
    0.66035655356625616585E-02
    0.66041529388353101271E-02
    0.66029312095062806312E-02
    0.66038987755242034225E-02
    0.66061882105402196241E-02
    0.66084016699352069943E-02
    0.66068431853353896607E-02
    0.66062347198545456547E-02
    0.66147993931696029771E-02
    0.66145833699125106131E-02
    0.66183567674307454062E-02
    0.66177910890530379853E-02
    0.66135467675766789614E-02
    0.66123424741756789760E-02
    0.66087667668351876560E-02
    0.66084812534450794105E-02
    0.66059310549042076985E-02
    0.66063897543789246170E-02
    0.66094348023078867624E-02
    0.66110779282870929530E-02
    0.66113910212109751330E-02
    0.66110999545427907853E-02
    0.66269269478969944007E-02
    0.66244296205848571951E-02
    0.66277965814917254653E-02
    0.66256289382244006742E-02
    0.66202953616399384806E-02
    0.66171897490207593623E-02
    0.66133686523662986792E-02
    0.66147829709525401976E-02
    0.66126414628269554116E-02
    0.66145351844451479029E-02
    0.66187030437462757854E-02
    0.66227116183939548424E-02
    0.66198019335390410195E-02
    0.66186227757408771372E-02
    0.66330525513376781613E-02
    0.66320895487188532072E-02
    0.66381287799725805301E-02
    0.66366181672892305896E-02
    0.66293133555764089879E-02
    0.66265433877706761759E-02
    0.66206959861246630558E-02
    0.66209225259921001411E-02
    0.66168841425329957828E-02
    0.66180992605524976632E-02
    0.66234681591926768129E-02
    0.66267732479760241282E-02
    0.66264253146242823797E-02
    0.66256469801090336555E-02
    0.66252522048478278138E-02
    0.66261880114175221793E-02
    0.66324821182041455644E-02
    0.66324821182004627465E-02
    0.66261880114155688806E-02
    0.66252522048358304663E-02
    0.66195152190052265750E-02
    0.66181858283648050886E-02
    0.66137828529079685513E-02
    0.66137828529009984324E-02
    0.66181858283749662314E-02
    0.66195152190133017128E-02
    0.66218226574530445611E-02
    0.66218226574502048187E-02
    0.66446989265055858911E-02
    0.66474691788277334714E-02
    0.66580641181878189028E-02
    0.66590510653415611875E-02
    0.66491879426036253412E-02
    0.66486630160190818631E-02
    0.66391647926090820164E-02
    0.66360969783279960543E-02
    0.66285821576728470514E-02
    0.66279120726304013855E-02
    0.66346203622932743010E-02
    0.66356353954585729771E-02
    0.66410473873434070977E-02
    0.66415151326835930243E-02
    0.66486630160816134402E-02
    0.66491879426557850066E-02
    0.66590510654024534509E-02
    0.66580641182365654998E-02
    0.66474691788621417116E-02
    0.66446989265228958293E-02
    0.66356353954656506489E-02
    0.66346203623103196939E-02
    0.66279120726491459401E-02
    0.66285821576952241169E-02
    0.66360969783684957760E-02
    0.66391647926642956626E-02
    0.66415151327228263978E-02
    0.66410473873760225011E-02
    0.66770981398835884540E-02
    0.66797281964885817096E-02
    0.66957020701514883415E-02
    0.66957020701402646806E-02
    0.66797281964691996442E-02
    0.66770981398380840552E-02
    0.66625847550065772640E-02
    0.66594622749440498394E-02
    0.66483898835455867288E-02
    0.66483898835538509514E-02
    0.66594622749646748341E-02
    0.66625847550543541506E-02
    0.66687232985591440859E-02
    0.66687232985532269441E-02
    0.66377257223262618735E-02
    0.66433092680458988646E-02
    0.66525495724651263069E-02
    0.66564300522985470759E-02
    0.66506797616754228727E-02
    0.66550878121658567713E-02
    0.66478123545513452194E-02
    0.66408063631389771878E-02
    0.66335525075469055703E-02
    0.66301979512571650524E-02
    0.66338488194140803403E-02
    0.66312165950083027180E-02
    0.66405425423540489702E-02
    0.66426401664704710914E-02
    0.66736855668142304812E-02
    0.66834450565112935722E-02
    0.66995248174815226830E-02
    0.67062214455879060396E-02
    0.66961808713183797875E-02
    0.67036811596337623348E-02
    0.66911592379602412642E-02
    0.66791004292870046963E-02
    0.66665578984838550630E-02
    0.66607532719372072871E-02
    0.66670414500492845844E-02
    0.66624026609373816418E-02
    0.66786538057723677728E-02
    0.66822857739376653047E-02
    0.66521095350017293499E-02
    0.66575367303810164404E-02
    0.66702160970752034236E-02
    0.66733265875400437847E-02
    0.66631733584522024813E-02
    0.66652518867836825847E-02
    0.66544255933239197798E-02
    0.66484322798544886676E-02
    0.66391413866537457925E-02
    0.66367540101670806363E-02
    0.66433593235950879480E-02
    0.66423129210090659305E-02
    0.66516657464300776512E-02
    0.66532330886930448124E-02
    0.66976152329423803075E-02
    0.67076378304558237006E-02
    0.67299097490335947624E-02
    0.67356420429040414488E-02
    0.67179447370451818300E-02
    0.67216593837414566337E-02
    0.67027975913317256948E-02
    0.66922551495882847197E-02
    0.66760832858265631296E-02
    0.66717614936940613374E-02
    0.66830390271868265681E-02
    0.66807472160550426810E-02
    0.66976274737477435595E-02
    0.67004846173972553228E-02
    0.67361191295086395373E-02
    0.67527105026797080642E-02
    0.67803759166031752487E-02
    0.67913811359286545971E-02
    0.67738725169848119576E-02
    0.67861223502558073312E-02
    0.67649448399955767336E-02
    0.67446254847383282222E-02
    0.67232922941809700190E-02
    0.67134054352471295504E-02
    0.67243173322262235828E-02
    0.67165260460968316536E-02
    0.67441829401750034295E-02
    0.67502559485829770683E-02
    0.68427334761037069549E-02
    0.68697263173197698968E-02
    0.69165407166911791609E-02
    0.69335200548177435345E-02
    0.69031659728379553276E-02
    0.69220743361072109220E-02
    0.68872907773355977051E-02
    0.68541282350663718798E-02
    0.68186906993325403087E-02
    0.68023960028596808583E-02
    0.68211834519894196105E-02
    0.68088194102918515177E-02
    0.68543895039132130345E-02
    0.68641113572926772124E-02
    0.67785435469230690547E-02
    0.67962779722830924528E-02
    0.68357682579723005184E-02
    0.68455110885027774595E-02
    0.68137754646177065010E-02
    0.68193598831183905792E-02
    0.67863777810067797691E-02
    0.67685457098884604585E-02
    0.67403972746232906563E-02
    0.67330050498794142069E-02
    0.67528206985785956679E-02
    0.67487705151400567694E-02
    0.67784269946175833288E-02
    0.67832924665746936049E-02
    0.69217085593116260342E-02
    0.69516277645342867270E-02
    0.70213928098351767806E-02
    0.70362937712215830113E-02
    0.69787696711260368068E-02
    0.69852032089375432067E-02
    0.69278861593570608204E-02
    0.68992101414725977640E-02
    0.68507210391441390393E-02
    0.68388430571273261388E-02
    0.68743309289778621943E-02
    0.68685181794140015565E-02
    0.69187240383764480808E-02
    0.69263421821118839952E-02
    0.66794666573840016238E-02
    0.66854731174020255377E-02
    0.67035967157411790324E-02
    0.67063806545421275965E-02
    0.66902175894403689491E-02
    0.66904318501270661212E-02
    0.66742470565410638370E-02
    0.66681469569127658353E-02
    0.66552179552530439308E-02
    0.66534225445786616612E-02
    0.66641674323173975131E-02
    0.66646725648920896595E-02
    0.66754414815013360385E-02
    0.66767164528632322318E-02
    0.67415075728775213440E-02
    0.67535281610058006674E-02
    0.67854707685096552622E-02
    0.67916200496854119834E-02
    0.67638097127898557520E-02
    0.67651551893992403416E-02
    0.67367742361308527790E-02
    0.67253960210606799144E-02
    0.67026981145243197044E-02
    0.66989321856677089620E-02
    0.67169401984127396002E-02
    0.67164365633497280852E-02
    0.67370055285327105563E-02
    0.67397479798037085788E-02
    0.67263954982607733826E-02
    0.67330556804008267688E-02
    0.67595200911710548453E-02
    0.67616997388206933478E-02
    0.67366267418874914430E-02
    0.67345835292458864144E-02
    0.67104923546174310989E-02
    0.67035920248417063538E-02
    0.66849052605830851584E-02
    0.66836501996379998891E-02
    0.67007245472406979855E-02
    0.67035966533291442906E-02
    0.67166782685763211369E-02
    0.67176201696337737093E-02
    0.68127792295936580313E-02
    0.68275988932986753088E-02
    0.68732329669224309643E-02
    0.68802730818958504622E-02
    0.68388476833104614935E-02
    0.68384309870758467828E-02
    0.67966716729631719562E-02
    0.67825229420619302309E-02
    0.67500104590861214129E-02
    0.67462928188473172963E-02
    0.67738021748078745474E-02
    0.67756478776276963041E-02
    0.68019791943969608664E-02
    0.68049017751012474270E-02
    0.68540203638506047579E-02
    0.68770113224074407368E-02
    0.69346903314159245163E-02
    0.69465475316364457686E-02
    0.68965946510059694327E-02
    0.68990083628243025968E-02
    0.68481805050901456422E-02
    0.68278544957199836796E-02
    0.67874397976671763805E-02
    0.67803900334977339551E-02
    0.68119045159425089045E-02
    0.68098348905967958158E-02
    0.68480228125157600189E-02
    0.68532241454281554033E-02
    0.70600128455944434827E-02
    0.71019852178161747142E-02
    0.72075089892316987830E-02
    0.72278513986611739317E-02
    0.71354168724457748066E-02
    0.71366972273768309112E-02
    0.70448593921263961276E-02
    0.70104853488398601036E-02
    0.69381741809718287459E-02
    0.69262225914844257821E-02
    0.69833708648728244281E-02
    0.69797309928613018165E-02
    0.70485804801583909485E-02
    0.70574463460715284105E-02
    0.69695908210135326666E-02
    0.70009209450821443740E-02
    0.70834055234727816980E-02
    0.71000952825680365213E-02
    0.70272980669065119794E-02
    0.70295776979375839896E-02
    0.69542705416112526179E-02
    0.69267671451520521769E-02
    0.68682622141863006182E-02
    0.68598361834651209318E-02
    0.69066626641111610735E-02
    0.69057972367029983249E-02
    0.69581622614802059179E-02
    0.69649689290833451810E-02
    0.72633573003370692500E-02
    0.73261480409847800147E-02
    0.74802161287978053555E-02
    0.75140437906256445783E-02
    0.73791024293328403433E-02
    0.73834608027889625861E-02
    0.72440556632461959238E-02
    0.71932548651507726908E-02
    0.70856946861967504830E-02
    0.70691676067527360605E-02
    0.71534259824999717192E-02
    0.71479205149409894698E-02
    0.72493219608233986848E-02
    0.72629141948352916522E-02
    0.66550878123077458759E-02
    0.66506797617993142213E-02
    0.66564300524331355968E-02
    0.66525495725847701850E-02
    0.66433092681436193075E-02
    0.66377257224010154449E-02
    0.66312165950680344514E-02
    0.66338488194866724462E-02
    0.66301979513257421409E-02
    0.66335525076258701829E-02
    0.66408063632439938775E-02
    0.66478123546849449479E-02
    0.66426401665738710189E-02
    0.66405425424484699690E-02
    0.66652518869280254557E-02
    0.66631733585886185334E-02
    0.66733265877016098577E-02
    0.66702160972266664671E-02
    0.66575367304964145829E-02
    0.66521095350910728131E-02
    0.66423129210745031695E-02
    0.66433593236721495690E-02
    0.66367540102334659016E-02
    0.66391413867300146448E-02
    0.66484322799569570486E-02
    0.66544255934453304738E-02
    0.66532330888036672611E-02
    0.66516657465336007440E-02
    0.67036811599468972694E-02
    0.66961808715986503859E-02
    0.67062214458932156366E-02
    0.66995248177585944513E-02
    0.66834450567399518103E-02
    0.66736855670014140832E-02
    0.66624026610866381171E-02
    0.66670414502266340390E-02
    0.66607532721002903758E-02
    0.66665578986708469780E-02
    0.66791004295233503615E-02
    0.66911592382531319759E-02
    0.66822857741743336285E-02
    0.66786538059924790284E-02
    0.67216593840765167384E-02
    0.67179447373696653256E-02
    0.67356420432849815200E-02
    0.67299097493980818488E-02
    0.67076378307404623327E-02
    0.66976152331793149114E-02
    0.66807472162346281941E-02
    0.66830390273882453109E-02
    0.66717614938645464912E-02
    0.66760832860181034895E-02
    0.66922551498340169737E-02
    0.67027975916161240677E-02
    0.67004846176649344308E-02
    0.66976274740030141905E-02
    0.66904318503147788139E-02
    0.66902175896146019729E-02
    0.67063806547463010801E-02
    0.67035967159253737058E-02
    0.66854731175420498146E-02
    0.66794666574918580559E-02
    0.66646725649645984987E-02
    0.66641674324099762355E-02
    0.66534225446573140236E-02
    0.66552179553454014760E-02
    0.66681469570428206564E-02
    0.66742470567032509410E-02
    0.66767164530015105095E-02
    0.66754414816289969412E-02
    0.67345835294581497810E-02
    0.67366267420605994987E-02
    0.67616997390102127549E-02
    0.67595200913189053271E-02
    0.67330556805062858131E-02
    0.67263954983137206126E-02
    0.67035966533530826073E-02
    0.67007245473088483320E-02
    0.66836501997058804861E-02
    0.66849052606823425662E-02
    0.67035920249796454931E-02
    0.67104923548076461301E-02
    0.67176201697640384319E-02
    0.67166782686860259169E-02
    0.67651551898560615544E-02
    0.67638097132279055221E-02
    0.67916200502034194952E-02
    0.67854707689898137099E-02
    0.67535281613847579496E-02
    0.67415075731950746193E-02
    0.67164365635828454301E-02
    0.67169401986776908556E-02
    0.66989321858893892750E-02
    0.67026981147719931139E-02
    0.67253960213896415987E-02
    0.67367742365202877911E-02
    0.67397479801622767887E-02
    0.67370055288727267659E-02
    0.68384309876565489358E-02
    0.68388476838372935437E-02
    0.68802730824909065846E-02
    0.68732329674539511047E-02
    0.68275988937087760816E-02
    0.68127792299083889116E-02
    0.67756478778504894422E-02
    0.67738021751000947884E-02
    0.67462928191068267242E-02
    0.67500104594008175987E-02
    0.67825229424710500176E-02
    0.67966716734700139205E-02
    0.68049017755238243310E-02
    0.68019791947854452499E-02
    0.67861223509002501636E-02
    0.67738725175712664536E-02
    0.67913811365671768183E-02
    0.67803759171939292569E-02
    0.67527105031698281615E-02
    0.67361191299230563020E-02
    0.67165260464318518596E-02
    0.67243173326126861461E-02
    0.67134054356012733480E-02
    0.67232922945816061405E-02
    0.67446254852329620699E-02
    0.67649448405961666239E-02
    0.67502559490825540106E-02
    0.67441829406443614889E-02
    0.68193598838346258101E-02
    0.68137754653174419095E-02
    0.68455110893270217781E-02
    0.68357682587631288587E-02
    0.67962779729135889759E-02
    0.67785435474645846718E-02
    0.67487705155610533403E-02
    0.67528206990349597810E-02
    0.67330050502668959203E-02
    0.67403972750480220869E-02
    0.67685457104233520340E-02
    0.67863777816134143034E-02
    0.67832924671603509956E-02
    0.67784269951810796270E-02
    0.69220743373600308185E-02
    0.69031659740021135072E-02
    0.69335200561037547626E-02
    0.69165407178831571008E-02
    0.68697263183137837958E-02
    0.68427334769579160195E-02
    0.68088194109918618799E-02
    0.68211834527780760770E-02
    0.68023960035817369538E-02
    0.68186907001395145878E-02
    0.68541282360461020656E-02
    0.68872907785025990965E-02
    0.68641113582911467486E-02
    0.68543895048582895169E-02
    0.69852032103673742866E-02
    0.69787696725540256104E-02
    0.70362937729140520929E-02
    0.70213928114669947253E-02
    0.69516277658428250741E-02
    0.69217085604608187543E-02
    0.68685181803147263638E-02
    0.68743309299372059099E-02
    0.68388430579398931664E-02
    0.68507210400258330626E-02
    0.68992101425670504175E-02
    0.69278861605808952223E-02
    0.69263421833160769905E-02
    0.69187240395432239581E-02
    0.68990083638224789647E-02
    0.68965946519851618543E-02
    0.69465475327916189480E-02
    0.69346903325138769744E-02
    0.68770113232834717554E-02
    0.68540203646154469405E-02
    0.68098348911741525546E-02
    0.68119045165703573722E-02
    0.67803900340212240605E-02
    0.67874397982381016320E-02
    0.68278544964572168707E-02
    0.68481805059404368338E-02
    0.68532241462407900850E-02
    0.68480228132971826885E-02
    0.70295776992904115618E-02
    0.70272980681782611784E-02
    0.71000952840349360398E-02
    0.70834055248208153618E-02
    0.70009209461575679784E-02
    0.69695908219076759330E-02
    0.69057972373823325180E-02
    0.69066626648944511729E-02
    0.68598361841471959879E-02
    0.68682622149585500701E-02
    0.69267671461360090165E-02
    0.69542705427705353571E-02