# vtk DataFile Version 3.0
LAPLACIEN  2D
ASCII
DATASET UNSTRUCTURED_GRID
 POINTS        7297  float
   1.5625000000000000E-002  0.96875000000000000        0.0000000000000000     
   3.1250000000000000E-002  0.96875000000000000        0.0000000000000000     
   3.1250000000000000E-002  0.98437500000000000        0.0000000000000000     
   9.3749999999999997E-003  0.97812500000000002        0.0000000000000000     
   2.0312500000000001E-002  0.97968750000000004        0.0000000000000000     
   2.1874999999999999E-002  0.99062499999999998        0.0000000000000000     
   1.0937499999999999E-002  0.98906249999999996        0.0000000000000000     
   4.6875000000000000E-002  0.96875000000000000        0.0000000000000000     
   6.2500000000000000E-002  0.96875000000000000        0.0000000000000000     
   6.2500000000000000E-002  0.98437500000000000        0.0000000000000000     
   4.0625000000000001E-002  0.97812500000000002        0.0000000000000000     
   5.1562499999999997E-002  0.97968750000000004        0.0000000000000000     
   5.3124999999999999E-002  0.99062499999999998        0.0000000000000000     
   4.2187500000000003E-002  0.98906249999999996        0.0000000000000000     
   1.5625000000000000E-002  0.93750000000000000        0.0000000000000000     
   3.1250000000000000E-002  0.93750000000000000        0.0000000000000000     
   3.1250000000000000E-002  0.95312500000000000        0.0000000000000000     
   9.3749999999999997E-003  0.94687500000000002        0.0000000000000000     
   2.0312500000000001E-002  0.94843750000000004        0.0000000000000000     
   2.1874999999999999E-002  0.95937499999999998        0.0000000000000000     
   1.0937499999999999E-002  0.95781249999999996        0.0000000000000000     
   4.6875000000000000E-002  0.93750000000000000        0.0000000000000000     
   6.2500000000000000E-002  0.93750000000000000        0.0000000000000000     
   6.2500000000000000E-002  0.95312500000000000        0.0000000000000000     
   4.0625000000000001E-002  0.94687500000000002        0.0000000000000000     
   5.1562499999999997E-002  0.94843750000000004        0.0000000000000000     
   5.3124999999999999E-002  0.95937499999999998        0.0000000000000000     
   4.2187500000000003E-002  0.95781249999999996        0.0000000000000000     
   7.8125000000000000E-002  0.96875000000000000        0.0000000000000000     
   9.3750000000000000E-002  0.96875000000000000        0.0000000000000000     
   9.3750000000000000E-002  0.98437500000000000        0.0000000000000000     
   7.1874999999999994E-002  0.97812500000000002        0.0000000000000000     
   8.2812499999999997E-002  0.97968750000000004        0.0000000000000000     
   8.4375000000000006E-002  0.99062499999999998        0.0000000000000000     
   7.3437500000000003E-002  0.98906249999999996        0.0000000000000000     
  0.10937500000000000       0.96875000000000000        0.0000000000000000     
  0.12500000000000000       0.96875000000000000        0.0000000000000000     
  0.12500000000000000       0.98437500000000000        0.0000000000000000     
  0.10312499999999999       0.97812500000000002        0.0000000000000000     
  0.11406250000000000       0.97968750000000004        0.0000000000000000     
  0.11562500000000001       0.99062499999999998        0.0000000000000000     
  0.10468750000000000       0.98906249999999996        0.0000000000000000     
   7.8125000000000000E-002  0.93750000000000000        0.0000000000000000     
   9.3750000000000000E-002  0.93750000000000000        0.0000000000000000     
   9.3750000000000000E-002  0.95312500000000000        0.0000000000000000     
   7.1874999999999994E-002  0.94687500000000002        0.0000000000000000     
   8.2812499999999997E-002  0.94843750000000004        0.0000000000000000     
   8.4375000000000006E-002  0.95937499999999998        0.0000000000000000     
   7.3437500000000003E-002  0.95781249999999996        0.0000000000000000     
  0.10937500000000000       0.93750000000000000        0.0000000000000000     
  0.12500000000000000       0.93750000000000000        0.0000000000000000     
  0.12500000000000000       0.95312500000000000        0.0000000000000000     
  0.10312499999999999       0.94687500000000002        0.0000000000000000     
  0.11406250000000000       0.94843750000000004        0.0000000000000000     
  0.11562500000000001       0.95937499999999998        0.0000000000000000     
  0.10468750000000000       0.95781249999999996        0.0000000000000000     
   1.5625000000000000E-002  0.90625000000000000        0.0000000000000000     
   3.1250000000000000E-002  0.90625000000000000        0.0000000000000000     
   3.1250000000000000E-002  0.92187500000000000        0.0000000000000000     
   9.3749999999999997E-003  0.91562500000000002        0.0000000000000000     
   2.0312500000000001E-002  0.91718750000000004        0.0000000000000000     
   2.1874999999999999E-002  0.92812499999999998        0.0000000000000000     
   1.0937499999999999E-002  0.92656249999999996        0.0000000000000000     
   4.6875000000000000E-002  0.90625000000000000        0.0000000000000000     
   6.2500000000000000E-002  0.90625000000000000        0.0000000000000000     
   6.2500000000000000E-002  0.92187500000000000        0.0000000000000000     
   4.0625000000000001E-002  0.91562500000000002        0.0000000000000000     
   5.1562499999999997E-002  0.91718750000000004        0.0000000000000000     
   5.3124999999999999E-002  0.92812499999999998        0.0000000000000000     
   4.2187500000000003E-002  0.92656249999999996        0.0000000000000000     
   1.5625000000000000E-002  0.87500000000000000        0.0000000000000000     
   3.1250000000000000E-002  0.87500000000000000        0.0000000000000000     
   3.1250000000000000E-002  0.89062500000000000        0.0000000000000000     
   9.3749999999999997E-003  0.88437500000000002        0.0000000000000000     
   2.0312500000000001E-002  0.88593750000000004        0.0000000000000000     
   2.1874999999999999E-002  0.89687499999999998        0.0000000000000000     
   1.0937499999999999E-002  0.89531249999999996        0.0000000000000000     
   4.6875000000000000E-002  0.87500000000000000        0.0000000000000000     
   6.2500000000000000E-002  0.87500000000000000        0.0000000000000000     
   6.2500000000000000E-002  0.89062500000000000        0.0000000000000000     
   4.0625000000000001E-002  0.88437500000000002        0.0000000000000000     
   5.1562499999999997E-002  0.88593750000000004        0.0000000000000000     
   5.3124999999999999E-002  0.89687499999999998        0.0000000000000000     
   4.2187500000000003E-002  0.89531249999999996        0.0000000000000000     
   7.8125000000000000E-002  0.90625000000000000        0.0000000000000000     
   9.3750000000000000E-002  0.90625000000000000        0.0000000000000000     
   9.3750000000000000E-002  0.92187500000000000        0.0000000000000000     
   7.1874999999999994E-002  0.91562500000000002        0.0000000000000000     
   8.2812499999999997E-002  0.91718750000000004        0.0000000000000000     
   8.4375000000000006E-002  0.92812499999999998        0.0000000000000000     
   7.3437500000000003E-002  0.92656249999999996        0.0000000000000000     
  0.10937500000000000       0.90625000000000000        0.0000000000000000     
  0.12500000000000000       0.90625000000000000        0.0000000000000000     
  0.12500000000000000       0.92187500000000000        0.0000000000000000     
  0.10312499999999999       0.91562500000000002        0.0000000000000000     
  0.11406250000000000       0.91718750000000004        0.0000000000000000     
  0.11562500000000001       0.92812499999999998        0.0000000000000000     
  0.10468750000000000       0.92656249999999996        0.0000000000000000     
   7.8125000000000000E-002  0.87500000000000000        0.0000000000000000     
   9.3750000000000000E-002  0.87500000000000000        0.0000000000000000     
   9.3750000000000000E-002  0.89062500000000000        0.0000000000000000     
   7.1874999999999994E-002  0.88437500000000002        0.0000000000000000     
   8.2812499999999997E-002  0.88593750000000004        0.0000000000000000     
   8.4375000000000006E-002  0.89687499999999998        0.0000000000000000     
   7.3437500000000003E-002  0.89531249999999996        0.0000000000000000     
  0.10937500000000000       0.87500000000000000        0.0000000000000000     
  0.12500000000000000       0.87500000000000000        0.0000000000000000     
  0.12500000000000000       0.89062500000000000        0.0000000000000000     
  0.10312499999999999       0.88437500000000002        0.0000000000000000     
  0.11406250000000000       0.88593750000000004        0.0000000000000000     
  0.11562500000000001       0.89687499999999998        0.0000000000000000     
  0.10468750000000000       0.89531249999999996        0.0000000000000000     
  0.14062500000000000       0.96875000000000000        0.0000000000000000     
  0.15625000000000000       0.96875000000000000        0.0000000000000000     
  0.15625000000000000       0.98437500000000000        0.0000000000000000     
  0.13437499999999999       0.97812500000000002        0.0000000000000000     
  0.14531250000000001       0.97968750000000004        0.0000000000000000     
  0.14687500000000001       0.99062499999999998        0.0000000000000000     
  0.13593749999999999       0.98906249999999996        0.0000000000000000     
  0.17187500000000000       0.96875000000000000        0.0000000000000000     
  0.18750000000000000       0.96875000000000000        0.0000000000000000     
  0.18750000000000000       0.98437500000000000        0.0000000000000000     
  0.16562499999999999       0.97812500000000002        0.0000000000000000     
  0.17656250000000001       0.97968750000000004        0.0000000000000000     
  0.17812500000000001       0.99062499999999998        0.0000000000000000     
[...]
 CELL_DATA       14336
 SCALARS Nutrients float
 LOOKUP_TABLE default
    0.20606949527184349725E-04
    0.20450478004885296339E-04
    0.21614485028987148090E-04
    0.21614485027966141351E-04
    0.20450478002480691774E-04
    0.20606949521366514091E-04
    0.19685202517067723388E-04
    0.19146839359687548027E-04
    0.18565476370044260859E-04
    0.18565476370789897186E-04
    0.19146839362555242444E-04
    0.19685202525053035018E-04
    0.19601049899236033238E-04
    0.19601049898475333277E-04
    0.24427074126496382307E-04
    0.25419038046830953097E-04
    0.28161363608500473201E-04
    0.28858837024501844351E-04
    0.26795747151114269395E-04
    0.27715943205109967712E-04
    0.25612140221417388259E-04
    0.23860829025887393261E-04
    0.21988211711423776137E-04
    0.21302725862089933920E-04
    0.22498725399182308346E-04
    0.22357659369915631326E-04
    0.24190124021877197126E-04
    0.24590376643555953616E-04
    0.27715943218793232710E-04
    0.26795747159868087242E-04
    0.28858837029853899955E-04
    0.28161363612768208048E-04
    0.25419038051003254436E-04
    0.24427074128279955867E-04
    0.22357659371842140001E-04
    0.22498725404103197075E-04
    0.21302725868310364314E-04
    0.21988211719198633962E-04
    0.23860829036420186974E-04
    0.25612140238247231577E-04
    0.24590376651337235339E-04
    0.24190124028175398696E-04
    0.32974059429685110797E-04
    0.33479210919135736079E-04
    0.37826108305070559740E-04
    0.37826108305752800733E-04
    0.33479210918082115184E-04
    0.32974059425860255596E-04
    0.29157517487055091391E-04
    0.28108643814152583265E-04
    0.25257510176702559267E-04
    0.25257510177542070561E-04
    0.28108643815665285853E-04
    0.29157517490616475299E-04
    0.30470903611319762988E-04
    0.30470903610948752392E-04
    0.34397259986323705126E-04
    0.36894180435112404004E-04
    0.42036632961542901986E-04
    0.43718395168484696799E-04
    0.40213785389590977961E-04
    0.42250247636723942503E-04
    0.38333231958672518865E-04
    0.34744641214576279695E-04
    0.30941454103092748602E-04
    0.29326007801299347287E-04
    0.31475342123774324081E-04
    0.30567960116107820493E-04
    0.34966963070580902011E-04
    0.35932819646627108044E-04
    0.53455537635050542769E-04
    0.58177218450018466066E-04
    0.66980165569113350233E-04
    0.70038996355844328570E-04
    0.64233106090855575983E-04
    0.67815429378541972386E-04
    0.61144098091993237163E-04
    0.54896028215686437657E-04
    0.48224368590981959428E-04
    0.45241009085535827117E-04
    0.48899939399277151178E-04
    0.46893108923627983744E-04
    0.55093450417480971046E-04
    0.56858487934519533571E-04
    0.46548257639574966503E-04
    0.48599153883503379151E-04
    0.56243465366466048778E-04
    0.57001303089057200706E-04
    0.50063320599336227641E-04
    0.50038510531402652967E-04
    0.43505626930576677715E-04
    0.40896609486852063275E-04
    0.35584670506856874988E-04
    0.34876114903741736663E-04
    0.39468167773645618723E-04
    0.40074770884295934936E-04
    0.44082513726853282568E-04
    0.44504672923896278875E-04
    0.71752860872472076803E-04
    0.76022290518898568389E-04
    0.88941671457994417706E-04
    0.90758128648566708131E-04
    0.79548574626890630811E-04
    0.80098058962288750718E-04
    0.69264137998787452411E-04
    0.64357121648872826552E-04
    0.55241121405782422113E-04
    0.53533783483789473801E-04
    0.60913839084258845837E-04
    0.61076214360992195970E-04
    0.68984340578829138487E-04
    0.70003874051970381995E-04
    0.42250247662667945038E-04
    0.40213785410353693509E-04
    0.43718395187935609034E-04
    0.42036632977390000739E-04
    0.36894180448244850252E-04
    0.34397259994218235153E-04
    0.30567960120863571678E-04
    0.31475342135457761231E-04
    0.29326007815487870826E-04
    0.30941454119684931416E-04
    0.34744641235758561156E-04
    0.38333231989079842930E-04
    0.35932819664431706714E-04
    0.34966963085881454449E-04
    0.50038510546674155562E-04
    0.50063320613069437089E-04
    0.57001303105464926849E-04
    0.56243465381859185305E-04
    0.48599153892144619543E-04
    0.46548257641670505685E-04
    0.40074770881975288277E-04
    0.39468167777520713141E-04
    0.34876114908770605152E-04
    0.35584670514257428953E-04
    0.40896609497313733325E-04
    0.43505626945033144880E-04
    0.44504672933881997724E-04
    0.44082513735137440975E-04
    0.67815429458621971550E-04
    0.64233106158521622903E-04
    0.70038996427255345318E-04
    0.66980165631058075841E-04
    0.58177218497639485064E-04
    0.53455537667829125406E-04
    0.46893108945536822962E-04
    0.48899939433801157011E-04
    0.45241009118026432104E-04
    0.48224368632164626785E-04
    0.54896028273149051154E-04
    0.61144098171846868466E-04
    0.56858487988917947784E-04
    0.55093450465635099029E-04
    0.80098059035453152772E-04
    0.79548574695128797664E-04
    0.90758128731126819764E-04
    0.88941671535071786716E-04
    0.76022290571704093098E-04
    0.71752860906534985004E-04
    0.61076214379535278621E-04
    0.60913839114448760262E-04
    0.53533783507511898650E-04
    0.55241121438337557458E-04
    0.64357121696854112380E-04
    0.69264138060028801859E-04
    0.70003874103755076149E-04
    0.68984340625743081486E-04
    0.70147966127829218530E-04
    0.72178900266475949643E-04
    0.84095345161883883959E-04
    0.84095345158572893155E-04
    0.72178900261171246569E-04
    0.70147966116091632258E-04
    0.59530116663711888291E-04
    0.57269160036968862486E-04
    0.49200435574120340940E-04
    0.49200435575810808639E-04
    0.57269160043512978050E-04
    0.59530116681095213431E-04
    0.64068184324058807377E-04
    0.64068184322325493363E-04
    0.10729534560707946263E-03
    0.11207783266826199561E-03
    0.13207593213459311644E-03
    0.13306265940336771837E-03
    0.11390433032681563665E-03
    0.11155757181229119092E-03
    0.94049236869592794832E-04
    0.89388402268401971054E-04
    0.75749963256495586616E-04
    0.74937476135651269124E-04
    0.87692582951535635806E-04
    0.90014212701015867231E-04
    0.99487661294041300443E-04
    0.10000339513402895571E-03
    0.11155757190400145389E-03
    0.11390433040651941766E-03
    0.13306265949627967037E-03
    0.13207593221182387295E-03
    0.11207783272040248426E-03
    0.10729534563634042586E-03
    0.90014212708126959545E-04
    0.87692582978588689072E-04
    0.74937476157736223432E-04
    0.75749963291025514903E-04
    0.89388402326230089433E-04
    0.94049236953610277473E-04
    0.10000339519200609768E-03
    0.99487661343490189437E-04
    0.16937624589566480462E-03
    0.17538330313718937959E-03
    0.20713167010786233987E-03
    0.20713167009136894143E-03
    0.17538330310691558180E-03
    0.16937624582641895316E-03
    0.14118635799789314351E-03
    0.13577232379956378160E-03
    0.11446918188351572665E-03
    0.11446918189842980845E-03
    0.13577232383141314199E-03
    0.14118635807487054908E-03
    0.15397197150243240862E-03
    0.15397197149341864991E-03
    0.86333549188754234887E-04
    0.94390101818145978390E-04
    0.10907282522240546675E-03
    0.11423887848161035845E-03
    0.10462958732633874479E-03
    0.11062888914860245445E-03
    0.99571221948882422084E-04
    0.89118936273962408583E-04
    0.77955086723522645049E-04
    0.72894689781968018366E-04
    0.78963325956202929344E-04
    0.75434136789462714976E-04
    0.89349354473182958174E-04
    0.92335130053009339501E-04
    0.14137719956842776758E-03
    0.15472880418862503438E-03
    0.17911826542760779187E-03
    0.18754599910623077972E-03
    0.17151888939518852590E-03
    0.18123114615274608778E-03
    0.16304456291754994128E-03
    0.14586500947793049846E-03
    0.12741608521787151109E-03
    0.11904926840355745468E-03
    0.12910644181856760536E-03
    0.12323726858298633571E-03
    0.14631621985912280997E-03
    0.15123011235813619614E-03
    0.11539393578720922153E-03
    0.12309231741382554970E-03
    0.14473482522940037164E-03
    0.14813714646513267362E-03
    0.12964499862627075445E-03
    0.13083932242005893889E-03
    0.11280960627332721989E-03
    0.10442045355302820319E-03
    0.89183034228833000840E-04
    0.86061030690003789624E-04
    0.98084746600012314246E-04
    0.97749551230035306403E-04
    0.11171525378094386116E-03
    0.11360198598311938142E-03
    0.18929767889299729355E-03
    0.20248709555941425101E-03
    0.23873621964854929386E-03
    0.24450041868291308043E-03
    0.21355833873547654849E-03
    0.21542159367948671166E-03
    0.18539877700979122800E-03
    0.17147393942642494584E-03
    0.14611130065629506446E-03
    0.14083123154269482839E-03
    0.16077093345670995283E-03
    0.15992501608092326605E-03
    0.18357409004069282551E-03
    0.18676124746237483375E-03
    0.23243302904808366984E-03
    0.25402358179464097762E-03
    0.29407933423845981349E-03
    0.30725896174666297205E-03
    0.28063882633130198723E-03
    0.29580747531084632769E-03
    0.26636552902715060660E-03
    0.23865766157090187709E-03
    0.20864064980773190943E-03
    0.19503016111946687027E-03
    0.21169620728854723533E-03
    0.20235432161817308713E-03
    0.23982017450659604040E-03
    0.24766613669869539651E-03
    0.38084509345238823320E-03
    0.41448584340957815271E-03
    0.47934755351438978945E-03
    0.49879752627579544613E-03
    0.45484761399009084309E-03
    0.47736411410350814170E-03
    0.43084530776190467808E-03
    0.38735149330006331259E-03
    0.33948279875618955423E-03
    0.31794282503690688866E-03
    0.34533785103633594330E-03
    0.33122469144712907109E-03
    0.39040651739730424267E-03
    0.40247030819714839887E-03
    0.31357506491715478715E-03
    0.33543567580892691632E-03
    0.39627595207982824806E-03
    0.40531325924542490518E-03
    0.35289500907042240701E-03
    0.35481448663483145228E-03
    0.30487360982287979496E-03
    0.28251145409587591134E-03
    0.24047125864269292450E-03
    0.23197750633252925412E-03
    0.26542232897496740576E-03
    0.26424190073142929608E-03
    0.30339809794706367905E-03
    0.30845835107240634175E-03
    0.52131943160046653480E-03
    0.55617495897400729115E-03
    0.65787057349293474266E-03
    0.67044883645736379728E-03
    0.58121017463327331008E-03
    0.58075562286739185192E-03
    0.49819878280044289139E-03
    0.46381419189002519267E-03
    0.39479057551004820672E-03
    0.38189867214348521959E-03
    0.43845506125414512345E-03
    0.43809131079270292441E-03
    0.50104073592768133029E-03
    0.50842119959048097302E-03
    0.17157045016436166447E-03
    0.18064564991497795727E-03
    0.21402840262634370105E-03
    0.21650592737751782487E-03
    0.18513156259978533506E-03
    0.18205536727751480200E-03
    0.15298147982303447246E-03
    0.14453732022655041097E-03
    0.12172885742325369185E-03
    0.11978317937875718375E-03
    0.14046054722382107349E-03
    0.14322660831003679685E-03
    0.16041586362809822264E-03
    0.16166716860212157177E-03
    0.28076447206383813070E-03
    0.29704892752099545288E-03
    0.35321080938132407619E-03
    0.35819191464265035495E-03
    0.30585204267750238597E-03
    0.30122321204093877511E-03
    0.25247305535686700561E-03
    0.23794371387048508619E-03
    0.19967928451505764223E-03
    0.19598543090164325287E-03
    0.23011665613340844634E-03
    0.23375245674003890467E-03
    0.26382233512061060597E-03
    0.26625622575206919903E-03
    0.26837149701614449078E-03
    0.28028514630455431816E-03
    0.33274792005653274158E-03
    0.33443048229167559888E-03
    0.28316054071823669848E-03
    0.27501826347539794085E-03
    0.22857279848442980030E-03
    0.21827591079612813983E-03
    0.18282048842935299431E-03
    0.18168673991593686486E-03
    0.21581289086150128075E-03
    0.22268035957628143167E-03
    0.24645211366634259178E-03
    0.24723285402502117366E-03
    0.43548421361989166642E-03
    0.45778455223232581957E-03
    0.54536660139115284221E-03
    0.55048492702934321945E-03
    0.46617016514386995073E-03
    0.45470069331242775291E-03
    0.37703460370176988510E-03
    0.35831131347060710254E-03
    0.29892744596729113778E-03
    0.29590546849772288249E-03
    0.35150783272127066222E-03
    0.36070065743143452704E-03
    0.40315831071352172974E-03
    0.40538114757063541289E-03
    0.46659807353261302998E-03
    0.49505417952636239769E-03
    0.59042249467630637978E-03
    0.59924733317567847012E-03
    0.51038696620049704006E-03
    0.50216690376235343686E-03
    0.41972819194810738258E-03
    0.39551402740379773158E-03
    0.33106753070326805409E-03
    0.32474059453193703916E-03
    0.38203016381928707424E-03
    0.38750186873895886477E-03
    0.43910269680888085750E-03
    0.44332080190554666284E-03
    0.78399874375040690816E-03
    0.83229338538339859600E-03
    0.99531816843912335364E-03
    0.10090000732090090817E-02
    0.85593760871091248681E-03
    0.83874906952235549901E-03
    0.69878045037469790467E-03
    0.66018044525751825875E-03
    0.55150449517548229359E-03
    0.54171887644665771451E-03
    0.63938178326330399794E-03
    0.64916267330378718461E-03
    0.73609228459429749524E-03
    0.74259977589782649385E-03
    0.72002319966115563808E-03
    0.76125391277690737310E-03
    0.91010933341330194166E-03
    0.92173802783560368490E-03
    0.77988015178965175087E-03
    0.76248827220899088441E-03
    0.63052609662386197454E-03
    0.59742712891175267596E-03
    0.49669487942444862615E-03
    0.49036532060012770224E-03
    0.58278952417201558642E-03
    0.59535756145364662154E-03
    0.67099344929145185272E-03
    0.67586432468038271006E-03
    0.12113590164265211277E-02
    0.12861475745073456308E-02
    0.15431972248399739543E-02
    0.15657883169874315613E-02
    0.13216282643865409109E-02
    0.12918262608834611433E-02
    0.10646676009282488289E-02
    0.10079246970375824871E-02
    0.83528218675780118926E-03
    0.82374417462749720178E-03
    0.98075387505649558664E-03
    0.99928029681913043206E-03
    0.11328545199917093925E-02
    0.11420340262880759874E-02
    0.11062888935516568235E-03
    0.10462958750779556376E-03
    0.11423887867748478949E-03
    0.10907282539832287998E-03
    0.94390101958441251619E-04
    0.86333549297278942120E-04
    0.75434136870511340361E-04
    0.78963326061153320170E-04
    0.72894689877885893788E-04
    0.77955086838510267880E-04
    0.89118936425582322581E-04
    0.99571222146043380976E-04
    0.92335130202489932878E-04
    0.89349354609823250354E-04
    0.13083932263309837741E-03
    0.12964499883079942276E-03
    0.14813714670923924777E-03
    0.14473482546176820755E-03
    0.12309231758691173159E-03
    0.11539393592197238027E-03
    0.97749551323315616094E-04
    0.98084746713862961363E-04
    0.86061030782641872159E-04
    0.89183034339632852121E-04
    0.10442045370249586746E-03
    0.11280960645193602949E-03
    0.11360198614677209639E-03
    0.11171525393470434261E-03
    0.18123114661608208170E-03
    0.17151888981199934462E-03
    0.18754599955986942547E-03
    0.17911826584277496010E-03
    0.15472880452795429351E-03
    0.14137719984674433551E-03
    0.12323726880131253376E-03
    0.12910644208022605743E-03
    0.11904926864247384461E-03
    0.12741608549414969761E-03
    0.14586500982735002064E-03
    0.16304456335311696968E-03
    0.15123011270869581111E-03
    0.14631622018528868921E-03
    0.21542159418471427176E-03
    0.21355833922968091667E-03
    0.24450041926792856917E-03
    0.23873622021360380746E-03
    0.20248709599664620738E-03
    0.18929767925826427363E-03
    0.15992501635273066360E-03
    0.16077093376153095416E-03
    0.14083123179600904370E-03
    0.14611130094235055907E-03
    0.17147393979560147763E-03
    0.18539877743601617418E-03
    0.18676124786844115473E-03
    0.18357409042912782365E-03
    0.18205536756717223307E-03
    0.18513156287269325203E-03
    0.21650592770045828397E-03
    0.21402840292141428252E-03
    0.18064565013673419152E-03
    0.17157045033760494725E-03
    0.14322660842084320755E-03
    0.14046054736721407495E-03
    0.11978317949601171070E-03
    0.12172885756391615725E-03
    0.14453732042637665051E-03
    0.15298148007378815460E-03
    0.16166716881729669883E-03
    0.16041586382766330498E-03
    0.27501826381479366158E-03
    0.28316054099885098897E-03
    0.33443048260004297131E-03
    0.33274792030309403076E-03
    0.28028514647816446786E-03
    0.26837149710692181134E-03
    0.22268035961229179736E-03
    0.21581289097065956863E-03
    0.18168674002219892347E-03
    0.18282048858876077317E-03
    0.21827591101793720183E-03
    0.22857279879157335243E-03
    0.24723285423559123331E-03
    0.24645211384449300070E-03
    0.30122321275483435188E-03
    0.30585204337107003937E-03
    0.35819191546870583331E-03
    0.35321081015676129931E-03
    0.29704892812823865825E-03
    0.28076447257744670911E-03
    0.23375245710890928488E-03
    0.23011665655119900435E-03
    0.19598543124539535214E-03
    0.19967928489960821503E-03
    0.23794371438490090733E-03
    0.25247305596430704789E-03
    0.26625622631830327038E-03
    0.26382233565974764610E-03
    0.45470069425466313768E-03
    0.46617016600755017183E-03
    0.55048492801530529098E-03
    0.54536660227966703932E-03
    0.45778455291470250077E-03
    0.43548421414778260268E-03
    0.36070065779542916876E-03
    0.35150783319820691529E-03
    0.29590546891637204731E-03
    0.29892744647681129821E-03
    0.35831131413622115079E-03
    0.37703460452330803511E-03
    0.40538114826302963428E-03
    0.40315831135197488727E-03
    0.29580747626387597507E-03
    0.28063882720294529381E-03
    0.30725896269738218461E-03
    0.29407933512341560486E-03
    0.25402358252672800317E-03
    0.23243302966938309559E-03
    0.20235432211761041131E-03
    0.21169620786348812775E-03
    0.19503016164464117535E-03
    0.20864065040239655356E-03
    0.23865766230426189152E-03
    0.26636552991725760513E-03
    0.24766613744114251592E-03
    0.23982017520540442894E-03
    0.35481448771420046832E-03
    0.35289501013633604041E-03
    0.40531326050754470838E-03
    0.39627595330386002894E-03
    0.33543567677959750884E-03
    0.31357506575679548137E-03
    0.26424190137773679362E-03
    0.26542232967118208455E-03
    0.23197750691683345203E-03
    0.24047125928292197809E-03
    0.28251145490354440505E-03
    0.30487361073422490458E-03
    0.30845835196376825008E-03
    0.30339809880794486961E-03
    0.47736411593214526407E-03
    0.45484761570114835404E-03
    0.49879752816870922324E-03
    0.47934755528001476207E-03
    0.41448584488247992288E-03
    0.38084509472710673670E-03
    0.33122469248898642668E-03
    0.34533785220369083878E-03
    0.31794282610343304208E-03
    0.33948279994581672704E-03
    0.38735149473926905501E-03
    0.43084530946998139201E-03
    0.40247030966747833307E-03
    0.39040651879280720499E-03
    0.58075562499881449446E-03
    0.58121017678227455613E-03
    0.67044883901722584184E-03
    0.65787057598170901179E-03
    0.55617496096893820432E-03
    0.52131943336724043646E-03
    0.43809131217277660561E-03
    0.43845506270899205431E-03
    0.38189867336718962562E-03
    0.39479057683054611695E-03
    0.46381419352894623365E-03
    0.49819878462011631809E-03
    0.50842120140628011167E-03
    0.50104073769405526977E-03
    0.50216690531960581079E-03
    0.51038696774527219854E-03
    0.59924733501365908418E-03
    0.59042249643868741950E-03
    0.49505418092897469050E-03
    0.46659807476716086720E-03
    0.38750186966128602082E-03
    0.38203016481310045002E-03
    0.32474059535156883649E-03
    0.33106753159308941956E-03
    0.39551402855715682384E-03
    0.41972819326827780955E-03
    0.44332080318837554069E-03
    0.43910269804760666780E-03
    0.76248827439862531738E-03
    0.77988015387620132548E-03
    0.92173803026361720431E-03
    0.91010933567207573033E-03
    0.76125391456912500608E-03
    0.72002320116652080654E-03
    0.59535756257646905119E-03
    0.58278952545937436937E-03
    0.49036532170731376816E-03
    0.49669488067776324403E-03
    0.59742713051149645091E-03
    0.63052609849670792838E-03