# vtk DataFile Version 3.0
LAPLACIEN  2D
ASCII
DATASET UNSTRUCTURED_GRID
FIELD FieldData 1
TIME 1 1 double
19.3000
 POINTS        7297  float
   1.5625000000000000E-002  0.96875000000000000        0.0000000000000000     
   3.1250000000000000E-002  0.96875000000000000        0.0000000000000000     
   3.1250000000000000E-002  0.98437500000000000        0.0000000000000000     
   9.3749999999999997E-003  0.97812500000000002        0.0000000000000000     
   2.0312500000000001E-002  0.97968750000000004        0.0000000000000000     
   2.1874999999999999E-002  0.99062499999999998        0.0000000000000000     
   1.0937499999999999E-002  0.98906249999999996        0.0000000000000000     
   4.6875000000000000E-002  0.96875000000000000        0.0000000000000000     
   6.2500000000000000E-002  0.96875000000000000        0.0000000000000000     
   6.2500000000000000E-002  0.98437500000000000        0.0000000000000000     
   4.0625000000000001E-002  0.97812500000000002        0.0000000000000000     
   5.1562499999999997E-002  0.97968750000000004        0.0000000000000000     
   5.3124999999999999E-002  0.99062499999999998        0.0000000000000000     
   4.2187500000000003E-002  0.98906249999999996        0.0000000000000000     
   1.5625000000000000E-002  0.93750000000000000        0.0000000000000000     
   3.1250000000000000E-002  0.93750000000000000        0.0000000000000000     
   3.1250000000000000E-002  0.95312500000000000        0.0000000000000000     
   9.3749999999999997E-003  0.94687500000000002        0.0000000000000000     
   2.0312500000000001E-002  0.94843750000000004        0.0000000000000000     
   2.1874999999999999E-002  0.95937499999999998        0.0000000000000000     
   1.0937499999999999E-002  0.95781249999999996        0.0000000000000000     
   4.6875000000000000E-002  0.93750000000000000        0.0000000000000000     
   6.2500000000000000E-002  0.93750000000000000        0.0000000000000000     
   6.2500000000000000E-002  0.95312500000000000        0.0000000000000000     
   4.0625000000000001E-002  0.94687500000000002        0.0000000000000000     
   5.1562499999999997E-002  0.94843750000000004        0.0000000000000000     
   5.3124999999999999E-002  0.95937499999999998        0.0000000000000000     
   4.2187500000000003E-002  0.95781249999999996        0.0000000000000000     
   7.8125000000000000E-002  0.96875000000000000        0.0000000000000000     
   9.3750000000000000E-002  0.96875000000000000        0.0000000000000000     
   9.3750000000000000E-002  0.98437500000000000        0.0000000000000000     
   7.1874999999999994E-002  0.97812500000000002        0.0000000000000000     
   8.2812499999999997E-002  0.97968750000000004        0.0000000000000000     
   8.4375000000000006E-002  0.99062499999999998        0.0000000000000000     
   7.3437500000000003E-002  0.98906249999999996        0.0000000000000000     
  0.10937500000000000       0.96875000000000000        0.0000000000000000     
  0.12500000000000000       0.96875000000000000        0.0000000000000000     
  0.12500000000000000       0.98437500000000000        0.0000000000000000     
  0.10312499999999999       0.97812500000000002        0.0000000000000000     
  0.11406250000000000       0.97968750000000004        0.0000000000000000     
  0.11562500000000001       0.99062499999999998        0.0000000000000000     
  0.10468750000000000       0.98906249999999996        0.0000000000000000     
   7.8125000000000000E-002  0.93750000000000000        0.0000000000000000     
   9.3750000000000000E-002  0.93750000000000000        0.0000000000000000     
   9.3750000000000000E-002  0.95312500000000000        0.0000000000000000     
   7.1874999999999994E-002  0.94687500000000002        0.0000000000000000     
   8.2812499999999997E-002  0.94843750000000004        0.0000000000000000     
   8.4375000000000006E-002  0.95937499999999998        0.0000000000000000     
   7.3437500000000003E-002  0.95781249999999996        0.0000000000000000     
  0.10937500000000000       0.93750000000000000        0.0000000000000000     
  0.12500000000000000       0.93750000000000000        0.0000000000000000     
  0.12500000000000000       0.95312500000000000        0.0000000000000000     
  0.10312499999999999       0.94687500000000002        0.0000000000000000     
  0.11406250000000000       0.94843750000000004        0.0000000000000000     
  0.11562500000000001       0.95937499999999998        0.0000000000000000     
  0.10468750000000000       0.95781249999999996        0.0000000000000000     
   1.5625000000000000E-002  0.90625000000000000        0.0000000000000000     
   3.1250000000000000E-002  0.90625000000000000        0.0000000000000000     
   3.1250000000000000E-002  0.92187500000000000        0.0000000000000000     
   9.3749999999999997E-003  0.91562500000000002        0.0000000000000000     
   2.0312500000000001E-002  0.91718750000000004        0.0000000000000000     
   2.1874999999999999E-002  0.92812499999999998        0.0000000000000000     
   1.0937499999999999E-002  0.92656249999999996        0.0000000000000000     
   4.6875000000000000E-002  0.90625000000000000        0.0000000000000000     
   6.2500000000000000E-002  0.90625000000000000        0.0000000000000000     
   6.2500000000000000E-002  0.92187500000000000        0.0000000000000000     
   4.0625000000000001E-002  0.91562500000000002        0.0000000000000000     
   5.1562499999999997E-002  0.91718750000000004        0.0000000000000000     
   5.3124999999999999E-002  0.92812499999999998        0.0000000000000000     
   4.2187500000000003E-002  0.92656249999999996        0.0000000000000000     
   1.5625000000000000E-002  0.87500000000000000        0.0000000000000000     
   3.1250000000000000E-002  0.87500000000000000        0.0000000000000000     
   3.1250000000000000E-002  0.89062500000000000        0.0000000000000000     
   9.3749999999999997E-003  0.88437500000000002        0.0000000000000000     
   2.0312500000000001E-002  0.88593750000000004        0.0000000000000000     
   2.1874999999999999E-002  0.89687499999999998        0.0000000000000000     
   1.0937499999999999E-002  0.89531249999999996        0.0000000000000000     
   4.6875000000000000E-002  0.87500000000000000        0.0000000000000000     
   6.2500000000000000E-002  0.87500000000000000        0.0000000000000000     
   6.2500000000000000E-002  0.89062500000000000        0.0000000000000000     
   4.0625000000000001E-002  0.88437500000000002        0.0000000000000000     
   5.1562499999999997E-002  0.88593750000000004        0.0000000000000000     
   5.3124999999999999E-002  0.89687499999999998        0.0000000000000000     
   4.2187500000000003E-002  0.89531249999999996        0.0000000000000000     
   7.8125000000000000E-002  0.90625000000000000        0.0000000000000000     
   9.3750000000000000E-002  0.90625000000000000        0.0000000000000000     
   9.3750000000000000E-002  0.92187500000000000        0.0000000000000000     
   7.1874999999999994E-002  0.91562500000000002        0.0000000000000000     
   8.2812499999999997E-002  0.91718750000000004        0.0000000000000000     
   8.4375000000000006E-002  0.92812499999999998        0.0000000000000000     
   7.3437500000000003E-002  0.92656249999999996        0.0000000000000000     
  0.10937500000000000       0.90625000000000000        0.0000000000000000     
  0.12500000000000000       0.90625000000000000        0.0000000000000000     
  0.12500000000000000       0.92187500000000000        0.0000000000000000     
  0.10312499999999999       0.91562500000000002        0.0000000000000000     
  0.11406250000000000       0.91718750000000004        0.0000000000000000     
  0.11562500000000001       0.92812499999999998        0.0000000000000000     
  0.10468750000000000       0.92656249999999996        0.0000000000000000     
   7.8125000000000000E-002  0.87500000000000000        0.0000000000000000     
   9.3750000000000000E-002  0.87500000000000000        0.0000000000000000     
   9.3750000000000000E-002  0.89062500000000000        0.0000000000000000     
   7.1874999999999994E-002  0.88437500000000002        0.0000000000000000     
   8.2812499999999997E-002  0.88593750000000004        0.0000000000000000     
   8.4375000000000006E-002  0.89687499999999998        0.0000000000000000     
   7.3437500000000003E-002  0.89531249999999996        0.0000000000000000     
  0.10937500000000000       0.87500000000000000        0.0000000000000000     
  0.12500000000000000       0.87500000000000000        0.0000000000000000     
  0.12500000000000000       0.89062500000000000        0.0000000000000000     
  0.10312499999999999       0.88437500000000002        0.0000000000000000     
  0.11406250000000000       0.88593750000000004        0.0000000000000000     
  0.11562500000000001       0.89687499999999998        0.0000000000000000     
  0.10468750000000000       0.89531249999999996        0.0000000000000000     
  0.14062500000000000       0.96875000000000000        0.0000000000000000     
  0.15625000000000000       0.96875000000000000        0.0000000000000000     
  0.15625000000000000       0.98437500000000000        0.0000000000000000     
  0.13437499999999999       0.97812500000000002        0.0000000000000000     
  0.14531250000000001       0.97968750000000004        0.0000000000000000     
  0.14687500000000001       0.99062499999999998        0.0000000000000000     
  0.13593749999999999       0.98906249999999996        0.0000000000000000     
  0.17187500000000000       0.96875000000000000        0.0000000000000000     
  0.18750000000000000       0.96875000000000000        0.0000000000000000     
  0.18750000000000000       0.98437500000000000        0.0000000000000000     
  0.16562499999999999       0.97812500000000002        0.0000000000000000     
  0.17656250000000001       0.97968750000000004        0.0000000000000000     
[...]
 CELL_DATA       14336
 SCALARS Nutrient float
 LOOKUP_TABLE default
    0.14122293817124988505E-01
    0.14122211019479670446E-01
    0.14122864962720716245E-01
    0.14122864962527964180E-01
    0.14122211020250756766E-01
    0.14122293816468409547E-01
    0.14121775577287125694E-01
    0.14121468755666541361E-01
    0.14121137000385758017E-01
    0.14121136995971044631E-01
    0.14121468757936564073E-01
    0.14121775576337208466E-01
    0.14121727902889898848E-01
    0.14121727902173638464E-01
    0.14124445233037546954E-01
    0.14125018153541208862E-01
    0.14126572916495976767E-01
    0.14127003337073696168E-01
    0.14125837897335536200E-01
    0.14126396367108464552E-01
    0.14125174292121891670E-01
    0.14124158211000045066E-01
    0.14123084480451381095E-01
    0.14122701123069708595E-01
    0.14123368840608134175E-01
    0.14123286541007258610E-01
    0.14124334769171770221E-01
    0.14124564354737731420E-01
    0.14126396367217720906E-01
    0.14125837897208441685E-01
    0.14127003337115386777E-01
    0.14126572916441542879E-01
    0.14125018153724282904E-01
    0.14124445232799350339E-01
    0.14123286541475181186E-01
    0.14123368840143028791E-01
    0.14122701123663526993E-01
    0.14123084479876712310E-01
    0.14124158211285967393E-01
    0.14125174292007948093E-01
    0.14124564354874405078E-01
    0.14124334769098077433E-01
    0.14129280553087184696E-01
    0.14129531009380979362E-01
    0.14131960623912779781E-01
    0.14131960623895498466E-01
    0.14129531009435338657E-01
    0.14129280553029177278E-01
    0.14127126408177981265E-01
    0.14126512477864439782E-01
    0.14124910038056747927E-01
    0.14124910037826345424E-01
    0.14126512478007073950E-01
    0.14127126408077377712E-01
    0.14127834398469398675E-01
    0.14127834398428126134E-01
    0.14130190485176974055E-01
    0.14131738189664044478E-01
    0.14134769052387762683E-01
    0.14135897702507917856E-01
    0.14133892994150907760E-01
    0.14135249040320112604E-01
    0.14132855058854329119E-01
    0.14130632929418147220E-01
    0.14128334457408410832E-01
    0.14127362078468857359E-01
    0.14128589640601244351E-01
    0.14127999470233357920E-01
    0.14130679553195905906E-01
    0.14131290869051038941E-01
    0.14141676532121397886E-01
    0.14144793794665965966E-01
    0.14150146781826354256E-01
    0.14152322785458849169E-01
    0.14148943866215407325E-01
    0.14151449870462160657E-01
    0.14147219363064679823E-01
    0.14143195898110827793E-01
    0.14139012324888657057E-01
    0.14137111165390453885E-01
    0.14139261057529280141E-01
    0.14137841056425000039E-01
    0.14143115261418025622E-01
    0.14144298986769068827E-01
    0.14136810391795179287E-01
    0.14138019590214561186E-01
    0.14142279723657192117E-01
    0.14142847670908979471E-01
    0.14139060291764709784E-01
    0.14139276901214746160E-01
    0.14135541551921232406E-01
    0.14133892149626516369E-01
    0.14130835009578381067E-01
    0.14130374293240214462E-01
    0.14132934652905304249E-01
    0.14133221106615332513E-01
    0.14135563693870110968E-01
    0.14135855939701610917E-01
    0.14151064166568069758E-01
    0.14153844536488966593E-01
    0.14161174994990621476E-01
    0.14162691343604641089E-01
    0.14156630874141432758E-01
    0.14157597004586814499E-01
    0.14151295459198159898E-01
    0.14147978156226193730E-01
    0.14142589477197606632E-01
    0.14141369442281068528E-01
    0.14145423158819574530E-01
    0.14145195507261478646E-01
    0.14150165061044290421E-01
    0.14150946425041648763E-01
    0.14135249040356862721E-01
    0.14133892994144381730E-01
    0.14135897702530096295E-01
    0.14134769052389303118E-01
    0.14131738189710278328E-01
    0.14130190485128474656E-01
    0.14127999470335387416E-01
    0.14128589640526772672E-01
    0.14127362078567634249E-01
    0.14128334457334929680E-01
    0.14130632929473719087E-01
    0.14132855058856461095E-01
    0.14131290869084598902E-01
    0.14130679553197746448E-01
    0.14139276901238182274E-01
    0.14139060291762020963E-01
    0.14142847670926134152E-01
    0.14142279723662998236E-01
    0.14138019590236286863E-01
    0.14136810391777986443E-01
    0.14133221106650439847E-01
    0.14132934652867546257E-01
    0.14130374293301226421E-01
    0.14130835009537680985E-01
    0.14133892149661578599E-01
    0.14135541551912104291E-01
    0.14135855939721555033E-01
    0.14135563693869616572E-01
    0.14151449870520672880E-01
    0.14148943866258327853E-01
    0.14152322785510169229E-01
    0.14150146781867467202E-01
    0.14144793794706842990E-01
    0.14141676532134274738E-01
    0.14137841056458965924E-01
    0.14139261057540855951E-01
    0.14137111165425928980E-01
    0.14139012324904866313E-01
    0.14143195898157131032E-01
    0.14147219363115469057E-01
    0.14144298986810721272E-01
    0.14143115261449821368E-01
    0.14157597004639919588E-01
    0.14156630874185022889E-01
    0.14162691343661867882E-01
    0.14161174995040021196E-01
    0.14153844536528644923E-01
    0.14151064166586735382E-01
    0.14145195507284958128E-01
    0.14145423158831554530E-01
    0.14141369442311271798E-01
    0.14142589477212834034E-01
    0.14147978156264638672E-01
    0.14151295459236852906E-01
    0.14150946425080327892E-01
    0.14150165061075935247E-01
    0.14149768039561987434E-01
    0.14150707507303714877E-01
    0.14157023885073463654E-01
    0.14157023885068734798E-01
    0.14150707507304701935E-01
    0.14149768039547736681E-01
    0.14144010228994091313E-01
    0.14142675822129479463E-01
    0.14138256172181971893E-01
    0.14138256172164955990E-01
    0.14142675822145877804E-01
    0.14144010228996686460E-01
    0.14146326346704223356E-01
    0.14146326346699662768E-01
    0.14169283738666245756E-01
    0.14172063676313144745E-01
    0.14182694808330819844E-01
    0.14183685332872258966E-01
    0.14173788512903795489E-01
    0.14173261731803747307E-01
    0.14163730868489890491E-01
    0.14160651944189467724E-01
    0.14153110333513003669E-01
    0.14152437451651136979E-01
    0.14159169820475263346E-01
    0.14160188404284018357E-01
    0.14165619655265146784E-01
    0.14166089281986303863E-01
    0.14173261731865680405E-01
    0.14173788512954104205E-01
    0.14183685332932906634E-01
    0.14182694808378292287E-01
    0.14172063676347976258E-01
    0.14169283738682423787E-01
    0.14160188404292551462E-01
    0.14159169820489715327E-01
    0.14152437451672227747E-01
    0.14153110333531981543E-01
    0.14160651944230624039E-01
    0.14163730868542754454E-01
    0.14166089282025300447E-01
    0.14165619655296682322E-01
    0.14201792959589728399E-01
    0.14204432381613082623E-01
    0.14220458192914477852E-01
    0.14220458192902810102E-01
    0.14204432381594392712E-01
    0.14201792959544535383E-01
    0.14187231164130110345E-01
    0.14184098394047064962E-01
    0.14172987782450975278E-01
    0.14172987782458002642E-01
    0.14184098394068192159E-01
    0.14187231164176935735E-01
    0.14193391031677689632E-01
    0.14193391031671651059E-01
    0.14162287182352274739E-01
    0.14167890949623118679E-01
    0.14177162762047714958E-01
    0.14181057646879930215E-01
    0.14175287827691245360E-01
    0.14179710869606227189E-01
    0.14172410377306711785E-01
    0.14165379515199735816E-01
    0.14158099926716637834E-01
    0.14154732977667007846E-01
    0.14158397293817499493E-01
    0.14155754791603579121E-01
    0.14165114732802687805E-01
    0.14167220089986842096E-01
    0.14198370524545431484E-01
    0.14208162497263995480E-01
    0.14224293791306881832E-01
    0.14231013386176079652E-01
    0.14220940897817559503E-01
    0.14228465398282246629E-01
    0.14215903637672189577E-01
    0.14203804571125687103E-01
    0.14191220393850897258E-01
    0.14185395652512455475E-01
    0.14191705353942776768E-01
    0.14187049581970131995E-01
    0.14203356114526879614E-01
    0.14207000618516114204E-01
    0.14176720255587065694E-01
    0.14182165997467998872E-01
    0.14194887198041716489E-01
    0.14198008992595640906E-01
    0.14187821858604600378E-01
    0.14189907520196878496E-01
    0.14179045714110332863E-01
    0.14173030782913513190E-01
    0.14163707824751627443E-01
    0.14161311398041975460E-01
    0.14167940291784310650E-01
    0.14166889710656936294E-01
    0.14176275304764210730E-01
    0.14177848420659120224E-01
    0.14222375410189684944E-01
    0.14232430282571510369E-01
    0.14254770723857178999E-01
    0.14260521555812822811E-01
    0.14242770284090993868E-01
    0.14246497195532429117E-01
    0.14227577246266852329E-01
    0.14216999903840127004E-01
    0.14200775806424136352E-01
    0.14196438724449615340E-01
    0.14207753398239856071E-01
    0.14205452945122206548E-01
    0.14222388605028408320E-01
    0.14225255481644754479E-01
    0.14261003631678398351E-01
    0.14277646717653889180E-01
    0.14305395591477049894E-01
    0.14316434544172940493E-01
    0.14298875227225284548E-01
    0.14311162509475002652E-01
    0.14289921621157551310E-01
    0.14269539294314364034E-01
    0.14248139859667302565E-01
    0.14238220794295744845E-01
    0.14249167142669600175E-01
    0.14241349557848703364E-01
    0.14269094232304362774E-01
    0.14275186572116637523E-01
    0.14367935155642970815E-01
    0.14395006743613117384E-01
    0.14441951289495980754E-01
    0.14458979591977050988E-01
    0.14428545176751631646E-01
    0.14447508573990032119E-01
    0.14412628117836280908E-01
    0.14379368861901893617E-01
    0.14343829011483151883E-01
    0.14327485124476685083E-01
    0.14346326677174250225E-01
    0.14333923844238283599E-01
    0.14379628862676808662E-01
    0.14389379418596748295E-01
    0.14303550668506572960E-01
    0.14321337194817420832E-01
    0.14360940403898632411E-01
    0.14370711142371123126E-01
    0.14338887891657371015E-01
    0.14344490489191716320E-01
    0.14311414241098451700E-01
    0.14293527012649204916E-01
    0.14265294415095948477E-01
    0.14257878076948476975E-01
    0.14277753122355341803E-01
    0.14273689009640301573E-01
    0.14303435840796897144E-01
    0.14308316390845328067E-01
    0.14447116445119855335E-01
    0.14477117459227712565E-01
    0.14547065072075204828E-01
    0.14562006249730351584E-01
    0.14504337430481854115E-01
    0.14510792855056950379E-01
    0.14453325315216853861E-01
    0.14424567070437743430E-01
    0.14375943635843551824E-01
    0.14364029404567909068E-01
    0.14399614440381267727E-01
    0.14393782701274405664E-01
    0.14444129625044000928E-01
    0.14451769868120564744E-01
    0.14204168534890083270E-01
    0.14210194600559750144E-01
    0.14228375616707360229E-01
    0.14231168860019806008E-01
    0.14214954066259119850E-01
    0.14215168756594925847E-01
    0.14198931994688619371E-01
    0.14192811385769473279E-01
    0.14179839353339711294E-01
    0.14178037384733603588E-01
    0.14188818784599918632E-01
    0.14189325283574482500E-01
    0.14200130002445000843E-01
    0.14201409459851410330E-01
    0.14266404159634121784E-01
    0.14278460422264093246E-01
    0.14310497627846573490E-01
    0.14316664775804073539E-01
    0.14288772422451512939E-01
    0.14290121853853315556E-01
    0.14261656609584446448E-01
    0.14250242566448027143E-01
    0.14227474385429554962E-01
    0.14223696072440634303E-01
    0.14241760828601528546E-01
    0.14241255307896175109E-01
    0.14261887907829933625E-01
    0.14264638956124706809E-01
    0.14251249104994343636E-01
    0.14257929628208926634E-01
    0.14284475112845409703E-01
    0.14286661107909357643E-01
    0.14261510481129439920E-01
    0.14259459927752723973E-01
    0.14235294056141302443E-01
    0.14228371866453393482E-01
    0.14209625207476045058E-01
    0.14208366372752445281E-01
    0.14225496465874459470E-01
    0.14228378039067403685E-01
    0.14241500805959360701E-01
    0.14242445488203475321E-01
    0.14337892116065007950E-01
    0.14352753449982810774E-01
    0.14398516596088097377E-01
    0.14405574970452751996E-01
    0.14364031104829488167E-01
    0.14363610931662079695E-01
    0.14321731836097244261E-01
    0.14307542664001507773E-01
    0.14274933189253441110E-01
    0.14271204865873568166E-01
    0.14298798418107921265E-01
    0.14300650259949245977E-01
    0.14327058043708616741E-01
    0.14329988506607044610E-01
    0.14379241946672378580E-01
    0.14402295913684528064E-01
    0.14460130938935559369E-01
    0.14472018781308554000E-01
    0.14421932390680855876E-01
    0.14424352799233599101E-01
    0.14373386058608435961E-01
    0.14353002489825723506E-01
    0.14312472321488077173E-01
    0.14305401348536292416E-01
    0.14337007119887270820E-01
    0.14334931293887071338E-01
    0.14373227288383427086E-01
    0.14378443134215344867E-01
    0.14585776941119550296E-01
    0.14627853138510549941E-01
    0.14733635732448287919E-01
    0.14754026115663284452E-01
    0.14661368696583293794E-01
    0.14662654002192106531E-01
    0.14570588897007075158E-01
    0.14536124431234745055E-01
    0.14463625219643319944E-01
    0.14451640330159404996E-01
    0.14508938296732078882E-01
    0.14505289001724160081E-01
    0.14574315297102969843E-01
    0.14583203984458554051E-01
    0.14495136034279850271E-01
    0.14526544936988593226E-01
    0.14609242995102234702E-01
    0.14625970756643383655E-01
    0.14552985024557050023E-01
    0.14555266914013310214E-01
    0.14479763483710186150E-01
    0.14452188137412693564E-01
    0.14393524411054004625E-01
    0.14385075905591782758E-01
    0.14432033067362036449E-01
    0.14431168515317678580E-01
    0.14483670664027515837E-01
    0.14490494228476721514E-01
    0.14789634695949994969E-01
    0.14852566652963706748E-01
    0.15006992510138544503E-01
    0.15040889720869395421E-01
    0.14905637013979308389E-01
    0.14910000335482566716E-01
    0.14770269369026747461E-01
    0.14719347886527135369E-01
    0.14611523808851327455E-01
    0.14594957066607721491E-01
    0.14679427425959802253E-01
    0.14673913149833727257E-01
    0.14775554943713022429E-01
    0.14789177465590748820E-01
    0.14179710869745808244E-01
    0.14175287827811770477E-01
    0.14181057647012131756E-01
    0.14177162762164257151E-01
    0.14167890949719329913E-01
    0.14162287182423637794E-01
    0.14155754791662871969E-01
    0.14158397293886536283E-01
    0.14154732977734736654E-01
    0.14158099926791943915E-01
    0.14165379515303134009E-01
    0.14172410377437077988E-01
    0.14167220090088011170E-01
    0.14165114732894513658E-01
    0.14189907520338879490E-01
    0.14187821858738016226E-01
    0.14198008992755273630E-01
    0.14194887198190533212E-01
    0.14182165997581985817E-01
    0.14176720255674001361E-01
    0.14166889710721806278E-01
    0.14167940291858194257E-01
    0.14161311398107934850E-01
    0.14163707824824834508E-01
    0.14173030783014269399E-01
    0.14179045714228637534E-01
    0.14177848420767861365E-01
    0.14176275304865532459E-01
    0.14228465398591924260E-01
    0.14220940898093732685E-01
    0.14231013386477935415E-01
    0.14224293791580085167E-01
    0.14208162497489667392E-01
    0.14198370524729147374E-01
    0.14187049582116818477E-01
    0.14191705354116573509E-01
    0.14185395652672808109E-01
    0.14191220394034177732E-01
    0.14203804571359007411E-01
    0.14215903637961128589E-01
    0.14207000618749379001E-01
    0.14203356114743560454E-01
    0.14246497195864109980E-01
    0.14242770284411799750E-01
    0.14260521556190987325E-01
    0.14254770724218188832E-01
    0.14232430282853588549E-01
    0.14222375410423839653E-01
    0.14205452945299484879E-01
    0.14207753398438034351E-01
    0.14196438724617737800E-01
    0.14200775806612239358E-01
    0.14216999904082934514E-01
    0.14227577246547438647E-01
    0.14225255481909395219E-01
    0.14222388605280619767E-01
    0.14215168756780704323E-01
    0.14214954066431187071E-01
    0.14231168860222874473E-01
    0.14228375616889594665E-01
    0.14210194600698864559E-01
    0.14204168534996725395E-01
    0.14189325283646397197E-01
    0.14188818784690540586E-01
    0.14178037384811777166E-01
    0.14179839353429663645E-01
    0.14192811385898250476E-01
    0.14198931994848501895E-01
    0.14201409459988248787E-01
    0.14200130002571080545E-01
    0.14259459927963661144E-01
    0.14261510481301318057E-01
    0.14286661108098433828E-01
    0.14284475112992271392E-01
    0.14257929628314109857E-01
    0.14251249105047106985E-01
    0.14228378039091127763E-01
    0.14225496465941740720E-01
    0.14208366372820234805E-01
    0.14209625207573866115E-01
    0.14228371866590655212E-01
    0.14235294056330219034E-01
    0.14242445488332991510E-01
    0.14241500806068337764E-01
    0.14290121854307251056E-01
    0.14288772422886810570E-01
    0.14316664776320103467E-01
    0.14310497628324325009E-01
    0.14278460422641230804E-01
    0.14266404159949978500E-01
    0.14241255308127519566E-01
    0.14241760828864094557E-01
    0.14223696072660512238E-01
    0.14227474385674348731E-01
    0.14250242566774687716E-01
    0.14261656609971007023E-01
    0.14264638956480921866E-01
    0.14261887908167675612E-01
    0.14363610932240970797E-01
    0.14364031105354500492E-01
    0.14405574971047132443E-01
    0.14398516596617861110E-01
    0.14352753450392073675E-01
    0.14337892116378899224E-01
    0.14300650260171084149E-01
    0.14298798418398683471E-01
    0.14271204866132170333E-01
    0.14274933189566036545E-01
    0.14307542664409209424E-01
    0.14321731836602118182E-01
    0.14329988507028216388E-01
    0.14327058044095744571E-01
    0.14311162510115183269E-01
    0.14298875227806852328E-01
    0.14316434544807243867E-01
    0.14305395592063060300E-01
    0.14277646718140061047E-01
    0.14261003632088539023E-01
    0.14241349558180049426E-01
    0.14249167143051707715E-01
    0.14238220794646091333E-01
    0.14248139860063444018E-01
    0.14269539294805040977E-01
    0.14289921621753401068E-01
    0.14275186572611887198E-01
    0.14269094232769407443E-01
    0.14344490489903735306E-01
    0.14338887892352800840E-01
    0.14370711143191786108E-01
    0.14360940404685610533E-01
    0.14321337195444549389E-01
    0.14303550669044743163E-01
    0.14273689010057915433E-01
    0.14277753122807806258E-01
    0.14257878077332435465E-01
    0.14265294415516497489E-01
    0.14293527013180274896E-01
    0.14311414241700581157E-01
    0.14308316391427097075E-01
    0.14303435841356576183E-01
    0.14447508575237980044E-01
    0.14428545177910522337E-01
    0.14458979593258480811E-01
    0.14441951290682829984E-01
    0.14395006744602605389E-01
    0.14367935156492355614E-01
    0.14333923844933786282E-01
    0.14346326677957882065E-01
    0.14327485125194116405E-01
    0.14343829012284974034E-01
    0.14379368862877035459E-01
    0.14412628118998124099E-01
    0.14389379419590335452E-01
    0.14379628863616980214E-01
    0.14510792856482426436E-01
    0.14504337431905335240E-01
    0.14562006251419460506E-01
    0.14547065073703010357E-01
    0.14477117460532666973E-01
    0.14447116446265190898E-01
    0.14393782702171330559E-01
    0.14399614441336189632E-01
    0.14364029405376361331E-01
    0.14375943636720369539E-01
    0.14424567071527951215E-01
    0.14453325316435821496E-01
    0.14451769869320526749E-01
    0.14444129626206595254E-01
    0.14424352800228643426E-01
    0.14421932391656873754E-01
    0.14472018782461779085E-01
    0.14460130940030636523E-01
    0.14402295914558377668E-01
    0.14379241947434982102E-01
    0.14334931294462043699E-01
    0.14337007120512151176E-01
    0.14305401349057259366E-01
    0.14312472322055349097E-01
    0.14353002490560057974E-01
    0.14373386059455177041E-01
    0.14378443135025122460E-01
    0.14373227289162043840E-01
    0.14555266915364102956E-01
    0.14552985025827096591E-01
    0.14625970758109401934E-01
    0.14609242996449072274E-01
    0.14526544938062935231E-01
    0.14495136035173203370E-01
    0.14431168515995383000E-01
    0.14432033068143569274E-01
    0.14385075906272259266E-01
    0.14393524411823932149E-01
    0.14452188138394876649E-01
    0.14479763484867553755E-01