# vtk DataFile Version 3.0
LAPLACIEN  2D
ASCII
DATASET UNSTRUCTURED_GRID
 POINTS        7297  float
   1.5625000000000000E-002  0.96875000000000000        0.0000000000000000     
   3.1250000000000000E-002  0.96875000000000000        0.0000000000000000     
   3.1250000000000000E-002  0.98437500000000000        0.0000000000000000     
   9.3749999999999997E-003  0.97812500000000002        0.0000000000000000     
   2.0312500000000001E-002  0.97968750000000004        0.0000000000000000     
   2.1874999999999999E-002  0.99062499999999998        0.0000000000000000     
   1.0937499999999999E-002  0.98906249999999996        0.0000000000000000     
   4.6875000000000000E-002  0.96875000000000000        0.0000000000000000     
   6.2500000000000000E-002  0.96875000000000000        0.0000000000000000     
   6.2500000000000000E-002  0.98437500000000000        0.0000000000000000     
   4.0625000000000001E-002  0.97812500000000002        0.0000000000000000     
   5.1562499999999997E-002  0.97968750000000004        0.0000000000000000     
   5.3124999999999999E-002  0.99062499999999998        0.0000000000000000     
   4.2187500000000003E-002  0.98906249999999996        0.0000000000000000     
   1.5625000000000000E-002  0.93750000000000000        0.0000000000000000     
   3.1250000000000000E-002  0.93750000000000000        0.0000000000000000     
   3.1250000000000000E-002  0.95312500000000000        0.0000000000000000     
   9.3749999999999997E-003  0.94687500000000002        0.0000000000000000     
   2.0312500000000001E-002  0.94843750000000004        0.0000000000000000     
   2.1874999999999999E-002  0.95937499999999998        0.0000000000000000     
   1.0937499999999999E-002  0.95781249999999996        0.0000000000000000     
   4.6875000000000000E-002  0.93750000000000000        0.0000000000000000     
   6.2500000000000000E-002  0.93750000000000000        0.0000000000000000     
   6.2500000000000000E-002  0.95312500000000000        0.0000000000000000     
   4.0625000000000001E-002  0.94687500000000002        0.0000000000000000     
   5.1562499999999997E-002  0.94843750000000004        0.0000000000000000     
   5.3124999999999999E-002  0.95937499999999998        0.0000000000000000     
   4.2187500000000003E-002  0.95781249999999996        0.0000000000000000     
   7.8125000000000000E-002  0.96875000000000000        0.0000000000000000     
   9.3750000000000000E-002  0.96875000000000000        0.0000000000000000     
   9.3750000000000000E-002  0.98437500000000000        0.0000000000000000     
   7.1874999999999994E-002  0.97812500000000002        0.0000000000000000     
   8.2812499999999997E-002  0.97968750000000004        0.0000000000000000     
   8.4375000000000006E-002  0.99062499999999998        0.0000000000000000     
   7.3437500000000003E-002  0.98906249999999996        0.0000000000000000     
  0.10937500000000000       0.96875000000000000        0.0000000000000000     
  0.12500000000000000       0.96875000000000000        0.0000000000000000     
  0.12500000000000000       0.98437500000000000        0.0000000000000000     
  0.10312499999999999       0.97812500000000002        0.0000000000000000     
  0.11406250000000000       0.97968750000000004        0.0000000000000000     
  0.11562500000000001       0.99062499999999998        0.0000000000000000     
  0.10468750000000000       0.98906249999999996        0.0000000000000000     
   7.8125000000000000E-002  0.93750000000000000        0.0000000000000000     
   9.3750000000000000E-002  0.93750000000000000        0.0000000000000000     
   9.3750000000000000E-002  0.95312500000000000        0.0000000000000000     
   7.1874999999999994E-002  0.94687500000000002        0.0000000000000000     
   8.2812499999999997E-002  0.94843750000000004        0.0000000000000000     
   8.4375000000000006E-002  0.95937499999999998        0.0000000000000000     
   7.3437500000000003E-002  0.95781249999999996        0.0000000000000000     
  0.10937500000000000       0.93750000000000000        0.0000000000000000     
  0.12500000000000000       0.93750000000000000        0.0000000000000000     
  0.12500000000000000       0.95312500000000000        0.0000000000000000     
  0.10312499999999999       0.94687500000000002        0.0000000000000000     
  0.11406250000000000       0.94843750000000004        0.0000000000000000     
  0.11562500000000001       0.95937499999999998        0.0000000000000000     
  0.10468750000000000       0.95781249999999996        0.0000000000000000     
   1.5625000000000000E-002  0.90625000000000000        0.0000000000000000     
   3.1250000000000000E-002  0.90625000000000000        0.0000000000000000     
   3.1250000000000000E-002  0.92187500000000000        0.0000000000000000     
   9.3749999999999997E-003  0.91562500000000002        0.0000000000000000     
   2.0312500000000001E-002  0.91718750000000004        0.0000000000000000     
   2.1874999999999999E-002  0.92812499999999998        0.0000000000000000     
   1.0937499999999999E-002  0.92656249999999996        0.0000000000000000     
   4.6875000000000000E-002  0.90625000000000000        0.0000000000000000     
   6.2500000000000000E-002  0.90625000000000000        0.0000000000000000     
   6.2500000000000000E-002  0.92187500000000000        0.0000000000000000     
   4.0625000000000001E-002  0.91562500000000002        0.0000000000000000     
   5.1562499999999997E-002  0.91718750000000004        0.0000000000000000     
   5.3124999999999999E-002  0.92812499999999998        0.0000000000000000     
   4.2187500000000003E-002  0.92656249999999996        0.0000000000000000     
   1.5625000000000000E-002  0.87500000000000000        0.0000000000000000     
   3.1250000000000000E-002  0.87500000000000000        0.0000000000000000     
   3.1250000000000000E-002  0.89062500000000000        0.0000000000000000     
   9.3749999999999997E-003  0.88437500000000002        0.0000000000000000     
   2.0312500000000001E-002  0.88593750000000004        0.0000000000000000     
   2.1874999999999999E-002  0.89687499999999998        0.0000000000000000     
   1.0937499999999999E-002  0.89531249999999996        0.0000000000000000     
   4.6875000000000000E-002  0.87500000000000000        0.0000000000000000     
   6.2500000000000000E-002  0.87500000000000000        0.0000000000000000     
   6.2500000000000000E-002  0.89062500000000000        0.0000000000000000     
   4.0625000000000001E-002  0.88437500000000002        0.0000000000000000     
   5.1562499999999997E-002  0.88593750000000004        0.0000000000000000     
   5.3124999999999999E-002  0.89687499999999998        0.0000000000000000     
   4.2187500000000003E-002  0.89531249999999996        0.0000000000000000     
   7.8125000000000000E-002  0.90625000000000000        0.0000000000000000     
   9.3750000000000000E-002  0.90625000000000000        0.0000000000000000     
   9.3750000000000000E-002  0.92187500000000000        0.0000000000000000     
   7.1874999999999994E-002  0.91562500000000002        0.0000000000000000     
   8.2812499999999997E-002  0.91718750000000004        0.0000000000000000     
   8.4375000000000006E-002  0.92812499999999998        0.0000000000000000     
   7.3437500000000003E-002  0.92656249999999996        0.0000000000000000     
  0.10937500000000000       0.90625000000000000        0.0000000000000000     
  0.12500000000000000       0.90625000000000000        0.0000000000000000     
  0.12500000000000000       0.92187500000000000        0.0000000000000000     
  0.10312499999999999       0.91562500000000002        0.0000000000000000     
  0.11406250000000000       0.91718750000000004        0.0000000000000000     
  0.11562500000000001       0.92812499999999998        0.0000000000000000     
  0.10468750000000000       0.92656249999999996        0.0000000000000000     
   7.8125000000000000E-002  0.87500000000000000        0.0000000000000000     
   9.3750000000000000E-002  0.87500000000000000        0.0000000000000000     
   9.3750000000000000E-002  0.89062500000000000        0.0000000000000000     
   7.1874999999999994E-002  0.88437500000000002        0.0000000000000000     
   8.2812499999999997E-002  0.88593750000000004        0.0000000000000000     
   8.4375000000000006E-002  0.89687499999999998        0.0000000000000000     
   7.3437500000000003E-002  0.89531249999999996        0.0000000000000000     
  0.10937500000000000       0.87500000000000000        0.0000000000000000     
  0.12500000000000000       0.87500000000000000        0.0000000000000000     
  0.12500000000000000       0.89062500000000000        0.0000000000000000     
  0.10312499999999999       0.88437500000000002        0.0000000000000000     
  0.11406250000000000       0.88593750000000004        0.0000000000000000     
  0.11562500000000001       0.89687499999999998        0.0000000000000000     
  0.10468750000000000       0.89531249999999996        0.0000000000000000     
  0.14062500000000000       0.96875000000000000        0.0000000000000000     
  0.15625000000000000       0.96875000000000000        0.0000000000000000     
  0.15625000000000000       0.98437500000000000        0.0000000000000000     
  0.13437499999999999       0.97812500000000002        0.0000000000000000     
  0.14531250000000001       0.97968750000000004        0.0000000000000000     
  0.14687500000000001       0.99062499999999998        0.0000000000000000     
  0.13593749999999999       0.98906249999999996        0.0000000000000000     
  0.17187500000000000       0.96875000000000000        0.0000000000000000     
  0.18750000000000000       0.96875000000000000        0.0000000000000000     
  0.18750000000000000       0.98437500000000000        0.0000000000000000     
  0.16562499999999999       0.97812500000000002        0.0000000000000000     
  0.17656250000000001       0.97968750000000004        0.0000000000000000     
  0.17812500000000001       0.99062499999999998        0.0000000000000000     
[...]
 CELL_DATA       14336
 SCALARS Nutrients float
 LOOKUP_TABLE default
    0.12071619912909677797E-04
    0.11978860572616878327E-04
    0.12652866391729106657E-04
    0.12652866390996158884E-04
    0.11978860571017600501E-04
    0.12071619909071180284E-04
    0.11533376678903827222E-04
    0.11218756330406822131E-04
    0.10878891973496991220E-04
    0.10878891973944260191E-04
    0.11218756332226569080E-04
    0.11533376683885095847E-04
    0.11483997561937849720E-04
    0.11483997561441235997E-04
    0.14274260735508810405E-04
    0.14860636671390695858E-04
    0.16458428911235210244E-04
    0.16894568125505103840E-04
    0.15698469695278708140E-04
    0.16275444817460076432E-04
    0.15018444939162707119E-04
    0.13977334002283608107E-04
    0.12879890858075794839E-04
    0.12477704945572674344E-04
    0.13170976190524038112E-04
    0.13082765932768877217E-04
    0.14156933697410472678E-04
    0.14396888565795567318E-04
    0.16275444827143353696E-04
    0.15698469701706715816E-04
    0.16894568129944467891E-04
    0.16458428914712592200E-04
    0.14860636674556015630E-04
    0.14274260736867595248E-04
    0.13082765934188399405E-04
    0.13170976193979629299E-04
    0.12477704949759986801E-04
    0.12879890863341727521E-04
    0.13977334009473899696E-04
    0.15018444950385216043E-04
    0.14396888571343927890E-04
    0.14156933701925495406E-04
    0.19236460335832637807E-04
    0.19495416617082031934E-04
    0.21992544087005076557E-04
    0.21992544087160629076E-04
    0.19495416616014353680E-04
    0.19236460332604232715E-04
    0.17023240705511664310E-04
    0.16395800673171248893E-04
    0.14749810666936261249E-04
    0.14749810667591180347E-04
    0.16395800674411291576E-04
    0.17023240708436123488E-04
    0.17752660367138913612E-04
    0.17752660366809953121E-04
    0.20162161170674229989E-04
    0.21738806794887368659E-04
    0.24840350186111329501E-04
    0.25983941496634010212E-04
    0.23926847886997596062E-04
    0.25304117565805063088E-04
    0.22860696788553587836E-04
    0.20594969595718543232E-04
    0.18251831311228963246E-04
    0.17251005043281230462E-04
    0.18516332594467937777E-04
    0.17915679786853249740E-04
    0.20647674658974876351E-04
    0.21273423156298532566E-04
    0.31895625536024643060E-04
    0.35059425794868010026E-04
    0.40525181757701143545E-04
    0.42723311279687665044E-04
    0.39259433700534928833E-04
    0.41792977765571161133E-04
    0.37486582901072672107E-04
    0.33395580957356882422E-04
    0.29134620675904917745E-04
    0.27199989755295372922E-04
    0.29400989527219535728E-04
    0.27967232769537489251E-04
    0.33329189965751868021E-04
    0.34529211288752892828E-04
    0.26979019486449251999E-04
    0.28215794232714369328E-04
    0.32595327329868975129E-04
    0.33167371709048580771E-04
    0.29266467125583881133E-04
    0.29470136257830895950E-04
    0.25637560789925935691E-04
    0.23959121223181136602E-04
    0.20824356753567052321E-04
    0.20358257298971436114E-04
    0.22988336711733426836E-04
    0.23287850144688508863E-04
    0.25686040151316063429E-04
    0.25980599124515402302E-04
    0.41616476919008309622E-04
    0.44440445737562190979E-04
    0.51968128247057499339E-04
    0.53486050251195168550E-04
    0.47236541816236407782E-04
    0.48175237033169844461E-04
    0.41717974763016614796E-04
    0.38355406955652513866E-04
    0.32840166101301255749E-04
    0.31610098839246280429E-04
    0.35781305750191713883E-04
    0.35574310241354086285E-04
    0.40636360129892421151E-04
    0.41421513709632472116E-04
    0.25304117584968380532E-04
    0.23926847902592922741E-04
    0.25983941511630247428E-04
    0.24840350198552197064E-04
    0.21738806805071435519E-04
    0.20162161177150728607E-04
    0.17915679791215279683E-04
    0.18516332603318879811E-04
    0.17251005053470850470E-04
    0.18251831323176312145E-04
    0.20594969610915262983E-04
    0.22860696809842669986E-04
    0.21273423169515878620E-04
    0.20647674670474405707E-04
    0.29470136270278668526E-04
    0.29266467136430459895E-04
    0.33167371721495763812E-04
    0.32595327341036006783E-04
    0.28215794239320968819E-04
    0.26979019488313178492E-04
    0.23287850143893558277E-04
    0.22988336715224750955E-04
    0.20358257303192184350E-04
    0.20824356759613007480E-04
    0.23959121231576608691E-04
    0.25637560801394456865E-04
    0.25980599132459768360E-04
    0.25686040157951360395E-04
    0.41792977821059191753E-04
    0.39259433747798784531E-04
    0.42723311329505867179E-04
    0.40525181801288090206E-04
    0.35059425828688504175E-04
    0.31895625560002614362E-04
    0.27967232786482847535E-04
    0.29400989552261939453E-04
    0.27199989778827740518E-04
    0.29134620705155333717E-04
    0.33395580997341025263E-04
    0.37486582955623931721E-04
    0.34529211326957297474E-04
    0.33329189999869935008E-04
    0.48175237084370411142E-04
    0.47236541863386429028E-04
    0.53486050307249572832E-04
    0.51968128298820089322E-04
    0.44440445773785765033E-04
    0.41616476942906131277E-04
    0.35574310255678395982E-04
    0.35781305772159825078E-04
    0.31610098857156717560E-04
    0.32840166125082010675E-04
    0.38355406989586578192E-04
    0.41717974805953663569E-04
    0.41421513745809195083E-04
    0.40636360162723059045E-04
    0.40318388865616135825E-04
    0.41300736220325461056E-04
    0.47825222081944126530E-04
    0.47825222079421452349E-04
    0.41300736216238669387E-04
    0.40318388856473661992E-04
    0.34384119921581625075E-04
    0.33018232349303664288E-04
    0.28468304267859540396E-04
    0.28468304269181399685E-04
    0.33018232353902483985E-04
    0.34384119933578064616E-04
    0.36783329163244685644E-04
    0.36783329161974915493E-04
    0.60489187772105647300E-04
    0.63339478262245031302E-04
    0.74316137960432640205E-04
    0.75298710106873310041E-04
    0.65053236599369506569E-04
    0.64443726970635944237E-04
    0.54622247093806197368E-04
    0.51497077344109441180E-04
    0.43736054491875526052E-04
    0.43064160847394573439E-04
    0.50019773838267909147E-04
    0.51090843336978383337E-04
    0.56663256621343860810E-04
    0.57130339045207413043E-04
    0.64443727031953079417E-04
    0.65053236651963638961E-04
    0.75298710167080655877E-04
    0.74316138009892195038E-04
    0.63339478295799936576E-04
    0.60489187790346108796E-04
    0.51090843342401738786E-04
    0.50019773856752214488E-04
    0.43064160863099723022E-04
    0.43736054515855855493E-04
    0.51497077382756640770E-04
    0.54622247149395228196E-04
    0.57130339083601790239E-04
    0.56663256654034440112E-04
    0.94101228421873469730E-04
    0.96873427754666044409E-04
    0.11350094779198913262E-03
    0.11350094778137049720E-03
    0.96873427734845717388E-04
    0.94101228376607148115E-04
    0.79027219236244055029E-04
    0.75812225075562718964E-04
    0.64322448782002864106E-04
    0.64322448791304979933E-04
    0.75812225095666781693E-04
    0.79027219284670243218E-04
    0.85440565980320372082E-04
    0.85440565974568760872E-04
    0.52895875084583362797E-04
    0.58562083162423669912E-04
    0.68006049271844890404E-04
    0.71926323423405829835E-04
    0.66024383403947835107E-04
    0.70482115449499617562E-04
    0.63070249053461167562E-04
    0.55942103629300115241E-04
    0.48545272996781163350E-04
    0.45131347242725959167E-04
    0.48874060134074830055E-04
    0.46215756710684683447E-04
    0.55703575990723133325E-04
    0.57830210342242701520E-04
    0.89550636023425314071E-04
    0.99424026222775296131E-04
    0.11580522713851485839E-03
    0.12254661553110567465E-03
    0.11227845188474353010E-03
    0.11984068197102139362E-03
    0.10712022565912615514E-03
    0.94888958300665929464E-04
    0.82138056879257602687E-04
    0.76246454411609186044E-04
    0.82676644388193418472E-04
    0.78006698501359222550E-04
    0.94487962608742125060E-04
    0.98159381156748273735E-04
    0.67889857036285499955E-04
    0.73394071655643179468E-04
    0.86423872797817928582E-04
    0.89531917279384780426E-04
    0.79042267458421857913E-04
    0.81066120119414373873E-04
    0.69961106079089864875E-04
    0.63889889474950017955E-04
    0.54370430044106326042E-04
    0.51963877132245894796E-04
    0.58785953646567489926E-04
    0.57777977994961483377E-04
    0.67296581235363564532E-04
    0.68870118234862340214E-04
    0.11448034244476617606E-03
    0.12459490339365023102E-03
    0.14740141991009182601E-03
    0.15310533438747770080E-03
    0.13487987220184340380E-03
    0.13848585731230243410E-03
    0.11920320496165329833E-03
    0.10855990819507649119E-03
    0.92044262291729529485E-04
    0.87705001131280861388E-04
    0.99326368651140109229E-04
    0.97115680777612581115E-04
    0.11422088723038323821E-03
    0.11707739700545967962E-03
    0.15298432913519625443E-03
    0.16971949376051379118E-03
    0.19781358018711647437E-03
    0.20886249619297067039E-03
    0.19101944488405001813E-03
    0.20333749678724257707E-03
    0.18188704656403123787E-03
    0.16133254762656131908E-03
    0.13970903787973039910E-03
    0.12970362619405356145E-03
    0.14082582203463192756E-03
    0.13300526207613434489E-03
    0.16097088980370776487E-03
    0.16709308624853337448E-03
    0.26098091075951165623E-03
    0.28813889246079651962E-03
    0.33555263093875445065E-03
    0.35255567357578418072E-03
    0.32171926612241949842E-03
    0.34069029948359053420E-03
    0.30554277673676779638E-03
    0.27207824904129467285E-03
    0.23624770759336216207E-03
    0.21979753382832001871E-03
    0.23888909763990397042E-03
    0.22651242192883903762E-03
    0.27247264892847047803E-03
    0.28225098280777239680E-03
    0.19700378988874096050E-03
    0.21483650979147887522E-03
    0.25511994260447943671E-03
    0.26477693335156946746E-03
    0.23223460613984380180E-03
    0.23761370066374232039E-03
    0.20401090505640286240E-03
    0.18606488229477684271E-03
    0.15741567521287052949E-03
    0.15001348162575419993E-03
    0.17036429321126215206E-03
    0.16647206084272758589E-03
    0.19641263479734316568E-03
    0.20126067756775055796E-03
    0.34244355622744111463E-03
    0.37243514974956274700E-03
    0.44333721703416535285E-03
    0.45804825512399909146E-03
    0.39932687547481404092E-03
    0.40539598226346313043E-03
    0.34719178608945807036E-03
    0.31840354348219911205E-03
    0.26920967249830120424E-03
    0.25734829168896249715E-03
    0.29364185870443782703E-03
    0.28811923817533371429E-03
    0.33865307381490168540E-03
    0.34621820876394983693E-03
    0.96451964527530126303E-04
    0.10256977489610279641E-03
    0.12131179050653398866E-03
    0.12406753800059028866E-03
    0.10727630678174297470E-03
    0.10733346036433559837E-03
    0.90632539457343212156E-04
    0.84454908288231209166E-04
    0.71131341152315470298E-04
    0.69341390755209004852E-04
    0.80493252326963864889E-04
    0.81102327115118843376E-04
    0.92114287890137109952E-04
    0.93380749338331392614E-04
    0.16037274038134741909E-03
    0.17252858453577031767E-03
    0.20543765019996512223E-03
    0.21149883633123098075E-03
    0.18268284757957728025E-03
    0.18373807966257695847E-03
    0.15455291129499179950E-03
    0.14309020155824666957E-03
    0.11978275624904006070E-03
    0.11604395479197806532E-03
    0.13471174084372583503E-03
    0.13440587179364507121E-03
    0.15530854345134837346E-03
    0.15802086065284343488E-03
    0.14546310237972871781E-03
    0.15233604584457231942E-03
    0.17987977089756133887E-03
    0.18202544876687342702E-03
    0.15585780853013251647E-03
    0.15353956955586637255E-03
    0.12852954631314918079E-03
    0.12150613154788704310E-03
    0.10213211738212510144E-03
    0.10088944137627244750E-03
    0.11866998834992739740E-03
    0.12171229586766293257E-03
    0.13522745044384959002E-03
    0.13615733699676857557E-03
    0.23518061254235893883E-03
    0.25027361259549388414E-03
    0.29764014678245343665E-03
    0.30455421143159988736E-03
    0.26133138730946472821E-03
    0.26039892581330873009E-03
    0.21717315076072839382E-03
    0.20288353573530353382E-03
    0.16928278253029710844E-03
    0.16561873201865538025E-03
    0.19429722213760563252E-03
    0.19647865683478300033E-03
    0.22342759657290761112E-03
    0.22630275826470558484E-03
    0.27573158116560330571E-03
    0.29885578484919409631E-03
    0.35800618977055806034E-03
    0.36965797060193607802E-03
    0.31813398277867843645E-03
    0.32003413414566622003E-03
    0.26798648416302212538E-03
    0.24758580907546822499E-03
    0.20625781640561962238E-03
    0.19928070512408222717E-03
    0.23183897925443367090E-03
    0.23013739287083671576E-03
    0.26874991975094254673E-03
    0.27387742503876829443E-03
    0.48589214565912438584E-03
    0.52794397104601400745E-03
    0.63563616070881124621E-03
    0.65555923948086645536E-03
    0.56073887380273163862E-03
    0.56113793048697757984E-03
    0.46750639781392060515E-03
    0.43311461929167546390E-03
    0.35947059991733783810E-03
    0.34768346752692391157E-03
    0.40644317570653388811E-03
    0.40345491785807315955E-03
    0.47279666329732097669E-03
    0.48150446222755761061E-03
    0.39717786274804360190E-03
    0.42881435964595734749E-03
    0.51399629547073258720E-03
    0.53036652388782157611E-03
    0.45469328147065965137E-03
    0.45603561828924936861E-03
    0.37845168399235383028E-03
    0.35082868965586125071E-03
    0.29064400961174662432E-03
    0.28236070246117305187E-03
    0.33108667225158531187E-03
    0.33085339996173044079E-03
    0.38404404350855786540E-03
    0.39072473749336683992E-03
    0.69874788843042297606E-03
    0.76179402658882303979E-03
    0.91994322189335904494E-03
    0.95307652212477176994E-03
    0.81366118272555400855E-03
    0.81638762159274257113E-03
    0.67354769625548201444E-03
    0.62272617348544940900E-03
    0.51264906395247027658E-03
    0.49644226423387115364E-03
    0.58369643272495046627E-03
    0.57934849911275745470E-03
    0.68175335534953029459E-03
    0.69506962606356251927E-03
    0.70482115589217675107E-04
    0.66024383526831228021E-04
    0.71926323555723814529E-04
    0.68006049390676660458E-04
    0.58562083257722316815E-04
    0.52895875158818475483E-04
    0.46215756767290641703E-04
    0.48874060206137574282E-04
    0.45131347308722334741E-04
    0.48545273075292626902E-04
    0.55942103732001498067E-04
    0.63070249186160235767E-04
    0.57830210443728503975E-04
    0.55703576083715045238E-04
    0.81066120262286633035E-04
    0.79042267594448383243E-04
    0.89531917439951151281E-04
    0.86423872949767304515E-04
    0.73394071769858660616E-04
    0.67889857125545913252E-04
    0.57777978058397766242E-04
    0.58785953723565779940E-04
    0.51963877195814626509E-04
    0.54370430119826090973E-04
    0.63889889575590949090E-04
    0.69961106199356522294E-04
    0.68870118344171223773E-04
    0.67296581337976036003E-04
    0.11984068228324116676E-03
    0.11227845216487251814E-03
    0.12254661583539609455E-03
    0.11580522741588051324E-03
    0.99424026450167741825E-04
    0.89550636209759362305E-04
    0.78006698648860943674E-04
    0.82676644564518586588E-04
    0.76246454572867250780E-04
    0.82138057065438900388E-04
    0.94888958535738050196E-04
    0.10712022595203909297E-03
    0.98159381392426829399E-04
    0.94487962827923853491E-04
    0.13848585764777179797E-03
    0.13487987252759525334E-03
    0.15310533476964148384E-03
    0.14740142027772987492E-03
    0.12459490367895908981E-03
    0.11448034268258834849E-03
    0.97115680956752527806E-04
    0.99326368852563419226E-04
    0.87705001300205821129E-04
    0.92044262482794832712E-04
    0.10855990844022366903E-03
    0.11920320524585556617E-03
    0.11707739727324896972E-03
    0.11422088748602978923E-03
    0.10733346055241571354E-03
    0.10727630695719424876E-03
    0.12406753820574996264E-03
    0.12131179069311260580E-03
    0.10256977503669931521E-03
    0.96451964636494382649E-04
    0.81102327187209383836E-04
    0.80493252420054547621E-04
    0.69341390832581520798E-04
    0.71131341244880396291E-04
    0.84454908417924679214E-04
    0.90632539619902360156E-04
    0.93380749476846595610E-04
    0.92114288018363288542E-04
    0.15353956977043632507E-03
    0.15585780870562305220E-03
    0.18202544895844281650E-03
    0.17987977104841638889E-03
    0.15233604595129906709E-03
    0.14546310243370924663E-03
    0.12171229589162301454E-03
    0.11866998841892499367E-03
    0.10088944144403586933E-03
    0.10213211748265650105E-03
    0.12150613168699156419E-03
    0.12852954650539218508E-03
    0.13615733712841983014E-03
    0.13522745055492070869E-03
    0.18373808012362623449E-03
    0.18268284802256377517E-03
    0.21149883685499978035E-03
    0.20543765068751229934E-03
    0.17252858491901510449E-03
    0.16037274070292853261E-03
    0.13440587202879052467E-03
    0.13471174111100552300E-03
    0.11604395501417635590E-03
    0.11978275649826741658E-03
    0.14309020188950548010E-03
    0.15455291168726303019E-03
    0.15802086101471011300E-03
    0.15530854379478846645E-03
    0.26039892640305535186E-03
    0.26133138784514657865E-03
    0.30455421203658984957E-03
    0.29764014732478068746E-03
    0.25027361301263568267E-03
    0.23518061286287140848E-03
    0.19647865706089970598E-03
    0.19429722243423036359E-03
    0.16561873228086430886E-03
    0.16928278284961958489E-03
    0.20288353615026527284E-03
    0.21717315127479361108E-03
    0.22630275869388834296E-03
    0.22342759696768345725E-03
    0.20333749743420178853E-03
    0.19101944547341399784E-03
    0.20886249683398333109E-03
    0.19781358078156425096E-03
    0.16971949425203535530E-03
    0.15298432955075565989E-03
    0.13300526241110608707E-03
    0.14082582242166423914E-03
    0.12970362654805454253E-03
    0.13970903828117441385E-03
    0.16133254812238719293E-03
    0.18188704716760943332E-03
    0.16709308674959383063E-03
    0.16097089027452510615E-03
    0.23761370138472914858E-03
    0.23223460684564510462E-03
    0.26477693418282624311E-03
    0.25511994340472298869E-03
    0.21483651042728796180E-03
    0.19700379043494052069E-03
    0.16647206126639449257E-03
    0.17036429367035498526E-03
    0.15001348201392045146E-03
    0.15741567563942542550E-03
    0.18606488283234634334E-03
    0.20401090566640338363E-03
    0.20126067815734547273E-03
    0.19641263536500461629E-03
    0.34069030074389532875E-03
    0.32171926729608401685E-03
    0.35255567487198371081E-03
    0.33555263214096709649E-03
    0.28813889346202339881E-03
    0.26098091161996724322E-03
    0.22651242263279299546E-03
    0.23888909843342872154E-03
    0.21979753455399889442E-03
    0.23624770840533482999E-03
    0.27207825002733919796E-03
    0.30554277791305949931E-03
    0.28225098381306687727E-03
    0.27247264988022580840E-03
    0.40539598370714651941E-03
    0.39932687691845644706E-03
    0.45804825683560266084E-03
    0.44333721868755160238E-03
    0.37243515107300713927E-03
    0.34244355738994165751E-03
    0.28811923908557450979E-03
    0.29364185967298327487E-03
    0.25734829250767803522E-03
    0.26920967338710087178E-03
    0.31840354458625042423E-03
    0.34719178732436326061E-03
    0.34621820998024897950E-03
    0.33865307499389988221E-03
    0.32003413515667075966E-03
    0.31813398377158303397E-03
    0.36965797177377572157E-03
    0.35800619088707786013E-03
    0.29885578573809112521E-03
    0.27573158194218907839E-03
    0.23013739345598306770E-03
    0.23183897989017155251E-03
    0.19928070565222147283E-03
    0.20625781698276570071E-03
    0.24758580982112339021E-03
    0.26798648502274376171E-03
    0.27387742586196505692E-03
    0.26874992054292138818E-03
    0.45603561966592114866E-03
    0.45469328276623842151E-03
    0.53036652538271519472E-03
    0.51399629684763367601E-03
    0.42881436074250419170E-03
    0.39717786366040807840E-03
    0.33085340065354271665E-03
    0.33108667304884009793E-03
    0.28236070315349918536E-03
    0.29064401039704889458E-03
    0.35082869065650531702E-03
    0.37845168517077983940E-03