# vtk DataFile Version 3.0
LAPLACIEN  2D
ASCII
DATASET UNSTRUCTURED_GRID
FIELD FieldData 1
TIME 1 1 double
6.3000
 POINTS        7297  float
   1.5625000000000000E-002  0.96875000000000000        0.0000000000000000     
   3.1250000000000000E-002  0.96875000000000000        0.0000000000000000     
   3.1250000000000000E-002  0.98437500000000000        0.0000000000000000     
   9.3749999999999997E-003  0.97812500000000002        0.0000000000000000     
   2.0312500000000001E-002  0.97968750000000004        0.0000000000000000     
   2.1874999999999999E-002  0.99062499999999998        0.0000000000000000     
   1.0937499999999999E-002  0.98906249999999996        0.0000000000000000     
   4.6875000000000000E-002  0.96875000000000000        0.0000000000000000     
   6.2500000000000000E-002  0.96875000000000000        0.0000000000000000     
   6.2500000000000000E-002  0.98437500000000000        0.0000000000000000     
   4.0625000000000001E-002  0.97812500000000002        0.0000000000000000     
   5.1562499999999997E-002  0.97968750000000004        0.0000000000000000     
   5.3124999999999999E-002  0.99062499999999998        0.0000000000000000     
   4.2187500000000003E-002  0.98906249999999996        0.0000000000000000     
   1.5625000000000000E-002  0.93750000000000000        0.0000000000000000     
   3.1250000000000000E-002  0.93750000000000000        0.0000000000000000     
   3.1250000000000000E-002  0.95312500000000000        0.0000000000000000     
   9.3749999999999997E-003  0.94687500000000002        0.0000000000000000     
   2.0312500000000001E-002  0.94843750000000004        0.0000000000000000     
   2.1874999999999999E-002  0.95937499999999998        0.0000000000000000     
   1.0937499999999999E-002  0.95781249999999996        0.0000000000000000     
   4.6875000000000000E-002  0.93750000000000000        0.0000000000000000     
   6.2500000000000000E-002  0.93750000000000000        0.0000000000000000     
   6.2500000000000000E-002  0.95312500000000000        0.0000000000000000     
   4.0625000000000001E-002  0.94687500000000002        0.0000000000000000     
   5.1562499999999997E-002  0.94843750000000004        0.0000000000000000     
   5.3124999999999999E-002  0.95937499999999998        0.0000000000000000     
   4.2187500000000003E-002  0.95781249999999996        0.0000000000000000     
   7.8125000000000000E-002  0.96875000000000000        0.0000000000000000     
   9.3750000000000000E-002  0.96875000000000000        0.0000000000000000     
   9.3750000000000000E-002  0.98437500000000000        0.0000000000000000     
   7.1874999999999994E-002  0.97812500000000002        0.0000000000000000     
   8.2812499999999997E-002  0.97968750000000004        0.0000000000000000     
   8.4375000000000006E-002  0.99062499999999998        0.0000000000000000     
   7.3437500000000003E-002  0.98906249999999996        0.0000000000000000     
  0.10937500000000000       0.96875000000000000        0.0000000000000000     
  0.12500000000000000       0.96875000000000000        0.0000000000000000     
  0.12500000000000000       0.98437500000000000        0.0000000000000000     
  0.10312499999999999       0.97812500000000002        0.0000000000000000     
  0.11406250000000000       0.97968750000000004        0.0000000000000000     
  0.11562500000000001       0.99062499999999998        0.0000000000000000     
  0.10468750000000000       0.98906249999999996        0.0000000000000000     
   7.8125000000000000E-002  0.93750000000000000        0.0000000000000000     
   9.3750000000000000E-002  0.93750000000000000        0.0000000000000000     
   9.3750000000000000E-002  0.95312500000000000        0.0000000000000000     
   7.1874999999999994E-002  0.94687500000000002        0.0000000000000000     
   8.2812499999999997E-002  0.94843750000000004        0.0000000000000000     
   8.4375000000000006E-002  0.95937499999999998        0.0000000000000000     
   7.3437500000000003E-002  0.95781249999999996        0.0000000000000000     
  0.10937500000000000       0.93750000000000000        0.0000000000000000     
  0.12500000000000000       0.93750000000000000        0.0000000000000000     
  0.12500000000000000       0.95312500000000000        0.0000000000000000     
  0.10312499999999999       0.94687500000000002        0.0000000000000000     
  0.11406250000000000       0.94843750000000004        0.0000000000000000     
  0.11562500000000001       0.95937499999999998        0.0000000000000000     
  0.10468750000000000       0.95781249999999996        0.0000000000000000     
   1.5625000000000000E-002  0.90625000000000000        0.0000000000000000     
   3.1250000000000000E-002  0.90625000000000000        0.0000000000000000     
   3.1250000000000000E-002  0.92187500000000000        0.0000000000000000     
   9.3749999999999997E-003  0.91562500000000002        0.0000000000000000     
   2.0312500000000001E-002  0.91718750000000004        0.0000000000000000     
   2.1874999999999999E-002  0.92812499999999998        0.0000000000000000     
   1.0937499999999999E-002  0.92656249999999996        0.0000000000000000     
   4.6875000000000000E-002  0.90625000000000000        0.0000000000000000     
   6.2500000000000000E-002  0.90625000000000000        0.0000000000000000     
   6.2500000000000000E-002  0.92187500000000000        0.0000000000000000     
   4.0625000000000001E-002  0.91562500000000002        0.0000000000000000     
   5.1562499999999997E-002  0.91718750000000004        0.0000000000000000     
   5.3124999999999999E-002  0.92812499999999998        0.0000000000000000     
   4.2187500000000003E-002  0.92656249999999996        0.0000000000000000     
   1.5625000000000000E-002  0.87500000000000000        0.0000000000000000     
   3.1250000000000000E-002  0.87500000000000000        0.0000000000000000     
   3.1250000000000000E-002  0.89062500000000000        0.0000000000000000     
   9.3749999999999997E-003  0.88437500000000002        0.0000000000000000     
   2.0312500000000001E-002  0.88593750000000004        0.0000000000000000     
   2.1874999999999999E-002  0.89687499999999998        0.0000000000000000     
   1.0937499999999999E-002  0.89531249999999996        0.0000000000000000     
   4.6875000000000000E-002  0.87500000000000000        0.0000000000000000     
   6.2500000000000000E-002  0.87500000000000000        0.0000000000000000     
   6.2500000000000000E-002  0.89062500000000000        0.0000000000000000     
   4.0625000000000001E-002  0.88437500000000002        0.0000000000000000     
   5.1562499999999997E-002  0.88593750000000004        0.0000000000000000     
   5.3124999999999999E-002  0.89687499999999998        0.0000000000000000     
   4.2187500000000003E-002  0.89531249999999996        0.0000000000000000     
   7.8125000000000000E-002  0.90625000000000000        0.0000000000000000     
   9.3750000000000000E-002  0.90625000000000000        0.0000000000000000     
   9.3750000000000000E-002  0.92187500000000000        0.0000000000000000     
   7.1874999999999994E-002  0.91562500000000002        0.0000000000000000     
   8.2812499999999997E-002  0.91718750000000004        0.0000000000000000     
   8.4375000000000006E-002  0.92812499999999998        0.0000000000000000     
   7.3437500000000003E-002  0.92656249999999996        0.0000000000000000     
  0.10937500000000000       0.90625000000000000        0.0000000000000000     
  0.12500000000000000       0.90625000000000000        0.0000000000000000     
  0.12500000000000000       0.92187500000000000        0.0000000000000000     
  0.10312499999999999       0.91562500000000002        0.0000000000000000     
  0.11406250000000000       0.91718750000000004        0.0000000000000000     
  0.11562500000000001       0.92812499999999998        0.0000000000000000     
  0.10468750000000000       0.92656249999999996        0.0000000000000000     
   7.8125000000000000E-002  0.87500000000000000        0.0000000000000000     
   9.3750000000000000E-002  0.87500000000000000        0.0000000000000000     
   9.3750000000000000E-002  0.89062500000000000        0.0000000000000000     
   7.1874999999999994E-002  0.88437500000000002        0.0000000000000000     
   8.2812499999999997E-002  0.88593750000000004        0.0000000000000000     
   8.4375000000000006E-002  0.89687499999999998        0.0000000000000000     
   7.3437500000000003E-002  0.89531249999999996        0.0000000000000000     
  0.10937500000000000       0.87500000000000000        0.0000000000000000     
  0.12500000000000000       0.87500000000000000        0.0000000000000000     
  0.12500000000000000       0.89062500000000000        0.0000000000000000     
  0.10312499999999999       0.88437500000000002        0.0000000000000000     
  0.11406250000000000       0.88593750000000004        0.0000000000000000     
  0.11562500000000001       0.89687499999999998        0.0000000000000000     
  0.10468750000000000       0.89531249999999996        0.0000000000000000     
  0.14062500000000000       0.96875000000000000        0.0000000000000000     
  0.15625000000000000       0.96875000000000000        0.0000000000000000     
  0.15625000000000000       0.98437500000000000        0.0000000000000000     
  0.13437499999999999       0.97812500000000002        0.0000000000000000     
  0.14531250000000001       0.97968750000000004        0.0000000000000000     
  0.14687500000000001       0.99062499999999998        0.0000000000000000     
  0.13593749999999999       0.98906249999999996        0.0000000000000000     
  0.17187500000000000       0.96875000000000000        0.0000000000000000     
  0.18750000000000000       0.96875000000000000        0.0000000000000000     
  0.18750000000000000       0.98437500000000000        0.0000000000000000     
  0.16562499999999999       0.97812500000000002        0.0000000000000000     
  0.17656250000000001       0.97968750000000004        0.0000000000000000     
[...]
 CELL_DATA       14336
 SCALARS Nutrient float
 LOOKUP_TABLE default
    0.38118353769824773157E-02
    0.38117489652101325254E-02
    0.38124011377720134000E-02
    0.38124011377217311390E-02
    0.38117489654086629536E-02
    0.38118353768065538038E-02
    0.38113163382428672313E-02
    0.38110113014864373769E-02
    0.38106815392811009026E-02
    0.38106815381354912538E-02
    0.38110113020773995519E-02
    0.38113163380005359027E-02
    0.38112687637258026857E-02
    0.38112687635391963130E-02
    0.38139728442088084368E-02
    0.38145425166871463861E-02
    0.38160901484434210304E-02
    0.38165176167779799911E-02
    0.38153578063814413447E-02
    0.38159151647768575419E-02
    0.38146982125809815109E-02
    0.38136865842076212406E-02
    0.38126202643227135279E-02
    0.38122341494045332982E-02
    0.38129029294102631184E-02
    0.38128192220676032989E-02
    0.38138612733467952727E-02
    0.38140920196914878532E-02
    0.38159151648173841517E-02
    0.38153578063579423468E-02
    0.38165176167971014143E-02
    0.38160901484351810939E-02
    0.38145425167397202168E-02
    0.38139728441491617048E-02
    0.38128192221913550022E-02
    0.38129029292943610388E-02
    0.38122341495619117488E-02
    0.38126202641804679376E-02
    0.38136865842904256636E-02
    0.38146982125646742429E-02
    0.38140920197349955853E-02
    0.38138612733333967023E-02
    0.38187840920949106711E-02
    0.38190329460570235018E-02
    0.38214509433327791856E-02
    0.38214509433274960852E-02
    0.38190329460687805901E-02
    0.38187840920738706438E-02
    0.38166399870954562969E-02
    0.38160292962079859526E-02
    0.38144346104824959458E-02
    0.38144346104233245280E-02
    0.38160292962473264453E-02
    0.38166399870747723215E-02
    0.38173442810379787718E-02
    0.38173442810267512078E-02
    0.38196893915098495235E-02
    0.38212292209080199468E-02
    0.38242457030356817420E-02
    0.38253688738287008018E-02
    0.38233732801903324433E-02
    0.38247237159690764853E-02
    0.38223408225604277831E-02
    0.38201292304181682855E-02
    0.38178427403085823423E-02
    0.38168741242961832030E-02
    0.38180964764439433157E-02
    0.38175093920251668492E-02
    0.38201754106618316699E-02
    0.38207841697169317267E-02
    0.38311206537002032678E-02
    0.38342233070497639714E-02
    0.38395518824016002142E-02
    0.38417174025651306714E-02
    0.38383535356204495463E-02
    0.38408484730580536720E-02
    0.38366372449400174341E-02
    0.38326323836316523661E-02
    0.38284685209523288199E-02
    0.38265764774856976180E-02
    0.38287160323889901647E-02
    0.38273031636030822519E-02
    0.38325522135301704624E-02
    0.38337302195226982335E-02
    0.38262778095978257353E-02
    0.38274808723625015384E-02
    0.38317211910058957339E-02
    0.38322863966964229587E-02
    0.38285165707292773303E-02
    0.38287325147381297795E-02
    0.38250143867747106279E-02
    0.38233729953739783482E-02
    0.38203304482986263392E-02
    0.38198727480979431659E-02
    0.38224201433003160422E-02
    0.38227055148076648401E-02
    0.38250365222970822941E-02
    0.38253270163464145673E-02
    0.38404652980220197606E-02
    0.38432325467972062831E-02
    0.38505307021071220192E-02
    0.38520397472119995499E-02
    0.38460062275077811812E-02
    0.38469685293580435995E-02
    0.38406950761894270360E-02
    0.38373930860116358885E-02
    0.38320291128820702618E-02
    0.38308154222795004311E-02
    0.38348496866032412596E-02
    0.38346233758698991187E-02
    0.38395697037293778642E-02
    0.38403472056448501384E-02
    0.38247237160072356313E-02
    0.38233732802120468444E-02
    0.38253688738579920414E-02
    0.38242457030561688262E-02
    0.38212292209363393075E-02
    0.38196893915085931501E-02
    0.38175093920607525329E-02
    0.38180964764381710233E-02
    0.38168741243374848006E-02
    0.38178427403059104345E-02
    0.38201292304539374162E-02
    0.38223408225884322915E-02
    0.38207841697450229713E-02
    0.38201754106803311947E-02
    0.38287325147648397505E-02
    0.38285165707453759978E-02
    0.38322863967185549945E-02
    0.38317211910218677666E-02
    0.38274808723778286877E-02
    0.38262778095967371964E-02
    0.38227055148180636400E-02
    0.38224201432972798424E-02
    0.38198727481213341772E-02
    0.38203304482987828980E-02
    0.38233729953969799141E-02
    0.38250143867909298587E-02
    0.38253270163644166602E-02
    0.38250365223076177035E-02
    0.38408484731385300961E-02
    0.38383535356884329257E-02
    0.38417174026380675536E-02
    0.38395518824651973452E-02
    0.38342233071035768284E-02
    0.38311206537365144996E-02
    0.38273031636382654798E-02
    0.38287160324266115465E-02
    0.38265764775264302262E-02
    0.38284685209950680695E-02
    0.38326323836922904925E-02
    0.38366372450153109382E-02
    0.38337302195814043117E-02
    0.38325522135815612117E-02
    0.38469685294314844189E-02
    0.38460062275727062431E-02
    0.38520397472870068246E-02
    0.38505307021740910189E-02
    0.38432325468482197300E-02
    0.38404652980550527987E-02
    0.38346233758964863580E-02
    0.38348496866351892282E-02
    0.38308154223133032527E-02
    0.38320291129182483536E-02
    0.38373930860636979757E-02
    0.38406950762513397506E-02
    0.38403472056978606858E-02
    0.38395697037767809179E-02
    0.38391753862233070349E-02
    0.38401102074358114610E-02
    0.38463985595012608644E-02
    0.38463985594967978546E-02
    0.38401102074305838718E-02
    0.38391753862070604822E-02
    0.38334437601577247071E-02
    0.38321155958102649276E-02
    0.38277168631413341186E-02
    0.38277168631389293582E-02
    0.38321155958201394073E-02
    0.38334437601724893722E-02
    0.38357489214783050541E-02
    0.38357489214754852611E-02
    0.38586038507245506470E-02
    0.38613714989326843909E-02
    0.38719566162378352484E-02
    0.38729424928214684076E-02
    0.38630886314590761992E-02
    0.38625642233921530545E-02
    0.38530747276978123336E-02
    0.38500098881032764064E-02
    0.38425021386918473132E-02
    0.38418327881318452624E-02
    0.38485347493203234809E-02
    0.38495488487818576781E-02
    0.38549556986084911221E-02
    0.38554229230443686459E-02
    0.38625642234695082775E-02
    0.38630886315232189007E-02
    0.38729424928930144753E-02
    0.38719566162948985434E-02
    0.38613714989730535745E-02
    0.38586038507448590547E-02
    0.38495488487908266322E-02
    0.38485347493438988066E-02
    0.38418327881560537622E-02
    0.38425021387240385767E-02
    0.38500098881538540041E-02
    0.38530747277675733709E-02
    0.38554229230927409763E-02
    0.38549556986490953608E-02
    0.38909727979593963960E-02
    0.38936001215075779699E-02
    0.39095594849290421849E-02
    0.39095594849164194695E-02
    0.38936001214849558748E-02
    0.38909727979068351421E-02
    0.38764728168593416170E-02
    0.38733531440824598910E-02
    0.38622912330495357339E-02
    0.38622912330595823849E-02
    0.38733531441056726595E-02
    0.38764728169140504586E-02
    0.38826054022964955059E-02
    0.38826054022897773556E-02
    0.38516373114462197115E-02
    0.38572154434404677149E-02
    0.38664473889302814966E-02
    0.38703238737102336683E-02
    0.38645789590604712541E-02
    0.38689828026923105998E-02
    0.38617142671317173860E-02
    0.38547149427984009513E-02
    0.38474677057723479304E-02
    0.38441167994310988625E-02
    0.38477637349163622792E-02
    0.38451343527920109344E-02
    0.38544514247354157328E-02
    0.38565467494614978292E-02
    0.38875636889339759694E-02
    0.38973143062525365983E-02
    0.39133797236998706798E-02
    0.39200697759205344051E-02
    0.39100383804048597508E-02
    0.39175317503370651884E-02
    0.39050210530149221527E-02
    0.38929734722956150367E-02
    0.38804422640715697385E-02
    0.38746434677268079029E-02
    0.38809253864443378143E-02
    0.38762914181185961944E-02
    0.38925274018814558577E-02
    0.38961556814686324965E-02
    0.38660075866654435191E-02
    0.38714298245007949112E-02
    0.38840978510484400373E-02
    0.38872050074519933632E-02
    0.38770613768505206298E-02
    0.38791380450173659940E-02
    0.38683213969262887980E-02
    0.38623339529891462761E-02
    0.38530516216021227713E-02
    0.38506666703701313524E-02
    0.38572655283076024389E-02
    0.38562202072357919420E-02
    0.38655643052196973254E-02
    0.38671300770732066308E-02
    0.39114720543630340788E-02
    0.39214855573488412860E-02
    0.39437381754817476404E-02
    0.39494650726350343656E-02
    0.39317833211548912017E-02
    0.39354946308012986669E-02
    0.39166493379380554890E-02
    0.39061166189626461698E-02
    0.38899592989706144493E-02
    0.38856417645337826446E-02
    0.38969087811448837287E-02
    0.38946194102327997590E-02
    0.39114842410437186335E-02
    0.39143386451259056663E-02
    0.39499412669861200600E-02
    0.39665179815123342150E-02
    0.39941592632616734759E-02
    0.40051549682859795276E-02
    0.39876610650460032892E-02
    0.39999000177379792978E-02
    0.39787408965502027089E-02
    0.39584395515470088139E-02
    0.39371250528490477072E-02
    0.39272477073219527743E-02
    0.39381494290400822708E-02
    0.39303657109161244804E-02
    0.39579977840208105042E-02
    0.39640651037251345076E-02
    0.40564640378257139919E-02
    0.40834340612731605258E-02
    0.41302102493635224970E-02
    0.41471755260538232385E-02
    0.41168450008361575851E-02
    0.41357371402110827685E-02
    0.41009821149252017117E-02
    0.40678479626996494681E-02
    0.40324400192215340694E-02
    0.40161598980442171636E-02
    0.40349313040492686827E-02
    0.40225785110626788993E-02
    0.40681095320241646152E-02
    0.40778229229410101198E-02
    0.39923298246549365417E-02
    0.40100493763692481725E-02
    0.40495067175599719703E-02
    0.40592416430320762619E-02
    0.40275316186870703181E-02
    0.40331109372672650087E-02
    0.40001562540793542816E-02
    0.39823399980869938000E-02
    0.39542156966219732875E-02
    0.39468303225134232157E-02
    0.39666287982966872555E-02
    0.39625825774128129592E-02
    0.39922130945813519634E-02
    0.39970742912759146120E-02
    0.41353779870839223881E-02
    0.41652732045903842831E-02
    0.42349840930775714890E-02
    0.42498734833912267181E-02
    0.41923923198210035282E-02
    0.41988197055702518659E-02
    0.41415472190140445105E-02
    0.41128950925007328604E-02
    0.40644454621956262533E-02
    0.40525779894952738275E-02
    0.40880371877039635778E-02
    0.40822297572464631699E-02
    0.41323943795055365427E-02
    0.41400061719154635301E-02
    0.38933394657808938905E-02
    0.38993404196211159038E-02
    0.39174481084280239618E-02
    0.39202292230890870353E-02
    0.39040808364794489516E-02
    0.39042950694644202279E-02
    0.38881247103858284676E-02
    0.38820303005722158439E-02
    0.38691130145401854412E-02
    0.38673194382464214959E-02
    0.38780542302769998621E-02
    0.38785590309494996468E-02
    0.38893181119894430081E-02
    0.38905917857069345113E-02
    0.39553253362763652473E-02
    0.39673357342433655456E-02
    0.39992510827580414132E-02
    0.40053950568566254464E-02
    0.39776085875898765931E-02
    0.39789529911319065913E-02
    0.39505962347613776675E-02
    0.39392283171161687413E-02
    0.39165502835229642001E-02
    0.39127878771173631514E-02
    0.39307796912581511109E-02
    0.39302766679644432143E-02
    0.39508274375782345689E-02
    0.39535673801270451375E-02
    0.39402252775560453121E-02
    0.39468797074318053356E-02
    0.39733209353307250011E-02
    0.39754986635633839803E-02
    0.39504481065336365803E-02
    0.39484070416446687482E-02
    0.39243370347884255767E-02
    0.39174429598136713965E-02
    0.38987729699811596307E-02
    0.38975189412510519160E-02
    0.39145775433531678281E-02
    0.39174469189136827685E-02
    0.39305169729356749519E-02
    0.39314580795637493402E-02
    0.40265343705803979812E-02
    0.40413418186119277539E-02
    0.40869384071896596236E-02
    0.40939729588101983135E-02
    0.40525823218491921485E-02
    0.40521666622014588729E-02
    0.40104422331241253857E-02
    0.39963051914082307545E-02
    0.39638207222212167025E-02
    0.39601061525300551222E-02
    0.39875910801451877608E-02
    0.39894351122017881681E-02
    0.40157442657244935350E-02
    0.40186645457903867606E-02
    0.40677438980938149943E-02
    0.40907162822245660833E-02
    0.41483494467521222354E-02
    0.41601976233559675653E-02
    0.41102841773454990362E-02
    0.41126961246069730638E-02
    0.40619091740226181964E-02
    0.40415997287964171986E-02
    0.40012186778256679520E-02
    0.39941750316356350661E-02
    0.40256627633747620043E-02
    0.40235950091887049546E-02
    0.40617513620974619870E-02
    0.40669484974854338416E-02
    0.42735760969755103716E-02
    0.43155175737654523013E-02
    0.44209641154742415972E-02
    0.44412923018433891550E-02
    0.43489244844671101978E-02
    0.43502036959082142700E-02
    0.42584336147410140061E-02
    0.42240861435711837477E-02
    0.41518306576836094129E-02
    0.41398888228597174183E-02
    0.41969926276638072973E-02
    0.41933553621062782946E-02
    0.42621525987560577101E-02
    0.42710117672735874519E-02
    0.41832191042773490819E-02
    0.42145258092670476874E-02
    0.42969470785617575395E-02
    0.43136254556941653129E-02
    0.42408842624140708280E-02
    0.42431631679340706120E-02
    0.41679141811516396895E-02
    0.41404320042761734791E-02
    0.40819737525934363803E-02
    0.40735543980213260312E-02
    0.41203424596732360352E-02
    0.41194767495568631460E-02
    0.41718013478711781991E-02
    0.41786029623096538482E-02
    0.44767675538457075632E-02
    0.45395160131600715073E-02
    0.46934767474510448795E-02
    0.47272835778972141160E-02
    0.45924354664625584299E-02
    0.45967924973204432257E-02
    0.44574848839390454960E-02
    0.44067200687868453984E-02
    0.42992386588516229295E-02
    0.42827233156449351012E-02
    0.43669185866867512788E-02
    0.43614158742607623057E-02
    0.44627453657760654190E-02
    0.44763285474546500933E-02
    0.38689828028688308566E-02
    0.38645789592169793071E-02
    0.38703238738780586237E-02
    0.38664473890811529994E-02
    0.38572154435658327111E-02
    0.38516373115460222562E-02
    0.38451343528738898825E-02
    0.38477637350145159692E-02
    0.38441167995232712259E-02
    0.38474677058777202385E-02
    0.38547149429321151716E-02
    0.38617142672977213154E-02
    0.38565467495940350395E-02
    0.38544514248578984859E-02
    0.38791380451942349301E-02
    0.38770613770166368825E-02
    0.38872050076431308337E-02
    0.38840978512270484674E-02
    0.38714298246401782078E-02
    0.38660075867754059055E-02
    0.38562202073199429442E-02
    0.38572655284072566648E-02
    0.38506666704578120831E-02
    0.38530516217029188789E-02
    0.38623339531183515164E-02
    0.38683213970784982062E-02
    0.38671300772101561104E-02
    0.38655643053482069416E-02
    0.39175317506998834707E-02
    0.39100383807322653881E-02
    0.39200697762740580390E-02
    0.39133797240226064415E-02
    0.38973143065228910836E-02
    0.38875636891591565207E-02
    0.38762914183032128393E-02
    0.38809253866600719289E-02
    0.38746434679266549862E-02
    0.38804422642979125545E-02
    0.38929734725747298756E-02
    0.39050210533546612403E-02
    0.38961556817485331651E-02
    0.38925274021433509640E-02
    0.39354946311839075421E-02
    0.39317833215236032071E-02
    0.39494650730603920313E-02
    0.39437381758878724269E-02
    0.39214855576713983712E-02
    0.39114720546336483389E-02
    0.38946194104441515284E-02
    0.38969087813817328975E-02
    0.38856417647388273931E-02
    0.38899592991997063683E-02
    0.39061166192491240425E-02
    0.39166493382676937154E-02
    0.39143386454339812799E-02
    0.39114842413377369154E-02
    0.39042950696796009658E-02
    0.39040808366775201117E-02
    0.39202292233162750953E-02
    0.39174481086324290310E-02
    0.38993404197785542023E-02
    0.38933394659021050913E-02
    0.38785590310344520912E-02
    0.38780542303860974888E-02
    0.38673194383415190369E-02
    0.38691130146523292424E-02
    0.38820303007240626950E-02
    0.38881247105741873447E-02
    0.38905917858658885244E-02
    0.38893181121361615829E-02
    0.39484070418765535720E-02
    0.39504481067219416809E-02
    0.39754986637666857655E-02
    0.39733209354890089773E-02
    0.39468797075453412523E-02
    0.39402252776124281619E-02
    0.39174469189409274680E-02
    0.39145775434290984093E-02
    0.38975189413275727369E-02
    0.38987729700926160477E-02
    0.39174429599656435813E-02
    0.39243370349973496006E-02
    0.39314580797062516695E-02
    0.39305169730556874588E-02
    0.39789529916312224578E-02
    0.39776085880662507416E-02
    0.40053950574125305947E-02
    0.39992510832727382053E-02
    0.39673357346536129026E-02
    0.39553253366203730557E-02
    0.39302766682228649706E-02
    0.39307796915526160841E-02
    0.39127878773684964669E-02
    0.39165502838035288341E-02
    0.39392283174808839438E-02
    0.39505962351913653102E-02
    0.39535673805203034800E-02
    0.39508274379509971536E-02
    0.40521666628166126342E-02
    0.40525823224057261340E-02
    0.40939729594336397162E-02
    0.40869384077461372307E-02
    0.40413418190438565522E-02
    0.40265343709117657270E-02
    0.39894351124405685177E-02
    0.39875910804582455002E-02
    0.39601061528110265489E-02
    0.39638207225612936274E-02
    0.39963051918452318842E-02
    0.40104422336641144461E-02
    0.40186645462391024780E-02
    0.40157442661369665421E-02
    0.39999000184494518453E-02
    0.39876610656965488788E-02
    0.40051549689898661294E-02
    0.39941592639150058988E-02
    0.39665179820604539243E-02
    0.39499412674542204449E-02
    0.39303657113017864688E-02
    0.39381494294805042752E-02
    0.39272477077282961361E-02
    0.39371250533046971143E-02
    0.39584395521007594357E-02
    0.39787408972144899105E-02
    0.39640651042843338958E-02
    0.39579977845481733797E-02
    0.40331109380483754281E-02
    0.40275316194479182999E-02
    0.40592416439180030105E-02
    0.40495067184091104381E-02
    0.40100493770539565389E-02
    0.39923298252457200402E-02
    0.39625825778808786495E-02
    0.39666287988040227486E-02
    0.39468303229509135374E-02
    0.39542156970999060850E-02
    0.39823399986789603799E-02
    0.40001562547480285989E-02
    0.39970742919183607778E-02
    0.39922130951997496576E-02
    0.41357371415500256140E-02
    0.41168450020835139699E-02
    0.41471755274245705042E-02
    0.41302102506368771825E-02
    0.40834340623436713932E-02
    0.40564640387515185638E-02
    0.40225785118309124663E-02
    0.40349313049097661199E-02
    0.40161598988361262366E-02
    0.40324400201014942366E-02
    0.40678479637569989885E-02
    0.41009821161749424739E-02
    0.40778229240176679798E-02
    0.40681095330456383194E-02
    0.41988197070842890254E-02
    0.41923923213291061987E-02
    0.42498734851644445754E-02
    0.42349840947866696297E-02
    0.41652732059714678986E-02
    0.41353779883003347756E-02
    0.40822297582116459647E-02
    0.40880371887321107632E-02
    0.40525779903754612435E-02
    0.40644454631485072565E-02
    0.41128950936707101699E-02
    0.41415472203189963168E-02
    0.41400061731949678104E-02
    0.41323943807455507105E-02
    0.41126961256647744797E-02
    0.41102841783798773484E-02
    0.41601976245659519349E-02
    0.41483494479014511314E-02
    0.40907162831480105639E-02
    0.40677438989007563136E-02
    0.40235950098064781483E-02
    0.40256627640476447608E-02
    0.39941750322038532817E-02
    0.40012186784451810734E-02
    0.40415997295856261745E-02
    0.40619091749303356739E-02
    0.40669484983490563831E-02
    0.40617513629277370718E-02
    0.42431631693385591167E-02
    0.42408842637321831140E-02
    0.43136254572066056595E-02
    0.42969470799511079798E-02
    0.42145258103804287761E-02
    0.41832191052034953943E-02
    0.41194767502673902693E-02
    0.41203424604927809879E-02
    0.40735543987402171237E-02
    0.40819737534065463763E-02
    0.41404320053041983665E-02
    0.41679141823606396036E-02