# vtk DataFile Version 3.0
LAPLACIEN  2D
ASCII
DATASET UNSTRUCTURED_GRID
FIELD FieldData 1
TIME 1 1 double
8.0000
 POINTS        7297  float
   1.5625000000000000E-002  0.96875000000000000        0.0000000000000000     
   3.1250000000000000E-002  0.96875000000000000        0.0000000000000000     
   3.1250000000000000E-002  0.98437500000000000        0.0000000000000000     
   9.3749999999999997E-003  0.97812500000000002        0.0000000000000000     
   2.0312500000000001E-002  0.97968750000000004        0.0000000000000000     
   2.1874999999999999E-002  0.99062499999999998        0.0000000000000000     
   1.0937499999999999E-002  0.98906249999999996        0.0000000000000000     
   4.6875000000000000E-002  0.96875000000000000        0.0000000000000000     
   6.2500000000000000E-002  0.96875000000000000        0.0000000000000000     
   6.2500000000000000E-002  0.98437500000000000        0.0000000000000000     
   4.0625000000000001E-002  0.97812500000000002        0.0000000000000000     
   5.1562499999999997E-002  0.97968750000000004        0.0000000000000000     
   5.3124999999999999E-002  0.99062499999999998        0.0000000000000000     
   4.2187500000000003E-002  0.98906249999999996        0.0000000000000000     
   1.5625000000000000E-002  0.93750000000000000        0.0000000000000000     
   3.1250000000000000E-002  0.93750000000000000        0.0000000000000000     
   3.1250000000000000E-002  0.95312500000000000        0.0000000000000000     
   9.3749999999999997E-003  0.94687500000000002        0.0000000000000000     
   2.0312500000000001E-002  0.94843750000000004        0.0000000000000000     
   2.1874999999999999E-002  0.95937499999999998        0.0000000000000000     
   1.0937499999999999E-002  0.95781249999999996        0.0000000000000000     
   4.6875000000000000E-002  0.93750000000000000        0.0000000000000000     
   6.2500000000000000E-002  0.93750000000000000        0.0000000000000000     
   6.2500000000000000E-002  0.95312500000000000        0.0000000000000000     
   4.0625000000000001E-002  0.94687500000000002        0.0000000000000000     
   5.1562499999999997E-002  0.94843750000000004        0.0000000000000000     
   5.3124999999999999E-002  0.95937499999999998        0.0000000000000000     
   4.2187500000000003E-002  0.95781249999999996        0.0000000000000000     
   7.8125000000000000E-002  0.96875000000000000        0.0000000000000000     
   9.3750000000000000E-002  0.96875000000000000        0.0000000000000000     
   9.3750000000000000E-002  0.98437500000000000        0.0000000000000000     
   7.1874999999999994E-002  0.97812500000000002        0.0000000000000000     
   8.2812499999999997E-002  0.97968750000000004        0.0000000000000000     
   8.4375000000000006E-002  0.99062499999999998        0.0000000000000000     
   7.3437500000000003E-002  0.98906249999999996        0.0000000000000000     
  0.10937500000000000       0.96875000000000000        0.0000000000000000     
  0.12500000000000000       0.96875000000000000        0.0000000000000000     
  0.12500000000000000       0.98437500000000000        0.0000000000000000     
  0.10312499999999999       0.97812500000000002        0.0000000000000000     
  0.11406250000000000       0.97968750000000004        0.0000000000000000     
  0.11562500000000001       0.99062499999999998        0.0000000000000000     
  0.10468750000000000       0.98906249999999996        0.0000000000000000     
   7.8125000000000000E-002  0.93750000000000000        0.0000000000000000     
   9.3750000000000000E-002  0.93750000000000000        0.0000000000000000     
   9.3750000000000000E-002  0.95312500000000000        0.0000000000000000     
   7.1874999999999994E-002  0.94687500000000002        0.0000000000000000     
   8.2812499999999997E-002  0.94843750000000004        0.0000000000000000     
   8.4375000000000006E-002  0.95937499999999998        0.0000000000000000     
   7.3437500000000003E-002  0.95781249999999996        0.0000000000000000     
  0.10937500000000000       0.93750000000000000        0.0000000000000000     
  0.12500000000000000       0.93750000000000000        0.0000000000000000     
  0.12500000000000000       0.95312500000000000        0.0000000000000000     
  0.10312499999999999       0.94687500000000002        0.0000000000000000     
  0.11406250000000000       0.94843750000000004        0.0000000000000000     
  0.11562500000000001       0.95937499999999998        0.0000000000000000     
  0.10468750000000000       0.95781249999999996        0.0000000000000000     
   1.5625000000000000E-002  0.90625000000000000        0.0000000000000000     
   3.1250000000000000E-002  0.90625000000000000        0.0000000000000000     
   3.1250000000000000E-002  0.92187500000000000        0.0000000000000000     
   9.3749999999999997E-003  0.91562500000000002        0.0000000000000000     
   2.0312500000000001E-002  0.91718750000000004        0.0000000000000000     
   2.1874999999999999E-002  0.92812499999999998        0.0000000000000000     
   1.0937499999999999E-002  0.92656249999999996        0.0000000000000000     
   4.6875000000000000E-002  0.90625000000000000        0.0000000000000000     
   6.2500000000000000E-002  0.90625000000000000        0.0000000000000000     
   6.2500000000000000E-002  0.92187500000000000        0.0000000000000000     
   4.0625000000000001E-002  0.91562500000000002        0.0000000000000000     
   5.1562499999999997E-002  0.91718750000000004        0.0000000000000000     
   5.3124999999999999E-002  0.92812499999999998        0.0000000000000000     
   4.2187500000000003E-002  0.92656249999999996        0.0000000000000000     
   1.5625000000000000E-002  0.87500000000000000        0.0000000000000000     
   3.1250000000000000E-002  0.87500000000000000        0.0000000000000000     
   3.1250000000000000E-002  0.89062500000000000        0.0000000000000000     
   9.3749999999999997E-003  0.88437500000000002        0.0000000000000000     
   2.0312500000000001E-002  0.88593750000000004        0.0000000000000000     
   2.1874999999999999E-002  0.89687499999999998        0.0000000000000000     
   1.0937499999999999E-002  0.89531249999999996        0.0000000000000000     
   4.6875000000000000E-002  0.87500000000000000        0.0000000000000000     
   6.2500000000000000E-002  0.87500000000000000        0.0000000000000000     
   6.2500000000000000E-002  0.89062500000000000        0.0000000000000000     
   4.0625000000000001E-002  0.88437500000000002        0.0000000000000000     
   5.1562499999999997E-002  0.88593750000000004        0.0000000000000000     
   5.3124999999999999E-002  0.89687499999999998        0.0000000000000000     
   4.2187500000000003E-002  0.89531249999999996        0.0000000000000000     
   7.8125000000000000E-002  0.90625000000000000        0.0000000000000000     
   9.3750000000000000E-002  0.90625000000000000        0.0000000000000000     
   9.3750000000000000E-002  0.92187500000000000        0.0000000000000000     
   7.1874999999999994E-002  0.91562500000000002        0.0000000000000000     
   8.2812499999999997E-002  0.91718750000000004        0.0000000000000000     
   8.4375000000000006E-002  0.92812499999999998        0.0000000000000000     
   7.3437500000000003E-002  0.92656249999999996        0.0000000000000000     
  0.10937500000000000       0.90625000000000000        0.0000000000000000     
  0.12500000000000000       0.90625000000000000        0.0000000000000000     
  0.12500000000000000       0.92187500000000000        0.0000000000000000     
  0.10312499999999999       0.91562500000000002        0.0000000000000000     
  0.11406250000000000       0.91718750000000004        0.0000000000000000     
  0.11562500000000001       0.92812499999999998        0.0000000000000000     
  0.10468750000000000       0.92656249999999996        0.0000000000000000     
   7.8125000000000000E-002  0.87500000000000000        0.0000000000000000     
   9.3750000000000000E-002  0.87500000000000000        0.0000000000000000     
   9.3750000000000000E-002  0.89062500000000000        0.0000000000000000     
   7.1874999999999994E-002  0.88437500000000002        0.0000000000000000     
   8.2812499999999997E-002  0.88593750000000004        0.0000000000000000     
   8.4375000000000006E-002  0.89687499999999998        0.0000000000000000     
   7.3437500000000003E-002  0.89531249999999996        0.0000000000000000     
  0.10937500000000000       0.87500000000000000        0.0000000000000000     
  0.12500000000000000       0.87500000000000000        0.0000000000000000     
  0.12500000000000000       0.89062500000000000        0.0000000000000000     
  0.10312499999999999       0.88437500000000002        0.0000000000000000     
  0.11406250000000000       0.88593750000000004        0.0000000000000000     
  0.11562500000000001       0.89687499999999998        0.0000000000000000     
  0.10468750000000000       0.89531249999999996        0.0000000000000000     
  0.14062500000000000       0.96875000000000000        0.0000000000000000     
  0.15625000000000000       0.96875000000000000        0.0000000000000000     
  0.15625000000000000       0.98437500000000000        0.0000000000000000     
  0.13437499999999999       0.97812500000000002        0.0000000000000000     
  0.14531250000000001       0.97968750000000004        0.0000000000000000     
  0.14687500000000001       0.99062499999999998        0.0000000000000000     
  0.13593749999999999       0.98906249999999996        0.0000000000000000     
  0.17187500000000000       0.96875000000000000        0.0000000000000000     
  0.18750000000000000       0.96875000000000000        0.0000000000000000     
  0.18750000000000000       0.98437500000000000        0.0000000000000000     
  0.16562499999999999       0.97812500000000002        0.0000000000000000     
  0.17656250000000001       0.97968750000000004        0.0000000000000000     
[...]
 CELL_DATA       14336
 SCALARS Nutrient float
 LOOKUP_TABLE default
    0.44376582064386185106E-02
    0.44375728096244819107E-02
    0.44382245485728253481E-02
    0.44382245485143703712E-02
    0.44375728098571915956E-02
    0.44376582062346870208E-02
    0.44371401668182146316E-02
    0.44368350264129517713E-02
    0.44365053102296903367E-02
    0.44365053088905323855E-02
    0.44368350271031505375E-02
    0.44371401665335699280E-02
    0.44370924726676733499E-02
    0.44370924724497504479E-02
    0.44397961765419435842E-02
    0.44403659145366243186E-02
    0.44419132282320214142E-02
    0.44423409874056298333E-02
    0.44411812342461829892E-02
    0.44417379996453190683E-02
    0.44405215773034491938E-02
    0.44395101373119359375E-02
    0.44384434422167278952E-02
    0.44380587080990619581E-02
    0.44387261359013193210E-02
    0.44386429900639063142E-02
    0.44396850581883019055E-02
    0.44399151028665685692E-02
    0.44417379996871484554E-02
    0.44411812342144548968E-02
    0.44423409874239311659E-02
    0.44419132282194151787E-02
    0.44403659145957940016E-02
    0.44397961764712709498E-02
    0.44386429902076845327E-02
    0.44387261357639387627E-02
    0.44380587082812573627E-02
    0.44384434420478534322E-02
    0.44395101374051356910E-02
    0.44405215772792029638E-02
    0.44399151029140965230E-02
    0.44396850581699710825E-02
    0.44446073092751902517E-02
    0.44448562146671638864E-02
    0.44472742090304407184E-02
    0.44472742090248349595E-02
    0.44448562146821319480E-02
    0.44446073092535461069E-02
    0.44424634373226414355E-02
    0.44418525994659157491E-02
    0.44402581218179184783E-02
    0.44402581217483118314E-02
    0.44418525995107956475E-02
    0.44424634372958477641E-02
    0.44431676126042724678E-02
    0.44431676125914719433E-02
    0.44455125137165792462E-02
    0.44470523579162712230E-02
    0.44500688157646187820E-02
    0.44511920425512781219E-02
    0.44491964488237670944E-02
    0.44505467639909569721E-02
    0.44481639133260898744E-02
    0.44459524159934137380E-02
    0.44436657267232799323E-02
    0.44426977938210772401E-02
    0.44439195271093493919E-02
    0.44433325592787200481E-02
    0.44459986958536937274E-02
    0.44466071578277864204E-02
    0.44569439677700876945E-02
    0.44600467400887780847E-02
    0.44653756115197781179E-02
    0.44675412445731518818E-02
    0.44641771653450221247E-02
    0.44666722502936092795E-02
    0.44624607273293752374E-02
    0.44584557179626182338E-02
    0.44542916895406181599E-02
    0.44523996503117845708E-02
    0.44545392449193794634E-02
    0.44531263354952825562E-02
    0.44583755621432040461E-02
    0.44595536153090786433E-02
    0.44521011576682568978E-02
    0.44533042638978661762E-02
    0.44575447501395866479E-02
    0.44581099365349824079E-02
    0.44543399276826441124E-02
    0.44545558087129705216E-02
    0.44508376137596047939E-02
    0.44491961690162340481E-02
    0.44461537366989930392E-02
    0.44456958814199261376E-02
    0.44482434164810910962E-02
    0.44485287692691685354E-02
    0.44508597722214410242E-02
    0.44511503538610212860E-02
    0.44662893459923077438E-02
    0.44690567843656625949E-02
    0.44763554819313095337E-02
    0.44778646513166089557E-02
    0.44718305745903583551E-02
    0.44727928386225808410E-02
    0.44665189054739814351E-02
    0.44632167666739924056E-02
    0.44578525399571926682E-02
    0.44566387517587791045E-02
    0.44606733298751906000E-02
    0.44604470484643065492E-02
    0.44653936173095279405E-02
    0.44661711742135547232E-02
    0.44505467640229877738E-02
    0.44491964488384558654E-02
    0.44511920425745797950E-02
    0.44500688157792104085E-02
    0.44470523579416771157E-02
    0.44455125137095562182E-02
    0.44433325593156462394E-02
    0.44439195270961837081E-02
    0.44426977938628276973E-02
    0.44436657267127744469E-02
    0.44459524160259328643E-02
    0.44481639133471667646E-02
    0.44466071578517073898E-02
    0.44459986958671846718E-02
    0.44545558087344359899E-02
    0.44543399276936943010E-02
    0.44581099365530348078E-02
    0.44575447501521607910E-02
    0.44533042639114455916E-02
    0.44521011576653234804E-02
    0.44485287692802169893E-02
    0.44482434164741530697E-02
    0.44456958814435131727E-02
    0.44461537366940083113E-02
    0.44491961690365225066E-02
    0.44508376137697347116E-02
    0.44511503538760535323E-02
    0.44508597722287329343E-02
    0.44666722503618264128E-02
    0.44641771654015584975E-02
    0.44675412446344778261E-02
    0.44653756115726941228E-02
    0.44600467401336519116E-02
    0.44569439677981824086E-02
    0.44531263355241995291E-02
    0.44545392449483753664E-02
    0.44523996503453419291E-02
    0.44542916895743515926E-02
    0.44584557180137231874E-02
    0.44624607273932824503E-02
    0.44595536153580819794E-02
    0.44583755621851583334E-02
    0.44727928386849268028E-02
    0.44718305746454774588E-02
    0.44778646513820288474E-02
    0.44763554819898824719E-02
    0.44690567844096560496E-02
    0.44662893460197198442E-02
    0.44604470484863045776E-02
    0.44606733299002773036E-02
    0.44566387517866751927E-02
    0.44578525399855050901E-02
    0.44632167667175955475E-02
    0.44665189055253682812E-02
    0.44661711742583392118E-02
    0.44653936173492557102E-02
    0.44649993760449918981E-02
    0.44659343049933721004E-02
    0.44722231008558471083E-02
    0.44722231008519604603E-02
    0.44659343049896233629E-02
    0.44649993760314324320E-02
    0.44592674002907704139E-02
    0.44579391976310393103E-02
    0.44535402499960860881E-02
    0.44535402499923607694E-02
    0.44579391976402966621E-02
    0.44592674003024442356E-02
    0.44615727422826741491E-02
    0.44615727422800555840E-02
    0.44844295391385140606E-02
    0.44871974669980566053E-02
    0.44977837047281360797E-02
    0.44987697115647928836E-02
    0.44889147466629720010E-02
    0.44883902283578821710E-02
    0.44788998152215956858E-02
    0.44758347269574019767E-02
    0.44683263496585086394E-02
    0.44676569526543438368E-02
    0.44743594785098287844E-02
    0.44753736710438501989E-02
    0.44807810166117220674E-02
    0.44812482902202507851E-02
    0.44883902284269206959E-02
    0.44889147467205708919E-02
    0.44987697116303342060E-02
    0.44977837047806617718E-02
    0.44871974670349888681E-02
    0.44844295391572733603E-02
    0.44753736710515679836E-02
    0.44743594785300409150E-02
    0.44676569526751579164E-02
    0.44683263496855763972E-02
    0.44758347270021908021E-02
    0.44788998152834203631E-02
    0.44812482902634774920E-02
    0.44807810166479422262E-02
    0.45168022204589829832E-02
    0.45194299556499317391E-02
    0.45353913386198905361E-02
    0.45353913386081256415E-02
    0.45194299556290534747E-02
    0.45168022204103847050E-02
    0.45023004892649504810E-02
    0.44991804930467615975E-02
    0.44881173249308311743E-02
    0.44881173249400286782E-02
    0.44991804930684473757E-02
    0.45023004893158594109E-02
    0.45084338736008644499E-02
    0.45084338735946194454E-02
    0.44774619150551257102E-02
    0.44830405336271049455E-02
    0.44922733233707587419E-02
    0.44961502326907078209E-02
    0.44904046898820151532E-02
    0.44948089712263184295E-02
    0.44875396666635659557E-02
    0.44805397067381614457E-02
    0.44732919319761159718E-02
    0.44699406502819605952E-02
    0.44735880256628326665E-02
    0.44709584010611466698E-02
    0.44802761841112835606E-02
    0.44823717687876339991E-02
    0.45133919750098300955E-02
    0.45231436804534378218E-02
    0.45392110713743097014E-02
    0.45459020252690074751E-02
    0.45358692555577569128E-02
    0.45433635603354958002E-02
    0.45308512858057660086E-02
    0.45188022281187926674E-02
    0.45062696230554356164E-02
    0.45004700800707741343E-02
    0.45067528603871349555E-02
    0.45021183184229167720E-02
    0.45183561250975307066E-02
    0.45219849096029690605E-02
    0.44918338562525000901E-02
    0.44972566071284766562E-02
    0.45099260012399534914E-02
    0.45130335749163155712E-02
    0.45028886380551894422E-02
    0.45049654255338361306E-02
    0.44941476192605148143E-02
    0.44881595853081910491E-02
    0.44788763828076429141E-02
    0.44764912339355852899E-02
    0.44830908151043281223E-02
    0.44820454408304238533E-02
    0.44913903883311160140E-02
    0.44929563119028353632E-02
    0.45373036087111521392E-02
    0.45473183760444801232E-02
    0.45695738989809144004E-02
    0.45753015782740436013E-02
    0.45576173347614797396E-02
    0.45613290056075459292E-02
    0.45424812119773897573E-02
    0.45319472103977180566E-02
    0.45157878975211895867E-02
    0.45114698572707593108E-02
    0.45227383852435533093E-02
    0.45204487546152069544E-02
    0.45373156327924053788E-02
    0.45401703924971958254E-02
    0.45757774877130171637E-02
    0.45923564125926949475E-02
    0.46200016260416407188E-02
    0.46309987935498420422E-02
    0.46135024022238143790E-02
    0.46257430693562627891E-02
    0.46045809351222865072E-02
    0.45842767800253862720E-02
    0.45629594404989473264E-02
    0.45530806346245483729E-02
    0.45639839925857520614E-02
    0.45561991886855788061E-02
    0.45838349473425665445E-02
    0.45899031592348659564E-02
    0.46823153022615008126E-02
    0.47092891843789211684E-02
    0.47560721792760229237E-02
    0.47730398430827925688E-02
    0.47427050167661724892E-02
    0.47615999621269692807E-02
    0.47268398442291345574E-02
    0.46937007590636386362E-02
    0.46582877622392340755E-02
    0.46420051647606845255E-02
    0.46607793971400000160E-02
    0.46484247913827622320E-02
    0.46939623727867696434E-02
    0.47036772148186713899E-02
    0.46181723338662135706E-02
    0.46358942642068697026E-02
    0.46753572666199541899E-02
    0.46850934473784359297E-02
    0.46533788848323867290E-02
    0.46589588893911314249E-02
    0.46259994941292769885E-02
    0.46081807617825779055E-02
    0.45800525642147975336E-02
    0.45726662008464223630E-02
    0.45924675257290646993E-02
    0.45884207868048532131E-02
    0.46180553987776960106E-02
    0.46229172410610216634E-02
    0.47612407681236193144E-02
    0.47911402141649697684E-02
    0.48608611235527047004E-02
    0.48757525103105894826E-02
    0.48182632312602970831E-02
    0.48246915028696858718E-02
    0.47674107732043041058E-02
    0.47387545353677609436E-02
    0.46902978711536470052E-02
    0.46784286823146493256E-02
    0.47138930905522491085E-02
    0.47080848982324081248E-02
    0.47582566997958685925E-02
    0.47658695531837451734E-02
    0.45191690869200457775E-02
    0.45251707856354527609E-02
    0.45432807067838270124E-02
    0.45460622383488987971E-02
    0.45299116855069439247E-02
    0.45301258356014485751E-02
    0.45139534836004463828E-02
    0.45078583934432692876E-02
    0.44949396722278617960E-02
    0.44931459051003475730E-02
    0.45038819814065848487E-02
    0.45043868435069725834E-02
    0.45151471520957593350E-02
    0.45164209897807488375E-02
    0.45811631053143250444E-02
    0.45931751066613487125E-02
    0.46250949328089426688E-02
    0.46312397772373262508E-02
    0.46034492816755543179E-02
    0.46047937567636849573E-02
    0.45764330639709487406E-02
    0.45650636116895603953E-02
    0.45423825709856929453E-02
    0.45386196954312141641E-02
    0.45566140055441966758E-02
    0.45561109251112579324E-02
    0.45766644662193272861E-02
    0.45794047852191687928E-02
    0.45660612786823009251E-02
    0.45727166023126191580E-02
    0.45991615031595453264E-02
    0.46013395520829369553E-02
    0.45762853856561288082E-02
    0.45742439485094233201E-02
    0.45501706916280856147E-02
    0.45432757083307189969E-02
    0.45246033108223785574E-02
    0.45233491576819563271E-02
    0.45404100424445920439E-02
    0.45432798239333667401E-02
    0.45563515938648064402E-02
    0.45572928157338894045E-02
    0.46523825760526075698E-02
    0.46671921502648211141E-02
    0.47127952578971260555E-02
    0.47198308278040721972E-02
    0.46784340757056522286E-02
    0.46780182106464559405E-02
    0.46362877667488365183E-02
    0.46221487975533250003E-02
    0.45896597064105188954E-02
    0.45859446611761656848E-02
    0.46134336204278723892E-02
    0.46152779120979675609E-02
    0.46415907890189943633E-02
    0.46445114573231537775E-02
    0.46935975254431194434E-02
    0.47165731775552343502E-02
    0.47742145930506785928E-02
    0.47860643673848807939E-02
    0.47361437019518776506E-02
    0.47385558190378047894E-02
    0.46877615174630371878E-02
    0.46674493181234613312E-02
    0.46270624847319398454E-02
    0.46200178855586495480E-02
    0.46515102638385874556E-02
    0.46494422473299969190E-02
    0.46876040053131914562E-02
    0.46928018377348024517E-02
    0.48994590014826916793E-02
    0.49414062540659026146E-02
    0.50468675152383702179E-02
    0.50671983575654470575E-02
    0.49748176825264688039E-02
    0.49760969171665494701E-02
    0.48843139457977764045E-02
    0.48499616792063082391E-02
    0.47776958907356399664E-02
    0.47657523811674845637E-02
    0.48228644789588513697E-02
    0.48192268389001119422E-02
    0.48880336811483729095E-02
    0.48968940507406735416E-02
    0.48090899243621084563E-02
    0.48404009980201221849E-02
    0.49228340674022912776E-02
    0.49395146239921538384E-02
    0.48667629432338436329E-02
    0.48690419690520115453E-02
    0.47937821941096735515E-02
    0.47662961839955051910E-02
    0.47078295279177201360E-02
    0.46994090014243362213E-02
    0.47462039493652895608E-02
    0.47453382735276154747E-02
    0.47976702388374901226E-02
    0.48044727868680331406E-02
    0.51026796106266843547E-02
    0.51654362993898382539E-02
    0.53194179234283649194E-02
    0.53532288710241779373E-02
    0.52183625797418429007E-02
    0.52227198365864847818E-02
    0.50833933069841658048E-02
    0.50326216344858997268E-02
    0.49251252143608986386E-02
    0.49086076852541743118E-02
    0.49928149328406059085E-02
    0.49873116534522657362E-02
    0.50886549709169316691E-02
    0.51022398989211317083E-02
    0.44948089713835312140E-02
    0.44904046900204868525E-02
    0.44961502328400146031E-02
    0.44922733235043454600E-02
    0.44830405337370109534E-02
    0.44774619151411740661E-02
    0.44709584011305312720E-02
    0.44735880257469676224E-02
    0.44699406503608861765E-02
    0.44732919320670068083E-02
    0.44805397068558320758E-02
    0.44875396668116289411E-02
    0.44823717689039584838E-02
    0.44802761842182110483E-02
    0.45049654256925902168E-02
    0.45028886382048709247E-02
    0.45130335750909545203E-02
    0.45099260014035413846E-02
    0.44972566072544574792E-02
    0.44918338563510948336E-02
    0.44820454409040567934E-02
    0.44830908151915968562E-02
    0.44764912340112617342E-02
    0.44788763828949446077E-02
    0.44881595854224728970E-02
    0.44941476193956836002E-02
    0.44929563120251238273E-02
    0.44913903884457586843E-02
    0.45433635606706157528E-02
    0.45358692558589994506E-02
    0.45459020255956862633E-02
    0.45392110716716829386E-02
    0.45231436807005630588E-02
    0.45133919752139428638E-02
    0.45021183185878404023E-02
    0.45067528605815939877E-02
    0.45004700802501376028E-02
    0.45062696232599707899E-02
    0.45188022283740693699E-02
    0.45308512861194933513E-02
    0.45219849098588399058E-02
    0.45183561253362043708E-02
    0.45613290059636638421E-02
    0.45576173351056297953E-02
    0.45753015786746051297E-02
    0.45695738993639239967E-02
    0.45473183763458883272E-02
    0.45373036089630504678E-02
    0.45204487548088680138E-02
    0.45227383854607528316E-02
    0.45114698574565343173E-02
    0.45157878977294509462E-02
    0.45319472106614975063E-02
    0.45424812122819039836E-02
    0.45401703927827920249E-02
    0.45373156330648714563E-02
    0.45301258358013277508E-02
    0.45299116856917977930E-02
    0.45460622385632021986E-02
    0.45432807069770396458E-02
    0.45251707857831453830E-02
    0.45191690870338531785E-02
    0.45043868435849510057E-02
    0.45038819815065777794E-02
    0.44931459051862042420E-02
    0.44949396723291054623E-02
    0.45078583935829344767E-02
    0.45139534837742804202E-02
    0.45164209899281751795E-02
    0.45151471522318917598E-02
    0.45742439487303750492E-02
    0.45762853858359918771E-02
    0.46013395522785027411E-02
    0.45991615033120544082E-02
    0.45727166024216170381E-02
    0.45660612787367669055E-02
    0.45432798239587622244E-02
    0.45404100425162309193E-02
    0.45233491577535908656E-02
    0.45246033109271176914E-02
    0.45432757084748259455E-02
    0.45501706918265908894E-02
    0.45572928158695664644E-02
    0.45563515939790770123E-02
    0.46047937572393201136E-02
    0.46034492821305939697E-02
    0.46312397777720322109E-02
    0.46250949333043953060E-02
    0.45931751070541135262E-02
    0.45811631056435790296E-02
    0.45561109253555850604E-02
    0.45566140058222650427E-02
    0.45386196956658944948E-02
    0.45423825712480126252E-02
    0.45650636120343254104E-02
    0.45764330643783528857E-02
    0.45794047855930919075E-02
    0.45766644665738397124E-02
    0.46780182112423369239E-02
    0.46784340762456144008E-02
    0.47198308284115281230E-02
    0.47127952584397180685E-02
    0.46671921506845062341E-02
    0.46523825763746745957E-02
    0.46152779123278158194E-02
    0.46134336207293282980E-02
    0.45859446614450929264E-02
    0.45896597067365029268E-02
    0.46221487979747205577E-02
    0.46362877672703290896E-02
    0.46445114577572639905E-02
    0.46415907894180753052E-02
    0.46257430700303477089E-02
    0.46135024028387053296E-02
    0.46309987942172734302E-02
    0.46200016266601607109E-02
    0.45923564131084750745E-02
    0.45757774881512811721E-02
    0.45561991890430367930E-02
    0.45639839929961859011E-02
    0.45530806350018195039E-02
    0.45629594409240300384E-02
    0.45842767805461771477E-02
    0.46045809357511237672E-02
    0.45899031597608566657E-02
    0.45838349478376505530E-02
    0.46589588901360529105E-02
    0.46533788855591968342E-02
    0.46850934482299162742E-02
    0.46753572674365743989E-02
    0.46358942648613296958E-02
    0.46181723344295329270E-02
    0.45884207872467037623E-02
    0.45924675262080400656E-02
    0.45726662012560478215E-02
    0.45800525646631385507E-02
    0.46081807623427175138E-02
    0.46259994947634086246E-02
    0.46229172416718247382E-02
    0.46180553993655044584E-02
    0.47615999634177093650E-02
    0.47427050179671371641E-02
    0.47730398444061983634E-02
    0.47560721805039460688E-02
    0.47092891854067170723E-02
    0.46823153031474015404E-02
    0.46484247921129524458E-02
    0.46607793979604756479E-02
    0.46420051655136360461E-02
    0.46582877630785462023E-02
    0.46937007600776400190E-02
    0.47268398454327308078E-02
    0.47036772158516974851E-02
    0.46939623737656307328E-02
    0.48246915043366374320E-02
    0.48182632327236490921E-02
    0.48757525120385405981E-02
    0.48608611252186064919E-02
    0.47911402155054643240E-02
    0.47612407693024957553E-02
    0.47080848991615884686E-02
    0.47138930915420259454E-02
    0.46784286831570856893E-02
    0.46902978720668566173E-02
    0.47387545364955393698E-02
    0.47674107744640065176E-02
    0.47658695544211720010E-02
    0.47582567009949701745E-02
    0.47385558200622613506E-02
    0.47361437029554498759E-02
    0.47860643685640989753E-02
    0.47742145941713342444E-02
    0.47165731784521306227E-02
    0.46935975262265344429E-02
    0.46494422479251970234E-02
    0.46515102644863661613E-02
    0.46200178861018539184E-02
    0.46270624853244320465E-02
    0.46674493188836180257E-02
    0.46877615183387195269E-02
    0.46928018385699347623E-02
    0.46876040061161819428E-02
    0.48690419704275509846E-02
    0.48667629445259480772E-02
    0.49395146254789775234E-02
    0.49228340687684259136E-02
    0.48404009991121843895E-02
    0.48090899252702483391E-02
    0.47453382742207077596E-02
    0.47462039501645477899E-02
    0.46994090021226014517E-02
    0.47078295287080202530E-02
    0.47662961849988310856E-02
    0.47937821952907938572E-02