# vtk DataFile Version 3.0
LAPLACIEN  2D
ASCII
DATASET UNSTRUCTURED_GRID
 POINTS        7297  float
   1.5625000000000000E-002  0.96875000000000000        0.0000000000000000     
   3.1250000000000000E-002  0.96875000000000000        0.0000000000000000     
   3.1250000000000000E-002  0.98437500000000000        0.0000000000000000     
   9.3749999999999997E-003  0.97812500000000002        0.0000000000000000     
   2.0312500000000001E-002  0.97968750000000004        0.0000000000000000     
   2.1874999999999999E-002  0.99062499999999998        0.0000000000000000     
   1.0937499999999999E-002  0.98906249999999996        0.0000000000000000     
   4.6875000000000000E-002  0.96875000000000000        0.0000000000000000     
   6.2500000000000000E-002  0.96875000000000000        0.0000000000000000     
   6.2500000000000000E-002  0.98437500000000000        0.0000000000000000     
   4.0625000000000001E-002  0.97812500000000002        0.0000000000000000     
   5.1562499999999997E-002  0.97968750000000004        0.0000000000000000     
   5.3124999999999999E-002  0.99062499999999998        0.0000000000000000     
   4.2187500000000003E-002  0.98906249999999996        0.0000000000000000     
   1.5625000000000000E-002  0.93750000000000000        0.0000000000000000     
   3.1250000000000000E-002  0.93750000000000000        0.0000000000000000     
   3.1250000000000000E-002  0.95312500000000000        0.0000000000000000     
   9.3749999999999997E-003  0.94687500000000002        0.0000000000000000     
   2.0312500000000001E-002  0.94843750000000004        0.0000000000000000     
   2.1874999999999999E-002  0.95937499999999998        0.0000000000000000     
   1.0937499999999999E-002  0.95781249999999996        0.0000000000000000     
   4.6875000000000000E-002  0.93750000000000000        0.0000000000000000     
   6.2500000000000000E-002  0.93750000000000000        0.0000000000000000     
   6.2500000000000000E-002  0.95312500000000000        0.0000000000000000     
   4.0625000000000001E-002  0.94687500000000002        0.0000000000000000     
   5.1562499999999997E-002  0.94843750000000004        0.0000000000000000     
   5.3124999999999999E-002  0.95937499999999998        0.0000000000000000     
   4.2187500000000003E-002  0.95781249999999996        0.0000000000000000     
   7.8125000000000000E-002  0.96875000000000000        0.0000000000000000     
   9.3750000000000000E-002  0.96875000000000000        0.0000000000000000     
   9.3750000000000000E-002  0.98437500000000000        0.0000000000000000     
   7.1874999999999994E-002  0.97812500000000002        0.0000000000000000     
   8.2812499999999997E-002  0.97968750000000004        0.0000000000000000     
   8.4375000000000006E-002  0.99062499999999998        0.0000000000000000     
   7.3437500000000003E-002  0.98906249999999996        0.0000000000000000     
  0.10937500000000000       0.96875000000000000        0.0000000000000000     
  0.12500000000000000       0.96875000000000000        0.0000000000000000     
  0.12500000000000000       0.98437500000000000        0.0000000000000000     
  0.10312499999999999       0.97812500000000002        0.0000000000000000     
  0.11406250000000000       0.97968750000000004        0.0000000000000000     
  0.11562500000000001       0.99062499999999998        0.0000000000000000     
  0.10468750000000000       0.98906249999999996        0.0000000000000000     
   7.8125000000000000E-002  0.93750000000000000        0.0000000000000000     
   9.3750000000000000E-002  0.93750000000000000        0.0000000000000000     
   9.3750000000000000E-002  0.95312500000000000        0.0000000000000000     
   7.1874999999999994E-002  0.94687500000000002        0.0000000000000000     
   8.2812499999999997E-002  0.94843750000000004        0.0000000000000000     
   8.4375000000000006E-002  0.95937499999999998        0.0000000000000000     
   7.3437500000000003E-002  0.95781249999999996        0.0000000000000000     
  0.10937500000000000       0.93750000000000000        0.0000000000000000     
  0.12500000000000000       0.93750000000000000        0.0000000000000000     
  0.12500000000000000       0.95312500000000000        0.0000000000000000     
  0.10312499999999999       0.94687500000000002        0.0000000000000000     
  0.11406250000000000       0.94843750000000004        0.0000000000000000     
  0.11562500000000001       0.95937499999999998        0.0000000000000000     
  0.10468750000000000       0.95781249999999996        0.0000000000000000     
   1.5625000000000000E-002  0.90625000000000000        0.0000000000000000     
   3.1250000000000000E-002  0.90625000000000000        0.0000000000000000     
   3.1250000000000000E-002  0.92187500000000000        0.0000000000000000     
   9.3749999999999997E-003  0.91562500000000002        0.0000000000000000     
   2.0312500000000001E-002  0.91718750000000004        0.0000000000000000     
   2.1874999999999999E-002  0.92812499999999998        0.0000000000000000     
   1.0937499999999999E-002  0.92656249999999996        0.0000000000000000     
   4.6875000000000000E-002  0.90625000000000000        0.0000000000000000     
   6.2500000000000000E-002  0.90625000000000000        0.0000000000000000     
   6.2500000000000000E-002  0.92187500000000000        0.0000000000000000     
   4.0625000000000001E-002  0.91562500000000002        0.0000000000000000     
   5.1562499999999997E-002  0.91718750000000004        0.0000000000000000     
   5.3124999999999999E-002  0.92812499999999998        0.0000000000000000     
   4.2187500000000003E-002  0.92656249999999996        0.0000000000000000     
   1.5625000000000000E-002  0.87500000000000000        0.0000000000000000     
   3.1250000000000000E-002  0.87500000000000000        0.0000000000000000     
   3.1250000000000000E-002  0.89062500000000000        0.0000000000000000     
   9.3749999999999997E-003  0.88437500000000002        0.0000000000000000     
   2.0312500000000001E-002  0.88593750000000004        0.0000000000000000     
   2.1874999999999999E-002  0.89687499999999998        0.0000000000000000     
   1.0937499999999999E-002  0.89531249999999996        0.0000000000000000     
   4.6875000000000000E-002  0.87500000000000000        0.0000000000000000     
   6.2500000000000000E-002  0.87500000000000000        0.0000000000000000     
   6.2500000000000000E-002  0.89062500000000000        0.0000000000000000     
   4.0625000000000001E-002  0.88437500000000002        0.0000000000000000     
   5.1562499999999997E-002  0.88593750000000004        0.0000000000000000     
   5.3124999999999999E-002  0.89687499999999998        0.0000000000000000     
   4.2187500000000003E-002  0.89531249999999996        0.0000000000000000     
   7.8125000000000000E-002  0.90625000000000000        0.0000000000000000     
   9.3750000000000000E-002  0.90625000000000000        0.0000000000000000     
   9.3750000000000000E-002  0.92187500000000000        0.0000000000000000     
   7.1874999999999994E-002  0.91562500000000002        0.0000000000000000     
   8.2812499999999997E-002  0.91718750000000004        0.0000000000000000     
   8.4375000000000006E-002  0.92812499999999998        0.0000000000000000     
   7.3437500000000003E-002  0.92656249999999996        0.0000000000000000     
  0.10937500000000000       0.90625000000000000        0.0000000000000000     
  0.12500000000000000       0.90625000000000000        0.0000000000000000     
  0.12500000000000000       0.92187500000000000        0.0000000000000000     
  0.10312499999999999       0.91562500000000002        0.0000000000000000     
  0.11406250000000000       0.91718750000000004        0.0000000000000000     
  0.11562500000000001       0.92812499999999998        0.0000000000000000     
  0.10468750000000000       0.92656249999999996        0.0000000000000000     
   7.8125000000000000E-002  0.87500000000000000        0.0000000000000000     
   9.3750000000000000E-002  0.87500000000000000        0.0000000000000000     
   9.3750000000000000E-002  0.89062500000000000        0.0000000000000000     
   7.1874999999999994E-002  0.88437500000000002        0.0000000000000000     
   8.2812499999999997E-002  0.88593750000000004        0.0000000000000000     
   8.4375000000000006E-002  0.89687499999999998        0.0000000000000000     
   7.3437500000000003E-002  0.89531249999999996        0.0000000000000000     
  0.10937500000000000       0.87500000000000000        0.0000000000000000     
  0.12500000000000000       0.87500000000000000        0.0000000000000000     
  0.12500000000000000       0.89062500000000000        0.0000000000000000     
  0.10312499999999999       0.88437500000000002        0.0000000000000000     
  0.11406250000000000       0.88593750000000004        0.0000000000000000     
  0.11562500000000001       0.89687499999999998        0.0000000000000000     
  0.10468750000000000       0.89531249999999996        0.0000000000000000     
  0.14062500000000000       0.96875000000000000        0.0000000000000000     
  0.15625000000000000       0.96875000000000000        0.0000000000000000     
  0.15625000000000000       0.98437500000000000        0.0000000000000000     
  0.13437499999999999       0.97812500000000002        0.0000000000000000     
  0.14531250000000001       0.97968750000000004        0.0000000000000000     
  0.14687500000000001       0.99062499999999998        0.0000000000000000     
  0.13593749999999999       0.98906249999999996        0.0000000000000000     
  0.17187500000000000       0.96875000000000000        0.0000000000000000     
  0.18750000000000000       0.96875000000000000        0.0000000000000000     
  0.18750000000000000       0.98437500000000000        0.0000000000000000     
  0.16562499999999999       0.97812500000000002        0.0000000000000000     
  0.17656250000000001       0.97968750000000004        0.0000000000000000     
  0.17812500000000001       0.99062499999999998        0.0000000000000000     
[...]
 CELL_DATA       14336
 SCALARS Nutrients float
 LOOKUP_TABLE default
    0.23043845998474313079E-02
    0.23041565067406927225E-02
    0.23056447010046223281E-02
    0.23056447009730950300E-02
    0.23041565068555743510E-02
    0.23043845997345649944E-02
    0.23031680792378163639E-02
    0.23024444733482358864E-02
    0.23016643791136806932E-02
    0.23016643784322670004E-02
    0.23024444737036377923E-02
    0.23031680791027668402E-02
    0.23030436730812854293E-02
    0.23030436729691351229E-02
    0.23091203360991433176E-02
    0.23103777861186699030E-02
    0.23136411879370708151E-02
    0.23145709696964921094E-02
    0.23122023308182557827E-02
    0.23134385354199897208E-02
    0.23108549171449990420E-02
    0.23086041073213082152E-02
    0.23062038930034074909E-02
    0.23052956628941876326E-02
    0.23068018492841940031E-02
    0.23065806220273136866E-02
    0.23089416779776281499E-02
    0.23094732391599451411E-02
    0.23134385354653883016E-02
    0.23122023308198339474E-02
    0.23145709697210609980E-02
    0.23136411879421067174E-02
    0.23103777861581790976E-02
    0.23091203360671151180E-02
    0.23065806221044351555E-02
    0.23068018492230458680E-02
    0.23052956629966282580E-02
    0.23062038929300156774E-02
    0.23086041073857106916E-02
    0.23108549171574734385E-02
    0.23094732391986659038E-02
    0.23089416779801521726E-02
    0.23189122751923699900E-02
    0.23193109163992180026E-02
    0.23238202674385408097E-02
    0.23238202674340647895E-02
    0.23193109164024840532E-02
    0.23189122751704253043E-02
    0.23147097952074288489E-02
    0.23134155095830247380E-02
    0.23101010023992814627E-02
    0.23101010023657340790E-02
    0.23134155096100699443E-02
    0.23147097952036736063E-02
    0.23160358110504105679E-02
    0.23160358110426706654E-02
    0.23208085244167961717E-02
    0.23238171191253599070E-02
    0.23293754462719528341E-02
    0.23314688814569848284E-02
    0.23279155734522868036E-02
    0.23304431898411603376E-02
    0.23260719052174316963E-02
    0.23218527190008576670E-02
    0.23173941811730916843E-02
    0.23154128437746727270E-02
    0.23178344974484517416E-02
    0.23165822592689394067E-02
    0.23218955354342950270E-02
    0.23230841742143608190E-02
    0.23413531713611999800E-02
    0.23466301365391156741E-02
    0.23552416873100731100E-02
    0.23587903010623550992E-02
    0.23535588230070305336E-02
    0.23576716081433173738E-02
    0.23509216447851017870E-02
    0.23442212495334941932E-02
    0.23371279646259308233E-02
    0.23337736941217899177E-02
    0.23374445675111280886E-02
    0.23348828029649826288E-02
    0.23439887199510791964E-02
    0.23459981728442941794E-02
    0.23323896587333931701E-02
    0.23345233913093688290E-02
    0.23416843486051019431E-02
    0.23427159157592548737E-02
    0.23365026899024102236E-02
    0.23370665837636945585E-02
    0.23306652170962255388E-02
    0.23275717067822794711E-02
    0.23219701745566508413E-02
    0.23210202833436840465E-02
    0.23256541479560171454E-02
    0.23260954321780141080E-02
    0.23303767102415325757E-02
    0.23309472352025539278E-02
    0.23557086872611123635E-02
    0.23601112489587809141E-02
    0.23710741343938844007E-02
    0.23734605702653470763E-02
    0.23646696412019168818E-02
    0.23664180552156284174E-02
    0.23569079986480181120E-02
    0.23514666913206656168E-02
    0.23427848737908800285E-02
    0.23406288821661608464E-02
    0.23470871517902477769E-02
    0.23465347366311670348E-02
    0.23546396296128990940E-02
    0.23559490734253265599E-02
    0.23304431899065589789E-02
    0.23279155735013274363E-02
    0.23314688815105131907E-02
    0.23293754463147319823E-02
    0.23238171191677092775E-02
    0.23208085244338489371E-02
    0.23165822593045545807E-02
    0.23178344974669924661E-02
    0.23154128438227900531E-02
    0.23173941811981857604E-02
    0.23218527190550465253E-02
    0.23260719052761646627E-02
    0.23230841742616918817E-02
    0.23218955354729056348E-02
    0.23370665838106105885E-02
    0.23365026899368418825E-02
    0.23427159157976807334E-02
    0.23416843486347180096E-02
    0.23345233913324328449E-02
    0.23323896587377100295E-02
    0.23260954321864387925E-02
    0.23256541479645654290E-02
    0.23210202833695270895E-02
    0.23219701745732595176E-02
    0.23275717068171777706E-02
    0.23306652171345304016E-02
    0.23309472352324375755E-02
    0.23303767102637699959E-02
    0.23576716082823918896E-02
    0.23535588231278323397E-02
    0.23587903011892371111E-02
    0.23552416874220282600E-02
    0.23466301366331290129E-02
    0.23413531714309922423E-02
    0.23348828030260492319E-02
    0.23374445675845550302E-02
    0.23337736941944865407E-02
    0.23371279647076471410E-02
    0.23442212496391670422E-02
    0.23509216449159558819E-02
    0.23459981729475882888E-02
    0.23439887200444636979E-02
    0.23664180553401503379E-02
    0.23646696413116424784E-02
    0.23734605703860634472E-02
    0.23710741345009949017E-02
    0.23601112490419795531E-02
    0.23557086873179583844E-02
    0.23465347366761323683E-02
    0.23470871518497925939E-02
    0.23406288822243066089E-02
    0.23427848738591904032E-02
    0.23514666914103872497E-02
    0.23569079987572480114E-02
    0.23559490735152155937E-02
    0.23546396296941032346E-02
    0.23535126395839607583E-02
    0.23548815409828141761E-02
    0.23644461303309436025E-02
    0.23644461303240541482E-02
    0.23548815409721421572E-02
    0.23535126395568969036E-02
    0.23444302796514181197E-02
    0.23421780276639816640E-02
    0.23348505117961877546E-02
    0.23348505117976280088E-02
    0.23421780276774804147E-02
    0.23444302796791871395E-02
    0.23480360375395183288E-02
    0.23480360375356073947E-02
    0.23821019738072199412E-02
    0.23860086414354921870E-02
    0.24006172877455295156E-02
    0.24020134942195213619E-02
    0.23885653771883908099E-02
    0.23880427115058784626E-02
    0.23746451075794205131E-02
    0.23699700182985812894E-02
    0.23587713297022706513E-02
    0.23576530312420730835E-02
    0.23676248400202417645E-02
    0.23690823978917002757E-02
    0.23769991695965441390E-02
    0.23777175798431918023E-02
    0.23880427116241315262E-02
    0.23885653772849294724E-02
    0.24020134943223822241E-02
    0.24006172878266863850E-02
    0.23860086414938339733E-02
    0.23821019738360918114E-02
    0.23690823979058079143E-02
    0.23676248400585808880E-02
    0.23576530312810323707E-02
    0.23587713297565566541E-02
    0.23699700183770584447E-02
    0.23746451076881993844E-02
    0.23777175799167367051E-02
    0.23769991696584126181E-02
    0.24256508632008594306E-02
    0.24289825364829497473E-02
    0.24492874868739344767E-02
    0.24492874868566696413E-02
    0.24289825364511917309E-02
    0.24256508631272941448E-02
    0.24066249369123020839E-02
    0.24023752304808262611E-02
    0.23872778584146403004E-02
    0.23872778584291798852E-02
    0.24023752305127846381E-02
    0.24066249369881836592E-02
    0.24146935844711588451E-02
    0.24146935844618425127E-02
    0.23737748586575963504E-02
    0.23821301599636799870E-02
    0.23952722993182467767E-02
    0.24008740711712862025E-02
    0.23930025813697981991E-02
    0.23993897043630965302E-02
    0.23891253697299282867E-02
    0.23788496674067593530E-02
    0.23680257856272786746E-02
    0.23628214720870731845E-02
    0.23682888426772865341E-02
    0.23640907486283625413E-02
    0.23783078398509501471E-02
    0.23814488057888939278E-02
    0.24239394513156766256E-02
    0.24369443408827537977E-02
    0.24574083124220789942E-02
    0.24660822941760516570E-02
    0.24537265772507973333E-02
    0.24634787904344750999E-02
    0.24476266935908423672E-02
    0.24318515655904651522E-02
    0.24152316078102707524E-02
    0.24072624428114839518E-02
    0.24155990768043788738E-02
    0.24090567700568743005E-02
    0.24310293173437323710E-02
    0.24358713511255965234E-02
    0.23931789633887352517E-02
    0.24008378625081693361E-02
    0.24178004157479884503E-02
    0.24221250276237112770E-02
    0.24089604729465663793E-02
    0.24121848330263704827E-02
    0.23976713514765189868E-02
    0.23889653921189048930E-02
    0.23757154569227080347E-02
    0.23719987420848208381E-02
    0.23813156932700400674E-02
    0.23795275219732430448E-02
    0.23930713363279360745E-02
    0.23953823480405058571E-02
    0.24529078459440078162E-02
    0.24656324274178543013E-02
    0.24926702422895376070E-02
    0.24998707436783701441E-02
    0.24789654218107999052E-02
    0.24840956465788702721E-02
    0.24612051082174937235E-02
    0.24475046515174585585E-02
    0.24268647018226420335E-02
    0.24209015378223036619E-02
    0.24351257096804565516E-02
    0.24317579076283462811E-02
    0.24536559900299819391E-02
    0.24574222459474302956E-02
    0.25023388988442748365E-02
    0.25225022023605309270E-02
    0.25548720481776894010E-02
    0.25680169381628514466E-02
    0.25480699944551575727E-02
    0.25627426490430660518E-02
    0.25380220383598934078E-02
    0.25136894478125790600E-02
    0.24879291543102189516E-02
    0.24756519138763319679E-02
    0.24887777992589101006E-02
    0.24788395626553021665E-02
    0.25128055034337472805E-02
    0.25202017670937137614E-02
    0.26260462771889297312E-02
    0.26567774135626237401E-02
    0.27084406252758726381E-02
    0.27276198694958617326E-02
    0.26947824441729971608E-02
    0.27161754905549355746E-02
    0.26777731570489225234E-02
    0.26404641134013754483E-02
    0.26004227776630153834E-02
    0.25816095079443934779E-02
    0.26027029429052171532E-02
    0.25880525256222609680E-02
    0.26402516015066801111E-02
    0.26513516556939528343E-02
    0.25498140522915674171E-02
    0.25705739913469338384E-02
    0.26151479061245490494E-02
    0.26265186683295609592E-02
    0.25914521831967669493E-02
    0.25986208069499797634E-02
    0.25613983334340814473E-02
    0.25401130096172398233E-02
    0.25071463765610449599E-02
    0.24978890750758549200E-02
    0.25208190921456549195E-02
    0.25154527802743681733E-02
    0.25507097126993786423E-02
    0.25565963193985678792E-02
    0.27100705959863880326E-02
    0.27431767238686017261E-02
    0.28181622007713755772E-02
    0.28347490865144406996E-02
    0.27738552145766441973E-02
    0.27819352711069846550E-02
    0.27203082259968981195E-02
    0.26880452722425848301E-02
    0.26345640737862889742E-02
    0.26206948872623900965E-02
    0.26593873913590805949E-02
    0.26521213377220615934E-02
    0.27082415901408243494E-02
    0.27169347879746051123E-02
    0.24288027842456405211E-02
    0.24365432198692579986E-02
    0.24593074326734742918E-02
    0.24628374739252747311E-02
    0.24428267076958337309E-02
    0.24434011471463801431E-02
    0.24228585990166552448E-02
    0.24145762463350455528E-02
    0.23973152573303576664E-02
    0.23946849268138862762E-02
    0.24089877788908372648E-02
    0.24095216505643458557E-02
    0.24238314032858374394E-02
    0.24255686232505326884E-02
    0.25050954576596026410E-02
    0.25193180429496433992E-02
    0.25563826564644598870E-02
    0.25635293612949468060E-02
    0.25316736100722816646E-02
    0.25336453655947287038E-02
    0.25005643806651268492E-02
    0.24865619499202743642E-02
    0.24590228189783065564E-02
    0.24541118905374464422E-02
    0.24759153629544256026E-02
    0.24751090935662975814E-02
    0.25000418828800595808E-02
    0.25034107089318825660E-02
    0.24869178675492459307E-02
    0.24948775295063501702E-02
    0.25263004503907333757E-02
    0.25288159468395041661E-02
    0.24991477971794311477E-02
    0.24967583513309573456E-02
    0.24676943362318161379E-02
    0.24590933715599437061E-02
    0.24357319181524351645E-02
    0.24340907787091252586E-02
    0.24554871371304438400E-02
    0.24590734113731516769E-02
    0.24751213680195525979E-02
    0.24762744036876949139E-02
    0.25875902706810572848E-02
    0.26041742911393655525E-02
    0.26552478122156795981E-02
    0.26628719502293273294E-02
    0.26166529532456084435E-02
    0.26161526608266699213E-02
    0.25690790658766003360E-02
    0.25527903420096620044E-02
    0.25150946945475755392E-02
    0.25106828826201832948E-02
    0.25427531644497988576E-02
    0.25449843617781657198E-02
    0.25751017339552709044E-02
    0.25783982923309710367E-02
    0.26336059989922320536E-02
    0.26591163608802020207E-02
    0.27222311436755392174E-02
    0.27352410287380382256E-02
    0.26811220180041933810E-02
    0.26843272599035654900E-02
    0.26285912129946193382E-02
    0.26053489624583777047E-02
    0.25597458467368138998E-02
    0.25513301136489766052E-02
    0.25868079605919289121E-02
    0.25841994899768942588E-02
    0.26273270675984329754E-02
    0.26332649915814044031E-02
    0.28566843709535937566E-02
    0.29013298214882791114E-02
    0.30124140219468169104E-02
    0.30339617048152061479E-02
    0.29373308148841446863E-02
    0.29394620196523182920E-02
    0.28426557900485256540E-02
    0.28052381820101385604E-02
    0.27275715866409960125E-02
    0.27141310645907167250E-02
    0.27753298983631898185E-02
    0.27710180521509381740E-02
    0.28451094770930956783E-02
    0.28547633795925468105E-02
    0.27604249920896079852E-02
    0.27938312601347571433E-02
    0.28820616864978464144E-02
    0.28994855610649512660E-02
    0.28217770395196264260E-02
    0.28241326119175943175E-02
    0.27433079186226904528E-02
    0.27133795446102055952E-02
    0.26493480664644274321E-02
    0.26400105023726976212E-02
    0.26915662157262990745E-02
    0.26908536385290364977E-02
    0.27475719532575651992E-02
    0.27548600194553518605E-02
    0.30712703513375988473E-02
    0.31362789102300585829E-02
    0.32962014009686379720E-02
    0.33308068635689350688E-02
    0.31909334812993067967E-02
    0.31954205987191285597E-02
    0.30504517614739451274E-02
    0.29971086435441351460E-02
    0.28838668702600087079E-02
    0.28663100808833212596E-02
    0.29553800530694460461E-02
    0.29499018244586016485E-02
    0.30559400514472696668E-02
    0.30700613763629757379E-02
    0.23993897046425769620E-02
    0.23930025816206357443E-02
    0.24008740714365848362E-02
    0.23952722995586673074E-02
    0.23821301601674210908E-02
    0.23737748588241445492E-02
    0.23640907487689258835E-02
    0.23682888428437063634E-02
    0.23628214722439251465E-02
    0.23680257858046268281E-02
    0.23788496676236999677E-02
    0.23891253699922644464E-02
    0.23814488060047035028E-02
    0.23783078400522144995E-02
    0.24121848332986205871E-02
    0.24089604731989669104E-02
    0.24221250279037589634E-02
    0.24178004160075338737E-02
    0.24008378627173657116E-02
    0.23931789635560593056E-02
    0.23795275221077999070E-02
    0.23813156934300574660E-02
    0.23719987422298706090E-02
    0.23757154570891105168E-02
    0.23889653923239661214E-02
    0.23976713517169924265E-02
    0.23953823482528021835E-02
    0.23930713365271434785E-02
    0.24634787909582080666E-02
    0.24537265777282149179E-02
    0.24660822946843590289E-02
    0.24574083128894963317E-02
    0.24369443412832125437E-02
    0.24239394516557418412E-02
    0.24090567703460514029E-02
    0.24155990771359747357E-02
    0.24072624431223351230E-02
    0.24152316081566690097E-02
    0.24318515660046403568E-02
    0.24476266940818181168E-02
    0.24358713515411352206E-02
    0.24310293177355096934E-02
    0.24840956471147263539E-02
    0.24789654223211859095E-02
    0.24998707442493296564E-02
    0.24926702428310692702E-02
    0.24656324278613944712E-02
    0.24529078463196604502E-02
    0.24317579079355341500E-02
    0.24351257100250433239E-02
    0.24209015381311009205E-02
    0.24268647021654741330E-02
    0.24475046519315995022E-02
    0.24612051086904921000E-02
    0.24574222463829781607E-02
    0.24536559904455453561E-02
    0.24434011474460857159E-02
    0.24428267079673266285E-02
    0.24628374742262319069E-02
    0.24593074329422185201E-02
    0.24365432200815877184E-02
    0.24288027844086980227E-02
    0.24095216506855826437E-02
    0.24089877790475868781E-02
    0.23946849269558833674E-02
    0.23973152574981175696E-02
    0.24145762465523786487E-02
    0.24228585992845984645E-02
    0.24255686234724788478E-02
    0.24238314034902589886E-02
    0.24967583516267732348E-02
    0.24991477974174395454E-02
    0.25288159470894630738E-02
    0.25263004505842539225E-02
    0.24948775296473237745E-02
    0.24869178676178681220E-02
    0.24590734114100783018E-02
    0.24554871372304458779E-02
    0.24340907788126787091E-02
    0.24357319183016985786E-02
    0.24590933717576154462E-02
    0.24676943365019646248E-02
    0.24762744038701362155E-02
    0.24751213681730777939E-02
    0.25336453662355164738E-02
    0.25316736106765036322E-02
    0.25635293619802840097E-02
    0.25563826570968919277E-02
    0.25193180434649863758E-02
    0.25050954580922214256E-02
    0.24751090939055839062E-02
    0.24759153633432725433E-02
    0.24541118908810977649E-02
    0.24590228193620664206E-02
    0.24865619504014775491E-02
    0.25005643812289137136E-02
    0.25034107094393884957E-02
    0.25000418833604903801E-02
    0.26161526615615408528E-02
    0.26166529539053571748E-02
    0.26628719509540501285E-02
    0.26552478128600864350E-02
    0.26041742916481738258E-02
    0.25875902710709433249E-02
    0.25449843620705954288E-02
    0.25427531648330135849E-02
    0.25106828829729987279E-02
    0.25150946949722284736E-02
    0.25527903425424307120E-02
    0.25690790665310698701E-02
    0.25783982928700059992E-02
    0.25751017344504581290E-02
    0.25627426499866081712E-02
    0.25480699953247362873E-02
    0.25680169390919970959E-02
    0.25548720490441894151E-02
    0.25225022031038404208E-02
    0.25023388994891357373E-02
    0.24788395632049102686E-02
    0.24887777998765930887E-02
    0.24756519144536618185E-02
    0.24879291549477814370E-02
    0.25136894485666512120E-02
    0.25380220392436426448E-02
    0.25202017678543197493E-02
    0.25128055041556329394E-02
    0.25986208079552966868E-02
    0.25914521841678334925E-02
    0.26265186694308432190E-02
    0.26151479071765269986E-02
    0.25705739922169956735E-02
    0.25498140530484359433E-02
    0.25154527808970953036E-02
    0.25208190928217286998E-02
    0.24978890756769374717E-02
    0.25071463772145018492E-02
    0.25401130104020061724E-02
    0.25613983343145034846E-02
    0.25565963202338888409E-02
    0.25507097135034741478E-02
    0.27161754922089545103E-02
    0.26947824457210175532E-02
    0.27276198711752037279E-02
    0.27084406268434294864E-02
    0.26567774149062581453E-02
    0.26260462783663121415E-02
    0.25880525266269564268E-02
    0.26027029440173943438E-02
    0.25816095089802762290E-02
    0.26004227787997076862E-02
    0.26404641147369763490E-02
    0.26777731585988021057E-02
    0.26513516570505230724E-02
    0.26402516028001224609E-02
    0.27819352729283597370E-02
    0.27738552163759865564E-02
    0.28347490885851688372E-02
    0.28181622027632622675E-02
    0.27431767255119503778E-02
    0.27100705974426849212E-02
    0.26521213389135499076E-02
    0.26593873926298566140E-02
    0.26206948883789734847E-02
    0.26345640749894467733E-02
    0.26880452736831954817E-02
    0.27203082275946491309E-02
    0.27169347895250176884E-02
    0.27082415916433763385E-02
    0.26843272611724680078E-02
    0.26811220192336474195E-02
    0.27352410301455781089E-02
    0.27222311450086889538E-02
    0.26591163619716995728E-02
    0.26336059999474813881E-02
    0.25841994907331261415E-02
    0.25868079614190949388E-02
    0.25513301143685177853E-02
    0.25597458475204379336E-02
    0.26053489634280868267E-02
    0.26285912141033838940E-02
    0.26332649926234220038E-02
    0.26273270685992964300E-02
    0.28241326135099347264E-02
    0.28217770410066738904E-02
    0.28994855627454832817E-02
    0.28820616880396816503E-02
    0.27938312613867847048E-02
    0.27604249931328338208E-02
    0.26908536393498755541E-02
    0.26915662166747287773E-02
    0.26400105032211036021E-02
    0.26493480674216361367E-02
    0.27133795457966445631E-02
    0.27433079200118435682E-02