# vtk DataFile Version 3.0
LAPLACIEN  2D
ASCII
DATASET UNSTRUCTURED_GRID
FIELD FieldData 1
TIME 1 1 double
13.7000
 POINTS        7297  float
   1.5625000000000000E-002  0.96875000000000000        0.0000000000000000     
   3.1250000000000000E-002  0.96875000000000000        0.0000000000000000     
   3.1250000000000000E-002  0.98437500000000000        0.0000000000000000     
   9.3749999999999997E-003  0.97812500000000002        0.0000000000000000     
   2.0312500000000001E-002  0.97968750000000004        0.0000000000000000     
   2.1874999999999999E-002  0.99062499999999998        0.0000000000000000     
   1.0937499999999999E-002  0.98906249999999996        0.0000000000000000     
   4.6875000000000000E-002  0.96875000000000000        0.0000000000000000     
   6.2500000000000000E-002  0.96875000000000000        0.0000000000000000     
   6.2500000000000000E-002  0.98437500000000000        0.0000000000000000     
   4.0625000000000001E-002  0.97812500000000002        0.0000000000000000     
   5.1562499999999997E-002  0.97968750000000004        0.0000000000000000     
   5.3124999999999999E-002  0.99062499999999998        0.0000000000000000     
   4.2187500000000003E-002  0.98906249999999996        0.0000000000000000     
   1.5625000000000000E-002  0.93750000000000000        0.0000000000000000     
   3.1250000000000000E-002  0.93750000000000000        0.0000000000000000     
   3.1250000000000000E-002  0.95312500000000000        0.0000000000000000     
   9.3749999999999997E-003  0.94687500000000002        0.0000000000000000     
   2.0312500000000001E-002  0.94843750000000004        0.0000000000000000     
   2.1874999999999999E-002  0.95937499999999998        0.0000000000000000     
   1.0937499999999999E-002  0.95781249999999996        0.0000000000000000     
   4.6875000000000000E-002  0.93750000000000000        0.0000000000000000     
   6.2500000000000000E-002  0.93750000000000000        0.0000000000000000     
   6.2500000000000000E-002  0.95312500000000000        0.0000000000000000     
   4.0625000000000001E-002  0.94687500000000002        0.0000000000000000     
   5.1562499999999997E-002  0.94843750000000004        0.0000000000000000     
   5.3124999999999999E-002  0.95937499999999998        0.0000000000000000     
   4.2187500000000003E-002  0.95781249999999996        0.0000000000000000     
   7.8125000000000000E-002  0.96875000000000000        0.0000000000000000     
   9.3750000000000000E-002  0.96875000000000000        0.0000000000000000     
   9.3750000000000000E-002  0.98437500000000000        0.0000000000000000     
   7.1874999999999994E-002  0.97812500000000002        0.0000000000000000     
   8.2812499999999997E-002  0.97968750000000004        0.0000000000000000     
   8.4375000000000006E-002  0.99062499999999998        0.0000000000000000     
   7.3437500000000003E-002  0.98906249999999996        0.0000000000000000     
  0.10937500000000000       0.96875000000000000        0.0000000000000000     
  0.12500000000000000       0.96875000000000000        0.0000000000000000     
  0.12500000000000000       0.98437500000000000        0.0000000000000000     
  0.10312499999999999       0.97812500000000002        0.0000000000000000     
  0.11406250000000000       0.97968750000000004        0.0000000000000000     
  0.11562500000000001       0.99062499999999998        0.0000000000000000     
  0.10468750000000000       0.98906249999999996        0.0000000000000000     
   7.8125000000000000E-002  0.93750000000000000        0.0000000000000000     
   9.3750000000000000E-002  0.93750000000000000        0.0000000000000000     
   9.3750000000000000E-002  0.95312500000000000        0.0000000000000000     
   7.1874999999999994E-002  0.94687500000000002        0.0000000000000000     
   8.2812499999999997E-002  0.94843750000000004        0.0000000000000000     
   8.4375000000000006E-002  0.95937499999999998        0.0000000000000000     
   7.3437500000000003E-002  0.95781249999999996        0.0000000000000000     
  0.10937500000000000       0.93750000000000000        0.0000000000000000     
  0.12500000000000000       0.93750000000000000        0.0000000000000000     
  0.12500000000000000       0.95312500000000000        0.0000000000000000     
  0.10312499999999999       0.94687500000000002        0.0000000000000000     
  0.11406250000000000       0.94843750000000004        0.0000000000000000     
  0.11562500000000001       0.95937499999999998        0.0000000000000000     
  0.10468750000000000       0.95781249999999996        0.0000000000000000     
   1.5625000000000000E-002  0.90625000000000000        0.0000000000000000     
   3.1250000000000000E-002  0.90625000000000000        0.0000000000000000     
   3.1250000000000000E-002  0.92187500000000000        0.0000000000000000     
   9.3749999999999997E-003  0.91562500000000002        0.0000000000000000     
   2.0312500000000001E-002  0.91718750000000004        0.0000000000000000     
   2.1874999999999999E-002  0.92812499999999998        0.0000000000000000     
   1.0937499999999999E-002  0.92656249999999996        0.0000000000000000     
   4.6875000000000000E-002  0.90625000000000000        0.0000000000000000     
   6.2500000000000000E-002  0.90625000000000000        0.0000000000000000     
   6.2500000000000000E-002  0.92187500000000000        0.0000000000000000     
   4.0625000000000001E-002  0.91562500000000002        0.0000000000000000     
   5.1562499999999997E-002  0.91718750000000004        0.0000000000000000     
   5.3124999999999999E-002  0.92812499999999998        0.0000000000000000     
   4.2187500000000003E-002  0.92656249999999996        0.0000000000000000     
   1.5625000000000000E-002  0.87500000000000000        0.0000000000000000     
   3.1250000000000000E-002  0.87500000000000000        0.0000000000000000     
   3.1250000000000000E-002  0.89062500000000000        0.0000000000000000     
   9.3749999999999997E-003  0.88437500000000002        0.0000000000000000     
   2.0312500000000001E-002  0.88593750000000004        0.0000000000000000     
   2.1874999999999999E-002  0.89687499999999998        0.0000000000000000     
   1.0937499999999999E-002  0.89531249999999996        0.0000000000000000     
   4.6875000000000000E-002  0.87500000000000000        0.0000000000000000     
   6.2500000000000000E-002  0.87500000000000000        0.0000000000000000     
   6.2500000000000000E-002  0.89062500000000000        0.0000000000000000     
   4.0625000000000001E-002  0.88437500000000002        0.0000000000000000     
   5.1562499999999997E-002  0.88593750000000004        0.0000000000000000     
   5.3124999999999999E-002  0.89687499999999998        0.0000000000000000     
   4.2187500000000003E-002  0.89531249999999996        0.0000000000000000     
   7.8125000000000000E-002  0.90625000000000000        0.0000000000000000     
   9.3750000000000000E-002  0.90625000000000000        0.0000000000000000     
   9.3750000000000000E-002  0.92187500000000000        0.0000000000000000     
   7.1874999999999994E-002  0.91562500000000002        0.0000000000000000     
   8.2812499999999997E-002  0.91718750000000004        0.0000000000000000     
   8.4375000000000006E-002  0.92812499999999998        0.0000000000000000     
   7.3437500000000003E-002  0.92656249999999996        0.0000000000000000     
  0.10937500000000000       0.90625000000000000        0.0000000000000000     
  0.12500000000000000       0.90625000000000000        0.0000000000000000     
  0.12500000000000000       0.92187500000000000        0.0000000000000000     
  0.10312499999999999       0.91562500000000002        0.0000000000000000     
  0.11406250000000000       0.91718750000000004        0.0000000000000000     
  0.11562500000000001       0.92812499999999998        0.0000000000000000     
  0.10468750000000000       0.92656249999999996        0.0000000000000000     
   7.8125000000000000E-002  0.87500000000000000        0.0000000000000000     
   9.3750000000000000E-002  0.87500000000000000        0.0000000000000000     
   9.3750000000000000E-002  0.89062500000000000        0.0000000000000000     
   7.1874999999999994E-002  0.88437500000000002        0.0000000000000000     
   8.2812499999999997E-002  0.88593750000000004        0.0000000000000000     
   8.4375000000000006E-002  0.89687499999999998        0.0000000000000000     
   7.3437500000000003E-002  0.89531249999999996        0.0000000000000000     
  0.10937500000000000       0.87500000000000000        0.0000000000000000     
  0.12500000000000000       0.87500000000000000        0.0000000000000000     
  0.12500000000000000       0.89062500000000000        0.0000000000000000     
  0.10312499999999999       0.88437500000000002        0.0000000000000000     
  0.11406250000000000       0.88593750000000004        0.0000000000000000     
  0.11562500000000001       0.89687499999999998        0.0000000000000000     
  0.10468750000000000       0.89531249999999996        0.0000000000000000     
  0.14062500000000000       0.96875000000000000        0.0000000000000000     
  0.15625000000000000       0.96875000000000000        0.0000000000000000     
  0.15625000000000000       0.98437500000000000        0.0000000000000000     
  0.13437499999999999       0.97812500000000002        0.0000000000000000     
  0.14531250000000001       0.97968750000000004        0.0000000000000000     
  0.14687500000000001       0.99062499999999998        0.0000000000000000     
  0.13593749999999999       0.98906249999999996        0.0000000000000000     
  0.17187500000000000       0.96875000000000000        0.0000000000000000     
  0.18750000000000000       0.96875000000000000        0.0000000000000000     
  0.18750000000000000       0.98437500000000000        0.0000000000000000     
  0.16562499999999999       0.97812500000000002        0.0000000000000000     
  0.17656250000000001       0.97968750000000004        0.0000000000000000     
[...]
 CELL_DATA       14336
 SCALARS Nutrient float
 LOOKUP_TABLE default
    0.78143928358842852655E-02
    0.78143099971455642211E-02
    0.78149618539500604469E-02
    0.78149618538453959060E-02
    0.78143099975649804589E-02
    0.78143928355235252325E-02
    0.78138763624383093809E-02
    0.78135703874156938603E-02
    0.78132400458315147407E-02
    0.78132400434269295292E-02
    0.78135703886530617074E-02
    0.78138763619228866070E-02
    0.78138283817247543295E-02
    0.78138283813341865430E-02
    0.78165363892481361241E-02
    0.78171073854968950445E-02
    0.78186567059159717274E-02
    0.78190859916506365301E-02
    0.78179243539505116622E-02
    0.78184805859699627040E-02
    0.78172632732889518747E-02
    0.78162504150114508333E-02
    0.78151806010296979293E-02
    0.78147986652350211190E-02
    0.78154639190979383057E-02
    0.78153820366778387757E-02
    0.78164262805952549468E-02
    0.78166549651835729590E-02
    0.78184805860332662331E-02
    0.78179243538844690048E-02
    0.78190859916757379788E-02
    0.78186567058878084918E-02
    0.78171073855983243261E-02
    0.78165363891191871892E-02
    0.78153820369337764079E-02
    0.78154639188466080990E-02
    0.78147986655588020516E-02
    0.78151806007197462123E-02
    0.78162504151703584426E-02
    0.78172632732323547866E-02
    0.78166549652611706095E-02
    0.78164262805567926579E-02
    0.78213556858638729613E-02
    0.78216051418016283026E-02
    0.78240269935326012263E-02
    0.78240269935231782084E-02
    0.78216051418306641041E-02
    0.78213556858306009650E-02
    0.78192087808934274129E-02
    0.78185965143610994255E-02
    0.78169996622901617711E-02
    0.78169996621645903428E-02
    0.78185965144395176002E-02
    0.78192087808402321175E-02
    0.78199139206803509189E-02
    0.78199139206578411471E-02
    0.78222623339606403570E-02
    0.78238048564336602764E-02
    0.78268260201455365499E-02
    0.78279511874406095678E-02
    0.78259526101045803065E-02
    0.78273046634355965961E-02
    0.78249182136027710388E-02
    0.78227033187064660275E-02
    0.78204122146651247616E-02
    0.78194442318879082282E-02
    0.78206665790320952641E-02
    0.78200787742084311438E-02
    0.78227498993540985073E-02
    0.78233586675409052397E-02
    0.78337119178984657153E-02
    0.78368195035998702153E-02
    0.78421563580772495755E-02
    0.78443254127542830917E-02
    0.78409564273238929050E-02
    0.78434552674606777822E-02
    0.78392373386273750402E-02
    0.78352262558523538827E-02
    0.78310557381972827756E-02
    0.78291607915612349000E-02
    0.78313036820162763157E-02
    0.78298883980405294819E-02
    0.78351459171234569961E-02
    0.78363258459046517684E-02
    0.78288614827741603852E-02
    0.78300665998382243393E-02
    0.78343135968971956001E-02
    0.78348796452240541954E-02
    0.78311038814032132849E-02
    0.78313200116586541982E-02
    0.78275962202534760809E-02
    0.78259519888491998335E-02
    0.78229049791282787712E-02
    0.78224458533873667682E-02
    0.78249978137526661481E-02
    0.78252834714887392620E-02
    0.78276182183285303307E-02
    0.78279095337178278280E-02
    0.78430713030600267971E-02
    0.78458430278421920079E-02
    0.78531521435369587569E-02
    0.78546637424717433845E-02
    0.78486209164097039265E-02
    0.78495844517202234547E-02
    0.78433013963742827940E-02
    0.78399942418339724215E-02
    0.78346220380916490461E-02
    0.78334060552576675884E-02
    0.78374470463398581560E-02
    0.78372203233074318185E-02
    0.78421744262431817424E-02
    0.78429532837653807148E-02
    0.78273046634657096610E-02
    0.78259526101086048649E-02
    0.78279511874601009208E-02
    0.78268260201527096315E-02
    0.78238048564638115051E-02
    0.78222623339373933277E-02
    0.78200787742663275398E-02
    0.78206665789955706614E-02
    0.78194442319478498632E-02
    0.78204122146304701907E-02
    0.78227033187442986117E-02
    0.78249182136139322497E-02
    0.78233586675653353504E-02
    0.78227498993611605665E-02
    0.78313200116777084009E-02
    0.78311038814070799835E-02
    0.78348796452394741524E-02
    0.78343135969056853368E-02
    0.78300665998533199030E-02
    0.78288614827657400375E-02
    0.78252834715076182576E-02
    0.78249978137339155221E-02
    0.78224458534226579826E-02
    0.78229049791092748756E-02
    0.78259519888724954351E-02
    0.78275962202540814994E-02
    0.78279095337326683873E-02
    0.78276182183315209939E-02
    0.78434552675188101006E-02
    0.78409564273695577657E-02
    0.78443254128057748886E-02
    0.78421563581203349025E-02
    0.78368195036383585250E-02
    0.78337119179170966454E-02
    0.78298883980673691235E-02
    0.78313036820349280626E-02
    0.78291607915910426535E-02
    0.78310557382204309257E-02
    0.78352262558964280020E-02
    0.78392373386806137037E-02
    0.78363258459458202260E-02
    0.78351459171567428702E-02
    0.78495844517732869111E-02
    0.78486209164555648110E-02
    0.78546637425290742607E-02
    0.78531521435878156451E-02
    0.78458430278807896052E-02
    0.78430713030814731834E-02
    0.78372203233272232786E-02
    0.78374470463568983447E-02
    0.78334060552828661816E-02
    0.78346220381113294839E-02
    0.78399942418710955039E-02
    0.78433013964156247239E-02
    0.78429532838035272840E-02
    0.78421744262759558730E-02
    0.78417792827545941547E-02
    0.78427156968379034552E-02
    0.78490135462436685237E-02
    0.78490135462398521321E-02
    0.78427156968364775125E-02
    0.78417792827423678237E-02
    0.78360387876059891393E-02
    0.78347085542310630768E-02
    0.78303027697844921479E-02
    0.78303027697758723069E-02
    0.78347085542421843890E-02
    0.78360387876130546680E-02
    0.78383476816388866770E-02
    0.78383476816357815220E-02
    0.78612376063292646600E-02
    0.78640094822152849935E-02
    0.78746105116705832766E-02
    0.78755980845784598343E-02
    0.78657292704272050582E-02
    0.78652040505639304185E-02
    0.78557003448874330315E-02
    0.78526306409899479521E-02
    0.78451113155675235994E-02
    0.78444407560547997627E-02
    0.78511530885124695273E-02
    0.78521687163232642415E-02
    0.78575839471128894331E-02
    0.78580520135863220904E-02
    0.78652040506259467828E-02
    0.78657292704787558357E-02
    0.78755980846390138267E-02
    0.78746105117189057337E-02
    0.78640094822495839461E-02
    0.78612376063463221959E-02
    0.78521687163305101814E-02
    0.78511530885289407267E-02
    0.78444407560737498819E-02
    0.78451113155890983553E-02
    0.78526306410302663952E-02
    0.78557003449418842667E-02
    0.78580520136252527547E-02
    0.78575839471451153911E-02
    0.78936553421005122705E-02
    0.78962869876594513757E-02
    0.79122695991112722974E-02
    0.79122695991000191462E-02
    0.78962869876402792119E-02
    0.78936553420552654781E-02
    0.78791338122897267709E-02
    0.78760095939335427601E-02
    0.78649307699218025391E-02
    0.78649307699298291047E-02
    0.78760095939541634180E-02
    0.78791338123371506413E-02
    0.78852759421527626738E-02
    0.78852759421468455320E-02
    0.78542604843609871434E-02
    0.78598474519520830639E-02
    0.78690930359219066897E-02
    0.78729759768793455832E-02
    0.78672223760119213559E-02
    0.78716330040192825784E-02
    0.78643532961850757396E-02
    0.78573431047493074580E-02
    0.78500849456307215252E-02
    0.78467282295607114484E-02
    0.78503814203566089219E-02
    0.78477474382619011317E-02
    0.78570790996302236620E-02
    0.78591780714468359448E-02
    0.78902411313732725984E-02
    0.79000060775195023177E-02
    0.79160944938688887484E-02
    0.79227950345491394285E-02
    0.79127490466991898255E-02
    0.79202534623240596068E-02
    0.79077248199647849625E-02
    0.78956592227075531043E-02
    0.78831097085640920719E-02
    0.78773016380237342871E-02
    0.78835934855768213109E-02
    0.78789518020950435190E-02
    0.78952122636325276772E-02
    0.78988463839542080031E-02
    0.78686525905533911962E-02
    0.78740829002579698637E-02
    0.78867692797134937577E-02
    0.78898817321912256828E-02
    0.78797227544687344775E-02
    0.78818025004336964706E-02
    0.78709702450198201079E-02
    0.78649732681627462783E-02
    0.78556769885260255976E-02
    0.78532880757435780117E-02
    0.78598973663287080571E-02
    0.78588502580470530334E-02
    0.78682085879522283695E-02
    0.78697769115262244943E-02
    0.79141834270617539976E-02
    0.79242114685163338172E-02
    0.79464948823276398970E-02
    0.79522303431196934842E-02
    0.79345239354484224659E-02
    0.79382406632877780539E-02
    0.79193690862604960296E-02
    0.79088207584992759741E-02
    0.78926401184424409968E-02
    0.78883157360071509689E-02
    0.78995995270270281258E-02
    0.78973062375381260919E-02
    0.79141958183218934914E-02
    0.79170546120964531422E-02
    0.79527082633212894253E-02
    0.79693083358001234190E-02
    0.79969878070071317988E-02
    0.80079986871473014115E-02
    0.79904815283587081465E-02
    0.80027377124224623878E-02
    0.79815495096940032582E-02
    0.79612195533421796501E-02
    0.79398752458208505384E-02
    0.79299828972340183353E-02
    0.79409006424945305369E-02
    0.79331048988399797267E-02
    0.79607765521696877142E-02
    0.79668528470281125414E-02
    0.80593759865638225220E-02
    0.80863820688489868732E-02
    0.81332183590767919562E-02
    0.81502059037438269462E-02
    0.81198383331366422860E-02
    0.81387560054383776414E-02
    0.81039561238260351961E-02
    0.80707772790693712434E-02
    0.80353225614935765847E-02
    0.80190195373497068915E-02
    0.80378161206121102877E-02
    0.80254455397534511102E-02
    0.80710383182291331461E-02
    0.80807650208729701891E-02
    0.79951533079995005387E-02
    0.80128964780318834293E-02
    0.80524057767064477487E-02
    0.80621532834571196097E-02
    0.80304029315762942565E-02
    0.80359904310754650542E-02
    0.80029924832441794863E-02
    0.79851511206025255901E-02
    0.79569885434182772987E-02
    0.79495922501464540144E-02
    0.79694178842122861961E-02
    0.79653653363192505193E-02
    0.79950370314551370832E-02
    0.79999050396128996293E-02
    0.81383857149731307634E-02
    0.81683186917055373988E-02
    0.82381144695415683271E-02
    0.82530221664226625922E-02
    0.81954737410605705411E-02
    0.82019109731537517827E-02
    0.81445685991180256230E-02
    0.81158787628555252580E-02
    0.80673670565857575482E-02
    0.80554829648887636001E-02
    0.80909871779317518031E-02
    0.80851712471077998717E-02
    0.81354008338490081675E-02
    0.81430226835537758423E-02
    0.78960250361075796921E-02
    0.79020348026721740076E-02
    0.79201680186549924811E-02
    0.79229535734370876848E-02
    0.79067817836935214149E-02
    0.79069961275115736854E-02
    0.78908026091814367775E-02
    0.78846990348027355677E-02
    0.78717628179639231867E-02
    0.78699662859502469286E-02
    0.78807173182779827192E-02
    0.78812226680355420422E-02
    0.78919975978046785769E-02
    0.78932733387007715520E-02
    0.79580987070488884427E-02
    0.79701252886677162457E-02
    0.80020838051176410716E-02
    0.80082361317739842593E-02
    0.79804119712814335086E-02
    0.79817581383619402163E-02
    0.79533630162320501783E-02
    0.79419787366890644970E-02
    0.79192690288933855619E-02
    0.79155009975140615958E-02
    0.79335185589723428851E-02
    0.79330145819440315430E-02
    0.79535942700780098980E-02
    0.79563381847177778311E-02
    0.79429794271391723076E-02
    0.79496430147905985941E-02
    0.79761210607399990469E-02
    0.79783017978477064475E-02
    0.79532157022288354348E-02
    0.79511712603565348756E-02
    0.79270675404138554732E-02
    0.79201635078538848433E-02
    0.79014666875531856111E-02
    0.79002109901724678481E-02
    0.79172947194837747092E-02
    0.79201684367932109754E-02
    0.79332569466997980567E-02
    0.79341993195269633343E-02
    0.80294067567879840591E-02
    0.80442334373575178491E-02
    0.80898891791712102678E-02
    0.80969324096000720031E-02
    0.80554870572004527718E-02
    0.80550697867261197849E-02
    0.80132903229185453720E-02
    0.79991347844946408818E-02
    0.79666059859658869269E-02
    0.79628865426259864274E-02
    0.79904100820553294188E-02
    0.79922568042829090357E-02
    0.80186009766714753250E-02
    0.80215248881069442510E-02
    0.80706661712335869829E-02
    0.80936677564633942306E-02
    0.81513729978585271890E-02
    0.81632353672464949557E-02
    0.81132600183495048179E-02
    0.81156748659511300514E-02
    0.80648236240213576342E-02
    0.80444879507597898127E-02
    0.80040538243115865596E-02
    0.79970004794551931976E-02
    0.80285303361183057991E-02
    0.80264596397194055977E-02
    0.80646657623867201020E-02
    0.80698695363321769347E-02
    0.82767499414626733573E-02
    0.83187398004484994912E-02
    0.84243071184423121839E-02
    0.84446576043379021487E-02
    0.83521855565580251785E-02
    0.83534667408128853577E-02
    0.82615906625602853613E-02
    0.82272014231229984027E-02
    0.81548586218163406775E-02
    0.81429014192718127130E-02
    0.82000748785353658882E-02
    0.81964334393245432547E-02
    0.82653126552365199092E-02
    0.82741823562189498881E-02
    0.81862910581474747362E-02
    0.82176344456087024176E-02
    0.83001549321389846148E-02
    0.83168511003595593095E-02
    0.82440221507966565673E-02
    0.82463021924014910657E-02
    0.81709620056634596486E-02
    0.81434465001325468531E-02
    0.80849148681482688877E-02
    0.80764850331606734268E-02
    0.81233334917267408654E-02
    0.81224682277781720674E-02
    0.81748563055844460784E-02
    0.81816658275818722468E-02
    0.84801807241532481396E-02
    0.85429952165315525131E-02
    0.86971235144629975566E-02
    0.87309628610856906961E-02
    0.85959691391237751795E-02
    0.86003283385618321810E-02
    0.84608683873594950353E-02
    0.84100472977150595583E-02
    0.83024427042236795260E-02
    0.82859089628787782611E-02
    0.83702029757150436806E-02
    0.83646960202712651589E-02
    0.84661379198151202191E-02
    0.84797352477868799536E-02
    0.78716330041598524259E-02
    0.78672223761343858944E-02
    0.78729759770126261226E-02
    0.78690930360401940141E-02
    0.78598474520488060407E-02
    0.78542604844345272758E-02
    0.78477474383209407105E-02
    0.78503814204279372818E-02
    0.78467282296284870946E-02
    0.78500849457083989730E-02
    0.78573431048532711707E-02
    0.78643532963172651379E-02
    0.78591780715490701381E-02
    0.78570790997234633141E-02
    0.78818025005767712587E-02
    0.78797227546038503543E-02
    0.78898817323516702571E-02
    0.78867692798637884649E-02
    0.78740829003724702867E-02
    0.78686525906417875004E-02
    0.78588502581118796497E-02
    0.78598973664046438425E-02
    0.78532880758092910717E-02
    0.78556769886011373893E-02
    0.78649732682642050502E-02
    0.78709702451398872586E-02
    0.78697769116358156499E-02
    0.78682085880547158324E-02
    0.79202534626352759373E-02
    0.79127490469775210030E-02
    0.79227950348525668506E-02
    0.79160944941440870154E-02
    0.79000060777465273137E-02
    0.78902411315588671936E-02
    0.78789518022429165522E-02
    0.78835934857525557379E-02
    0.78773016381853740858E-02
    0.78831097087494073766E-02
    0.78956592229422386392E-02
    0.79077248202557483964E-02
    0.78988463841891433381E-02
    0.78952122638509380365E-02
    0.79382406636209802697E-02
    0.79345239357711018491E-02
    0.79522303434989647514E-02
    0.79464948826904226176E-02
    0.79242114687995170164E-02
    0.79141834272973155678E-02
    0.78973062377164712777E-02
    0.78995995272269602105E-02
    0.78883157361763142634E-02
    0.78926401186323845438E-02
    0.79088207587434192214E-02
    0.79193690865430321768E-02
    0.79170546123625354373E-02
    0.79141958185756072081E-02
    0.79069961276982212578E-02
    0.79067817838667456970E-02
    0.79229535736404631957E-02
    0.79201680188383145886E-02
    0.79020348028115607736E-02
    0.78960250362148619308E-02
    0.78812226681076076595E-02
    0.78807173183697981633E-02
    0.78699662860283719351E-02
    0.78717628180553639305E-02
    0.78846990349319776709E-02
    0.78908026093425249342E-02
    0.78932733388382414486E-02
    0.78919975979315649256E-02
    0.79511712605680410354E-02
    0.79532157024013484803E-02
    0.79783017980367652855E-02
    0.79761210608874175826E-02
    0.79496430148957887563E-02
    0.79429794271919963722E-02
    0.79201684368170183204E-02
    0.79172947195515659680E-02
    0.79002109902400908387E-02
    0.79014666876518757643E-02
    0.79201635079913287191E-02
    0.79270675406033445226E-02
    0.79341993196567744268E-02
    0.79332569468091099218E-02
    0.79817581388171299217E-02
    0.79804119717179940185E-02
    0.80082361322906282786E-02
    0.80020838055964611801E-02
    0.79701252890455182021E-02
    0.79580987073654494562E-02
    0.79330145821761670344E-02
    0.79335185592361058549E-02
    0.79155009977346525024E-02
    0.79192690291396868052E-02
    0.79419787370166791685E-02
    0.79533630166199065920E-02
    0.79563381850750198448E-02
    0.79535942704167562900E-02
    0.80550697873055972231E-02
    0.80554870577261815379E-02
    0.80969324101942477534E-02
    0.80898891797017494221E-02
    0.80442334377668761602E-02
    0.80294067571021112556E-02
    0.79922568045051080310E-02
    0.79904100823467352072E-02
    0.79628865428847585978E-02
    0.79666059862795457480E-02
    0.79991347849027710087E-02
    0.80132903234241565499E-02
    0.80215248885285705266E-02
    0.80186009770590767343E-02
    0.80027377130643829323E-02
    0.79904815289426125990E-02
    0.80079986877833516518E-02
    0.79969878075954042851E-02
    0.79693083362880109272E-02
    0.79527082637335464593E-02
    0.79331048991730206132E-02
    0.79409006428788116855E-02
    0.79299828975861307717E-02
    0.79398752462192488666E-02
    0.79612195538345548879E-02
    0.79815495102920942794E-02
    0.79668528475253554133E-02
    0.79607765526367637449E-02
    0.80359904317892603964E-02
    0.80304029322736461549E-02
    0.80621532842790766954E-02
    0.80524057774950703881E-02
    0.80128964786603563974E-02
    0.79951533085391313788E-02
    0.79653653367384082834E-02
    0.79694178846666206828E-02
    0.79495922505319963070E-02
    0.79569885438408663458E-02
    0.79851511211352331487E-02
    0.80029924838483819383E-02
    0.79999050401963669316E-02
    0.79950370320165126820E-02
    0.81387560066880863113E-02
    0.81198383342976528099E-02
    0.81502059050267607748E-02
    0.81332183602657141808E-02
    0.80863820698401679687E-02
    0.80593759874152889888E-02
    0.80254455404508515809E-02
    0.80378161213979920641E-02
    0.80190195380691105947E-02
    0.80353225622977215298E-02
    0.80707772800462252577E-02
    0.81039561249899288303E-02
    0.80807650218685002363E-02
    0.80710383191713117729E-02
    0.82019109745805670458E-02
    0.81954737424856267947E-02
    0.82530221681123838717E-02
    0.82381144711706159184E-02
    0.81683186930115152941E-02
    0.81383857161198471658E-02
    0.80851712480061524446E-02
    0.80909871788884916988E-02
    0.80554829656987961967E-02
    0.80673670574647159126E-02
    0.81158787639472283748E-02
    0.81445686003388337998E-02
    0.81430226847552088926E-02
    0.81354008350130978255E-02
    0.81156748669471753116E-02
    0.81132600193266693478E-02
    0.81632353683998570837E-02
    0.81513729989546018090E-02
    0.80936677573377746597E-02
    0.80706661719969017416E-02
    0.80264596402952609333E-02
    0.80285303367444386252E-02
    0.79970004799770622039E-02
    0.80040538248805897376E-02
    0.80444879514951304206E-02
    0.80648236248694986361E-02
    0.80698695371429519929E-02
    0.80646657631663464655E-02
    0.82463021937525683019E-02
    0.82440221520668505867E-02
    0.83168511018250727840E-02
    0.83001549334857007562E-02
    0.82176344466829160523E-02
    0.81862910590406109956E-02
    0.81224682284563830270E-02
    0.81233334925087542083E-02
    0.80764850338414847369E-02
    0.80849148689190325490E-02
    0.81434465011150074937E-02
    0.81709620068210753185E-02