# vtk DataFile Version 3.0
LAPLACIEN  2D
ASCII
DATASET UNSTRUCTURED_GRID
 POINTS        7297  float
   1.5625000000000000E-002  0.96875000000000000        0.0000000000000000     
   3.1250000000000000E-002  0.96875000000000000        0.0000000000000000     
   3.1250000000000000E-002  0.98437500000000000        0.0000000000000000     
   9.3749999999999997E-003  0.97812500000000002        0.0000000000000000     
   2.0312500000000001E-002  0.97968750000000004        0.0000000000000000     
   2.1874999999999999E-002  0.99062499999999998        0.0000000000000000     
   1.0937499999999999E-002  0.98906249999999996        0.0000000000000000     
   4.6875000000000000E-002  0.96875000000000000        0.0000000000000000     
   6.2500000000000000E-002  0.96875000000000000        0.0000000000000000     
   6.2500000000000000E-002  0.98437500000000000        0.0000000000000000     
   4.0625000000000001E-002  0.97812500000000002        0.0000000000000000     
   5.1562499999999997E-002  0.97968750000000004        0.0000000000000000     
   5.3124999999999999E-002  0.99062499999999998        0.0000000000000000     
   4.2187500000000003E-002  0.98906249999999996        0.0000000000000000     
   1.5625000000000000E-002  0.93750000000000000        0.0000000000000000     
   3.1250000000000000E-002  0.93750000000000000        0.0000000000000000     
   3.1250000000000000E-002  0.95312500000000000        0.0000000000000000     
   9.3749999999999997E-003  0.94687500000000002        0.0000000000000000     
   2.0312500000000001E-002  0.94843750000000004        0.0000000000000000     
   2.1874999999999999E-002  0.95937499999999998        0.0000000000000000     
   1.0937499999999999E-002  0.95781249999999996        0.0000000000000000     
   4.6875000000000000E-002  0.93750000000000000        0.0000000000000000     
   6.2500000000000000E-002  0.93750000000000000        0.0000000000000000     
   6.2500000000000000E-002  0.95312500000000000        0.0000000000000000     
   4.0625000000000001E-002  0.94687500000000002        0.0000000000000000     
   5.1562499999999997E-002  0.94843750000000004        0.0000000000000000     
   5.3124999999999999E-002  0.95937499999999998        0.0000000000000000     
   4.2187500000000003E-002  0.95781249999999996        0.0000000000000000     
   7.8125000000000000E-002  0.96875000000000000        0.0000000000000000     
   9.3750000000000000E-002  0.96875000000000000        0.0000000000000000     
   9.3750000000000000E-002  0.98437500000000000        0.0000000000000000     
   7.1874999999999994E-002  0.97812500000000002        0.0000000000000000     
   8.2812499999999997E-002  0.97968750000000004        0.0000000000000000     
   8.4375000000000006E-002  0.99062499999999998        0.0000000000000000     
   7.3437500000000003E-002  0.98906249999999996        0.0000000000000000     
  0.10937500000000000       0.96875000000000000        0.0000000000000000     
  0.12500000000000000       0.96875000000000000        0.0000000000000000     
  0.12500000000000000       0.98437500000000000        0.0000000000000000     
  0.10312499999999999       0.97812500000000002        0.0000000000000000     
  0.11406250000000000       0.97968750000000004        0.0000000000000000     
  0.11562500000000001       0.99062499999999998        0.0000000000000000     
  0.10468750000000000       0.98906249999999996        0.0000000000000000     
   7.8125000000000000E-002  0.93750000000000000        0.0000000000000000     
   9.3750000000000000E-002  0.93750000000000000        0.0000000000000000     
   9.3750000000000000E-002  0.95312500000000000        0.0000000000000000     
   7.1874999999999994E-002  0.94687500000000002        0.0000000000000000     
   8.2812499999999997E-002  0.94843750000000004        0.0000000000000000     
   8.4375000000000006E-002  0.95937499999999998        0.0000000000000000     
   7.3437500000000003E-002  0.95781249999999996        0.0000000000000000     
  0.10937500000000000       0.93750000000000000        0.0000000000000000     
  0.12500000000000000       0.93750000000000000        0.0000000000000000     
  0.12500000000000000       0.95312500000000000        0.0000000000000000     
  0.10312499999999999       0.94687500000000002        0.0000000000000000     
  0.11406250000000000       0.94843750000000004        0.0000000000000000     
  0.11562500000000001       0.95937499999999998        0.0000000000000000     
  0.10468750000000000       0.95781249999999996        0.0000000000000000     
   1.5625000000000000E-002  0.90625000000000000        0.0000000000000000     
   3.1250000000000000E-002  0.90625000000000000        0.0000000000000000     
   3.1250000000000000E-002  0.92187500000000000        0.0000000000000000     
   9.3749999999999997E-003  0.91562500000000002        0.0000000000000000     
   2.0312500000000001E-002  0.91718750000000004        0.0000000000000000     
   2.1874999999999999E-002  0.92812499999999998        0.0000000000000000     
   1.0937499999999999E-002  0.92656249999999996        0.0000000000000000     
   4.6875000000000000E-002  0.90625000000000000        0.0000000000000000     
   6.2500000000000000E-002  0.90625000000000000        0.0000000000000000     
   6.2500000000000000E-002  0.92187500000000000        0.0000000000000000     
   4.0625000000000001E-002  0.91562500000000002        0.0000000000000000     
   5.1562499999999997E-002  0.91718750000000004        0.0000000000000000     
   5.3124999999999999E-002  0.92812499999999998        0.0000000000000000     
   4.2187500000000003E-002  0.92656249999999996        0.0000000000000000     
   1.5625000000000000E-002  0.87500000000000000        0.0000000000000000     
   3.1250000000000000E-002  0.87500000000000000        0.0000000000000000     
   3.1250000000000000E-002  0.89062500000000000        0.0000000000000000     
   9.3749999999999997E-003  0.88437500000000002        0.0000000000000000     
   2.0312500000000001E-002  0.88593750000000004        0.0000000000000000     
   2.1874999999999999E-002  0.89687499999999998        0.0000000000000000     
   1.0937499999999999E-002  0.89531249999999996        0.0000000000000000     
   4.6875000000000000E-002  0.87500000000000000        0.0000000000000000     
   6.2500000000000000E-002  0.87500000000000000        0.0000000000000000     
   6.2500000000000000E-002  0.89062500000000000        0.0000000000000000     
   4.0625000000000001E-002  0.88437500000000002        0.0000000000000000     
   5.1562499999999997E-002  0.88593750000000004        0.0000000000000000     
   5.3124999999999999E-002  0.89687499999999998        0.0000000000000000     
   4.2187500000000003E-002  0.89531249999999996        0.0000000000000000     
   7.8125000000000000E-002  0.90625000000000000        0.0000000000000000     
   9.3750000000000000E-002  0.90625000000000000        0.0000000000000000     
   9.3750000000000000E-002  0.92187500000000000        0.0000000000000000     
   7.1874999999999994E-002  0.91562500000000002        0.0000000000000000     
   8.2812499999999997E-002  0.91718750000000004        0.0000000000000000     
   8.4375000000000006E-002  0.92812499999999998        0.0000000000000000     
   7.3437500000000003E-002  0.92656249999999996        0.0000000000000000     
  0.10937500000000000       0.90625000000000000        0.0000000000000000     
  0.12500000000000000       0.90625000000000000        0.0000000000000000     
  0.12500000000000000       0.92187500000000000        0.0000000000000000     
  0.10312499999999999       0.91562500000000002        0.0000000000000000     
  0.11406250000000000       0.91718750000000004        0.0000000000000000     
  0.11562500000000001       0.92812499999999998        0.0000000000000000     
  0.10468750000000000       0.92656249999999996        0.0000000000000000     
   7.8125000000000000E-002  0.87500000000000000        0.0000000000000000     
   9.3750000000000000E-002  0.87500000000000000        0.0000000000000000     
   9.3750000000000000E-002  0.89062500000000000        0.0000000000000000     
   7.1874999999999994E-002  0.88437500000000002        0.0000000000000000     
   8.2812499999999997E-002  0.88593750000000004        0.0000000000000000     
   8.4375000000000006E-002  0.89687499999999998        0.0000000000000000     
   7.3437500000000003E-002  0.89531249999999996        0.0000000000000000     
  0.10937500000000000       0.87500000000000000        0.0000000000000000     
  0.12500000000000000       0.87500000000000000        0.0000000000000000     
  0.12500000000000000       0.89062500000000000        0.0000000000000000     
  0.10312499999999999       0.88437500000000002        0.0000000000000000     
  0.11406250000000000       0.88593750000000004        0.0000000000000000     
  0.11562500000000001       0.89687499999999998        0.0000000000000000     
  0.10468750000000000       0.89531249999999996        0.0000000000000000     
  0.14062500000000000       0.96875000000000000        0.0000000000000000     
  0.15625000000000000       0.96875000000000000        0.0000000000000000     
  0.15625000000000000       0.98437500000000000        0.0000000000000000     
  0.13437499999999999       0.97812500000000002        0.0000000000000000     
  0.14531250000000001       0.97968750000000004        0.0000000000000000     
  0.14687500000000001       0.99062499999999998        0.0000000000000000     
  0.13593749999999999       0.98906249999999996        0.0000000000000000     
  0.17187500000000000       0.96875000000000000        0.0000000000000000     
  0.18750000000000000       0.96875000000000000        0.0000000000000000     
  0.18750000000000000       0.98437500000000000        0.0000000000000000     
  0.16562499999999999       0.97812500000000002        0.0000000000000000     
  0.17656250000000001       0.97968750000000004        0.0000000000000000     
  0.17812500000000001       0.99062499999999998        0.0000000000000000     
[...]
 CELL_DATA       14336
 SCALARS Nutrients float
 LOOKUP_TABLE default
    0.11690702161369459936E-04
    0.11600318964321259583E-04
    0.12258158022980406108E-04
    0.12258158022251278453E-04
    0.11600318962743052549E-04
    0.11690702157598089784E-04
    0.11166093768521360600E-04
    0.10859620993731460798E-04
    0.10529111094342718345E-04
    0.10529111094741118597E-04
    0.10859620995534404307E-04
    0.11166093773369141915E-04
    0.11117883048770363990E-04
    0.11117883048274394012E-04
    0.13840767991300038700E-04
    0.14412771462943254534E-04
    0.15973369611725070594E-04
    0.16400178812395275465E-04
    0.15231535273747337311E-04
    0.15796643084690688974E-04
    0.14567485393605718899E-04
    0.13549937518906869476E-04
    0.12478997221031740288E-04
    0.12086715508611250072E-04
    0.12762960312688670454E-04
    0.12677581749209610308E-04
    0.13725220502201455292E-04
    0.13959541026095055187E-04
    0.15796643094261551414E-04
    0.15231535280139259689E-04
    0.16400178816849547296E-04
    0.15973369615188628973E-04
    0.14412771466101311846E-04
    0.13840767992653942939E-04
    0.12677581750631128105E-04
    0.12762960316091632096E-04
    0.12086715512760654417E-04
    0.12478997226216744055E-04
    0.13549937525992837098E-04
    0.14567485404634209845E-04
    0.13959541031591743361E-04
    0.13725220506684343284E-04
    0.18682478892230106179E-04
    0.18932590265137461962E-04
    0.21363547442544823064E-04
    0.21363547442668012147E-04
    0.18932590264075614683E-04
    0.18682478889033613900E-04
    0.16524009173523526316E-04
    0.15911062298163373426E-04
    0.14305059696840340504E-04
    0.14305059697491800320E-04
    0.15911062299394156344E-04
    0.16524009176446098304E-04
    0.17234017254158125583E-04
    0.17234017253827725136E-04
    0.19590493070203085832E-04
    0.21134319384238550146E-04
    0.24163496573203796270E-04
    0.25287653724450416971E-04
    0.23281540930700673087E-04
    0.24635429038856261527E-04
    0.22243430350228394506E-04
    0.20023652450346409706E-04
    0.17730856851970600024E-04
    0.16751031265403825945E-04
    0.17986994294442272069E-04
    0.17397906409589003593E-04
    0.20071497847503021043E-04
    0.20685120312646129807E-04
    0.31059213349919703197E-04
    0.34166265283305005240E-04
    0.39508160403613462163E-04
    0.41676545687994775904E-04
    0.38299838818894302089E-04
    0.40796481160081403319E-04
    0.36576792690402314969E-04
    0.32563677879664435877E-04
    0.28389902287327375063E-04
    0.26492515769403077527E-04
    0.28640827547599721721E-04
    0.27227616570291898317E-04
    0.32486581775198694892E-04
    0.33666473229417335318E-04
    0.26212239090536440864E-04
    0.27419313196690092363E-04
    0.31676419607137216950E-04
    0.32242601161909234520E-04
    0.28456183696317590467E-04
    0.28669474368497803690E-04
    0.24936386563455141595E-04
    0.23291297540069057811E-04
    0.20234559952987077758E-04
    0.19776956658758922705E-04
    0.22336216513955721452E-04
    0.22624050979342945106E-04
    0.24964072751251210837E-04
    0.25254366430116249734E-04
    0.40452469300296430422E-04
    0.43223499574499386021E-04
    0.50545769523516283813E-04
    0.52055248899030606398E-04
    0.45995425135987695814E-04
    0.46951754240827771412E-04
    0.40659576904360808470E-04
    0.37352963940341939284E-04
    0.31972291317996891094E-04
    0.30759308200871705841E-04
    0.34809375879567703758E-04
    0.34586756026149125367E-04
    0.39543548768270907375E-04
    0.40320787372312281343E-04
    0.24635429057946164931E-04
    0.23281540946254661171E-04
    0.25287653739431200918E-04
    0.24163496585613286345E-04
    0.21134319394390240019E-04
    0.19590493076663311253E-04
    0.17397906413984027163E-04
    0.17986994303255056962E-04
    0.16751031275560509924E-04
    0.17730856863841885365E-04
    0.20023652465447113190E-04
    0.22243430371310238188E-04
    0.20685120325812352340E-04
    0.20071497858976881912E-04
    0.28669474380955032542E-04
    0.28456183707139330835E-04
    0.32242601174315732874E-04
    0.31676419618229492866E-04
    0.27419313203288228300E-04
    0.26212239092431998956E-04
    0.22624050978625416720E-04
    0.22336216517459940800E-04
    0.19776956662948151150E-04
    0.20234559959008777282E-04
    0.23291297548450221820E-04
    0.24936386574913586465E-04
    0.25254366438057749433E-04
    0.24964072757883268750E-04
    0.40796481215035484697E-04
    0.38299838865711148008E-04
    0.41676545737331009516E-04
    0.39508160446798908430E-04
    0.34166265316853452734E-04
    0.31059213373747431182E-04
    0.27227616587217673199E-04
    0.28640827572510852279E-04
    0.26492515792797680297E-04
    0.28389902316368072454E-04
    0.32563677919280160044E-04
    0.36576792744332502921E-04
    0.33666473267296655495E-04
    0.32486581809045508048E-04
    0.46951754291497783760E-04
    0.45995425182605760041E-04
    0.52055248954342311864E-04
    0.50545769574568802688E-04
    0.43223499610288527040E-04
    0.40452469323975195805E-04
    0.34586756040443199375E-04
    0.34809375901383166063E-04
    0.30759308218705591522E-04
    0.31972291341601747770E-04
    0.37352963973964410681E-04
    0.40659576946877674692E-04
    0.40320787408111146300E-04
    0.39543548800774143317E-04
    0.39163710043109782306E-04
    0.40105198700300296157E-04
    0.46422630309564013576E-04
    0.46422630307061851145E-04
    0.40105198696229049237E-04
    0.39163710033988179365E-04
    0.33408105427958758118E-04
    0.32075319756783354981E-04
    0.27657990946327398686E-04
    0.27657990947649383336E-04
    0.32075319761339565533E-04
    0.33408105439838720464E-04
    0.35725003395239616176E-04
    0.35725003393982971648E-04
    0.58682051627255379684E-04
    0.61458432298300231860E-04
    0.72088384762591042215E-04
    0.73072452921483610315E-04
    0.63170612809104520263E-04
    0.62631487438203370410E-04
    0.53105114645069019280E-04
    0.50035605370906518152E-04
    0.42499471459617826853E-04
    0.41831757541335223350E-04
    0.48563983904617267237E-04
    0.49586441775785416953E-04
    0.55010090866747811584E-04
    0.55476160899413342524E-04
    0.62631487498637843049E-04
    0.63170612860864968946E-04
    0.73072452980686862967E-04
    0.72088384811131518866E-04
    0.61458432331256793060E-04
    0.58682051645112087821E-04
    0.49586441781194982707E-04
    0.48563983922856651307E-04
    0.41831757556903302673E-04
    0.42499471483329728165E-04
    0.50035605408985168899E-04
    0.53105114699774228827E-04
    0.55476160937208521837E-04
    0.55010090898919003835E-04
    0.91197524925605384844E-04
    0.93843841123808749058E-04
    0.10988405348262714754E-03
    0.10988405347214878077E-03
    0.93843841104324307871E-04
    0.91197524881111801222E-04
    0.76629956200795017705E-04
    0.73499638784418802107E-04
    0.62387045531982126341E-04
    0.62387045541104196845E-04
    0.73499638804134571381E-04
    0.76629956248288751369E-04
    0.82797452587220454453E-04
    0.82797452581567071959E-04
    0.51621055199659431349E-04
    0.57201907000847471152E-04
    0.66450946844973698534E-04
    0.70329333012816660120E-04
    0.64565757220751910771E-04
    0.68969172985881176856E-04
    0.61690418606980866405E-04
    0.54683719938477002914E-04
    0.47425146933064803157E-04
    0.44071118819522362190E-04
    0.47727438717400582583E-04
    0.45098634922111537212E-04
    0.54426290998536245441E-04
    0.56522288230162114422E-04
    0.87600544568388228218E-04
    0.97352368907746553487E-04
    0.11344028108298097194E-03
    0.12012761701792816190E-03
    0.11007274479697615394E-03
    0.11756356150527880937E-03
    0.10503887311438304562E-03
    0.92983868976470655755E-04
    0.80439543534948040903E-04
    0.74636858802088181723E-04
    0.80932706461638094270E-04
    0.76302188997943138997E-04
    0.92547767502111635764E-04
    0.96175988967112121630E-04
    0.66069620035717234528E-04
    0.71495328960358321756E-04
    0.84199226778808525652E-04
    0.87302770555034898167E-04
    0.77118476279687756393E-04
    0.79181236737184041460E-04
    0.68337499170275839877E-04
    0.62347212566339412919E-04
    0.53042116599395630128E-04
    0.50659695950674623200E-04
    0.57282640458181400818E-04
    0.56245060704249923178E-04
    0.65601109602056242322E-04
    0.67165285277613474119E-04
    0.11164001033359592598E-03
    0.12165102030118723608E-03
    0.14395570057880303200E-03
    0.14967053410471937709E-03
    0.13192671608305470664E-03
    0.13561234936415074307E-03
    0.11672771197191902481E-03
    0.10619597994625599969E-03
    0.90007030498515653476E-04
    0.85697280860613374537E-04
    0.97002228902801651707E-04
    0.94730057612751303363E-04
    0.11160504985809147765E-03
    0.11445436984342607933E-03
    0.15004094646160322994E-03
    0.16661498899460321392E-03
    0.19428290594450766575E-03
    0.20527074687037619150E-03
    0.18774722461728859881E-03
    0.19997826105574368813E-03
    0.17880548659876199596E-03
    0.15849644644351257869E-03
    0.13716719498009578610E-03
    0.12728704157882774536E-03
    0.13820704472871346308E-03
    0.13043095479974234504E-03
    0.15807087732921625673E-03
    0.16413671468024331867E-03
    0.25662755792245871538E-03
    0.28358608094757823542E-03
    0.33039434167919293607E-03
    0.34734017442991622178E-03
    0.31697263321990202340E-03
    0.33584694027674448242E-03
    0.30108177570977817617E-03
    0.26794793421934103451E-03
    0.23252610006045180253E-03
    0.21624472388578780424E-03
    0.23503925846532575865E-03
    0.22270271967364611279E-03
    0.26823114322068082604E-03
    0.27794003083256654677E-03
    0.19263054800205161839E-03
    0.21033864030020905781E-03
    0.24986615645892151175E-03
    0.25957173580700419226E-03
    0.22777603518523960530E-03
    0.23331250352100302791E-03
    0.20030463635744774620E-03
    0.18249809928804456931E-03
    0.15433407794841473462E-03
    0.14695960859344067142E-03
    0.16681772348756896611E-03
    0.16280473636050282814E-03
    0.19243441491407638449E-03
    0.19728518454513208438E-03
    0.33583472796947519759E-03
    0.36569981491781620737E-03
    0.43549603414900106991E-03
    0.45033588668839756846E-03
    0.39273956720378932995E-03
    0.39909888350824097988E-03
    0.34176198463777913072E-03
    0.31313180132391718168E-03
    0.26463917172926470448E-03
    0.25279043993116660696E-03
    0.28833106122457560858E-03
    0.28257964919846829130E-03
    0.33272354415292805865E-03
    0.34031627813296231200E-03
    0.93558135074825200242E-04
    0.99566655357504011423E-04
    0.11774642998442072983E-03
    0.12052002676293411816E-03
    0.10429250107478033841E-03
    0.10447942601290579278E-03
    0.88251527593487729957E-04
    0.82153409277887633633E-04
    0.69190704387223726508E-04
    0.67403350064135222962E-04
    0.78187314909055729618E-04
    0.78709001594462715714E-04
    0.89490663878642908021E-04
    0.90760671619177906984E-04
    0.15575235852770486162E-03
    0.16776511893955712760E-03
    0.19978693117380074687E-03
    0.20590724953303300910E-03
    0.17800031007287649013E-03
    0.17929504084335980553E-03
    0.15085167321881586835E-03
    0.13948806169218955480E-03
    0.11674443236572527307E-03
    0.11299495702631868978E-03
    0.13106561642681105028E-03
    0.13059589599359944299E-03
    0.15116806400140690323E-03
    0.15389861707904055809E-03
    0.14070546121071393652E-03
    0.14738500780917598030E-03
    0.17395675944919440853E-03
    0.17612700504441745550E-03
    0.15094160051560724244E-03
    0.14885889451901504303E-03
    0.12467868145049453140E-03
    0.11777533075686258933E-03
    0.99021810854378622142E-04
    0.97773009251197817238E-04
    0.11491853279384384721E-03
    0.11781011941191793372E-03
    0.13093073433271016715E-03
    0.13186870635333033746E-03
    0.22741473090407465156E-03
    0.24224514063800157916E-03
    0.28804908042328453404E-03
    0.29505521298111642625E-03
    0.25344095997759341589E-03
    0.25294434454345421500E-03
    0.21104783898303841150E-03
    0.19690967328310271306E-03
    0.16429950043606462431E-03
    0.16060115600297815712E-03
    0.18822897498313543316E-03
    0.19012304975482002410E-03
    0.21649261048580515092E-03
    0.21940178600042596841E-03
    0.26845630602483126857E-03
    0.29141564048449253733E-03
    0.34920049109440150399E-03
    0.36099990425477059388E-03
    0.31090681235108489971E-03
    0.31323418913896817605E-03
    0.26232363461772633230E-03
    0.24203234986990140453E-03
    0.20156478814984288522E-03
    0.19454401532162889348E-03
    0.22615227550357278096E-03
    0.22414710711294083870E-03
    0.26231418972505194916E-03
    0.26749251425881292185E-03
    0.47466155088588522261E-03
    0.51655923427993842480E-03
    0.62221014850222808659E-03
    0.64244688358038569160E-03
    0.54982313090889013002E-03
    0.55096024280189628830E-03
    0.45902734019267322054E-03
    0.42472277040425383647E-03
    0.35235622200210838656E-03
    0.34045524100561160496E-03
    0.39773803568439507422E-03
    0.39420749436008898628E-03
    0.46299044397814128997E-03
    0.47181293062759733841E-03
    0.38469387221954639633E-03
    0.41600733849146730777E-03
    0.49873940863149604161E-03
    0.51534774193362595674E-03
    0.44225266744685773172E-03
    0.44438024066924378163E-03
    0.36887601057276409641E-03
    0.34141305783291000251E-03
    0.28277269609195630198E-03
    0.27438775084507579854E-03
    0.32141059537864249268E-03
    0.32064314907593753417E-03
    0.37302607468637371960E-03
    0.37979865662639066904E-03
    0.67907845901162629428E-03
    0.74179039864695614157E-03
    0.89619800919503694436E-03
    0.92985626857438089757E-03
    0.79447489082856302591E-03
    0.79857239921683103104E-03
    0.65890069854826992506E-03
    0.60819632672386343426E-03
    0.50045926973017295768E-03
    0.48401643811798132893E-03
    0.56857174540321682703E-03
    0.56325730052249952263E-03
    0.66461357112440166538E-03
    0.67813645099781708157E-03
    0.68969173123763381967E-04
    0.64565757342060201875E-04
    0.70329333143308116519E-04
    0.66450946962314555075E-04
    0.57201907094925882392E-04
    0.51621055273026450461E-04
    0.45098634978160608575E-04
    0.47727438788661593185E-04
    0.44071118884769208473E-04
    0.47425147010662643419E-04
    0.54683720039866860253E-04
    0.61690418737868788434E-04
    0.56522288330380105067E-04
    0.54426291090387901930E-04
    0.79181236878086101987E-04
    0.77118476413674070732E-04
    0.87302770713030883169E-04
    0.84199226928239367701E-04
    0.71495329072793637804E-04
    0.66069620123615510426E-04
    0.56245060766886817005E-04
    0.57282640534136620579E-04
    0.50659696013512636530E-04
    0.53042116674158017436E-04
    0.62347212665621025581E-04
    0.68337499288858256983E-04
    0.67165285385316979522E-04
    0.65601109703174127546E-04
    0.11756356181293761503E-03
    0.11007274507306204366E-03
    0.12012761731761314847E-03
    0.11344028135632621540E-03
    0.97352369131820337645E-04
    0.87600544752026678801E-04
    0.76302189143542342806E-04
    0.80932706635524769728E-04
    0.74636858961167799691E-04
    0.80439543718535737272E-04
    0.92983869208157544938E-04
    0.10503887340296860732E-03
    0.96175989199384141174E-04
    0.92547767718176432027E-04
    0.13561234969451942361E-03
    0.13192671640356620050E-03
    0.14967053448055421126E-03
    0.14395570094013560502E-03
    0.12165102058174010651E-03
    0.11164001056740730932E-03
    0.94730057789062051591E-04
    0.97002229101108192167E-04
    0.85697281027032038325E-04
    0.90007030686843847661E-04
    0.10619598018768485197E-03
    0.11672771225174797345E-03
    0.11445437010699053171E-03
    0.11160505010965279555E-03
    0.10447942619777572085E-03
    0.10429250124706921157E-03
    0.12052002696425680064E-03
    0.11774643016736651075E-03
    0.99566655495431739473E-04
    0.93558135181663241260E-04
    0.78709001665331943085E-04
    0.78187315000572950394E-04
    0.67403350140286290293E-04
    0.69190704478349509643E-04
    0.82153409405362338145E-04
    0.88251527753236476848E-04
    0.90760671755228298314E-04
    0.89490664004562866618E-04
    0.14885889472942835416E-03
    0.15094160068767297324E-03
    0.17612700523187988714E-03
    0.17395675959702125478E-03
    0.14738500791358120716E-03
    0.14070546126346603717E-03
    0.11781011943548800106E-03
    0.11491853286152524914E-03
    0.97773009317719082188E-04
    0.99021810952939470752E-04
    0.11777533089321888830E-03
    0.12467868163892512848E-03
    0.13186870648232676038E-03
    0.13093073444157837673E-03
    0.17929504129623726003E-03
    0.17800031050778310389E-03
    0.20590725004656723835E-03
    0.19978693165210211890E-03
    0.16776511931533344196E-03
    0.15575235884294377190E-03
    0.13059589622434384878E-03
    0.13106561668920410353E-03
    0.11299495724464458967E-03
    0.11674443261065429588E-03
    0.13948806201756106622E-03
    0.15085167360422117194E-03
    0.15389861743421944353E-03
    0.15116806433849934487E-03
    0.25294434512180131829E-03
    0.25344096050221808468E-03
    0.29505521357375629572E-03
    0.28804908095352244274E-03
    0.24224514104629989294E-03
    0.22741473121730808597E-03
    0.19012304997654939725E-03
    0.18822897527372468179E-03
    0.16060115626009930441E-03
    0.16429950074894241331E-03
    0.19690967368972414554E-03
    0.21104783948659361684E-03
    0.21940178642082977891E-03
    0.21649261087237765236E-03
    0.19997826169305932785E-03
    0.18774722519778177187E-03
    0.20527074750172362352E-03
    0.19428290652971188699E-03
    0.16661498947864318673E-03
    0.15004094687070266070E-03
    0.13043095512985537071E-03
    0.13820704510998342985E-03
    0.12728704192769985386E-03
    0.13716719537560401079E-03
    0.15849644693194042612E-03
    0.17880548719328507039E-03
    0.16413671517376585921E-03
    0.15807087779295351387E-03
    0.23331250423054596664E-03
    0.22777603587968313142E-03
    0.25957173662397795954E-03
    0.24986615724590565063E-03
    0.21033864092518151658E-03
    0.19263054853893907454E-03
    0.16280473677712851933E-03
    0.16681772393921899533E-03
    0.14695960897542482927E-03
    0.15433407836844747693E-03
    0.18249809981709945081E-03
    0.20030463695803817862E-03
    0.19728518512512652444E-03
    0.19243441547247709515E-03
    0.33584694151895719532E-03
    0.31697263437649442338E-03
    0.34734017570686384494E-03
    0.33039434286365578289E-03
    0.28358608193373215653E-03
    0.25662755876988707117E-03
    0.22270272036689750441E-03
    0.23503925924700747128E-03
    0.21624472460070182631E-03
    0.23252610086043273363E-03
    0.26794793519096789334E-03
    0.30108177686905972280E-03
    0.27794003182302865363E-03
    0.26823114415836424220E-03
    0.39909888493012973679E-03
    0.39273956862467292303E-03
    0.45033588837282289988E-03
    0.43549603577495651658E-03
    0.36569981621961797271E-03
    0.33583472911206008497E-03
    0.28257965009399087968E-03
    0.28833106217747981378E-03
    0.25279044073720028643E-03
    0.26463917260419883570E-03
    0.31313180241091209633E-03
    0.34176198585384137511E-03
    0.34031627933000450610E-03
    0.33272354531301538434E-03
    0.31323419013257338501E-03
    0.31090681332580314420E-03
    0.36099990540504204098E-03
    0.34920049218914526578E-03
    0.29141564135651130312E-03
    0.26845630678589267560E-03
    0.22414710768728411889E-03
    0.22615227612758165504E-03
    0.19454401584048894064E-03
    0.20156478871677905879E-03
    0.24203235060236069089E-03
    0.26232363546212840878E-03
    0.26749251506699294216E-03
    0.26231419050235454211E-03
    0.44438024201862478353E-03
    0.44225266871622764906E-03
    0.51534774339639748391E-03
    0.49873940997945890707E-03
    0.41600733956433523075E-03
    0.38469387311216928600E-03
    0.32064314975303084398E-03
    0.32141059615959976853E-03
    0.27438775152325667155E-03
    0.28277269686198807253E-03
    0.34141305881346949462E-03
    0.36887601172834807994E-03