# vtk DataFile Version 3.0
LAPLACIEN  2D
ASCII
DATASET UNSTRUCTURED_GRID
FIELD FieldData 1
TIME 1 1 double
19.0000
 POINTS        7297  float
   1.5625000000000000E-002  0.96875000000000000        0.0000000000000000     
   3.1250000000000000E-002  0.96875000000000000        0.0000000000000000     
   3.1250000000000000E-002  0.98437500000000000        0.0000000000000000     
   9.3749999999999997E-003  0.97812500000000002        0.0000000000000000     
   2.0312500000000001E-002  0.97968750000000004        0.0000000000000000     
   2.1874999999999999E-002  0.99062499999999998        0.0000000000000000     
   1.0937499999999999E-002  0.98906249999999996        0.0000000000000000     
   4.6875000000000000E-002  0.96875000000000000        0.0000000000000000     
   6.2500000000000000E-002  0.96875000000000000        0.0000000000000000     
   6.2500000000000000E-002  0.98437500000000000        0.0000000000000000     
   4.0625000000000001E-002  0.97812500000000002        0.0000000000000000     
   5.1562499999999997E-002  0.97968750000000004        0.0000000000000000     
   5.3124999999999999E-002  0.99062499999999998        0.0000000000000000     
   4.2187500000000003E-002  0.98906249999999996        0.0000000000000000     
   1.5625000000000000E-002  0.93750000000000000        0.0000000000000000     
   3.1250000000000000E-002  0.93750000000000000        0.0000000000000000     
   3.1250000000000000E-002  0.95312500000000000        0.0000000000000000     
   9.3749999999999997E-003  0.94687500000000002        0.0000000000000000     
   2.0312500000000001E-002  0.94843750000000004        0.0000000000000000     
   2.1874999999999999E-002  0.95937499999999998        0.0000000000000000     
   1.0937499999999999E-002  0.95781249999999996        0.0000000000000000     
   4.6875000000000000E-002  0.93750000000000000        0.0000000000000000     
   6.2500000000000000E-002  0.93750000000000000        0.0000000000000000     
   6.2500000000000000E-002  0.95312500000000000        0.0000000000000000     
   4.0625000000000001E-002  0.94687500000000002        0.0000000000000000     
   5.1562499999999997E-002  0.94843750000000004        0.0000000000000000     
   5.3124999999999999E-002  0.95937499999999998        0.0000000000000000     
   4.2187500000000003E-002  0.95781249999999996        0.0000000000000000     
   7.8125000000000000E-002  0.96875000000000000        0.0000000000000000     
   9.3750000000000000E-002  0.96875000000000000        0.0000000000000000     
   9.3750000000000000E-002  0.98437500000000000        0.0000000000000000     
   7.1874999999999994E-002  0.97812500000000002        0.0000000000000000     
   8.2812499999999997E-002  0.97968750000000004        0.0000000000000000     
   8.4375000000000006E-002  0.99062499999999998        0.0000000000000000     
   7.3437500000000003E-002  0.98906249999999996        0.0000000000000000     
  0.10937500000000000       0.96875000000000000        0.0000000000000000     
  0.12500000000000000       0.96875000000000000        0.0000000000000000     
  0.12500000000000000       0.98437500000000000        0.0000000000000000     
  0.10312499999999999       0.97812500000000002        0.0000000000000000     
  0.11406250000000000       0.97968750000000004        0.0000000000000000     
  0.11562500000000001       0.99062499999999998        0.0000000000000000     
  0.10468750000000000       0.98906249999999996        0.0000000000000000     
   7.8125000000000000E-002  0.93750000000000000        0.0000000000000000     
   9.3750000000000000E-002  0.93750000000000000        0.0000000000000000     
   9.3750000000000000E-002  0.95312500000000000        0.0000000000000000     
   7.1874999999999994E-002  0.94687500000000002        0.0000000000000000     
   8.2812499999999997E-002  0.94843750000000004        0.0000000000000000     
   8.4375000000000006E-002  0.95937499999999998        0.0000000000000000     
   7.3437500000000003E-002  0.95781249999999996        0.0000000000000000     
  0.10937500000000000       0.93750000000000000        0.0000000000000000     
  0.12500000000000000       0.93750000000000000        0.0000000000000000     
  0.12500000000000000       0.95312500000000000        0.0000000000000000     
  0.10312499999999999       0.94687500000000002        0.0000000000000000     
  0.11406250000000000       0.94843750000000004        0.0000000000000000     
  0.11562500000000001       0.95937499999999998        0.0000000000000000     
  0.10468750000000000       0.95781249999999996        0.0000000000000000     
   1.5625000000000000E-002  0.90625000000000000        0.0000000000000000     
   3.1250000000000000E-002  0.90625000000000000        0.0000000000000000     
   3.1250000000000000E-002  0.92187500000000000        0.0000000000000000     
   9.3749999999999997E-003  0.91562500000000002        0.0000000000000000     
   2.0312500000000001E-002  0.91718750000000004        0.0000000000000000     
   2.1874999999999999E-002  0.92812499999999998        0.0000000000000000     
   1.0937499999999999E-002  0.92656249999999996        0.0000000000000000     
   4.6875000000000000E-002  0.90625000000000000        0.0000000000000000     
   6.2500000000000000E-002  0.90625000000000000        0.0000000000000000     
   6.2500000000000000E-002  0.92187500000000000        0.0000000000000000     
   4.0625000000000001E-002  0.91562500000000002        0.0000000000000000     
   5.1562499999999997E-002  0.91718750000000004        0.0000000000000000     
   5.3124999999999999E-002  0.92812499999999998        0.0000000000000000     
   4.2187500000000003E-002  0.92656249999999996        0.0000000000000000     
   1.5625000000000000E-002  0.87500000000000000        0.0000000000000000     
   3.1250000000000000E-002  0.87500000000000000        0.0000000000000000     
   3.1250000000000000E-002  0.89062500000000000        0.0000000000000000     
   9.3749999999999997E-003  0.88437500000000002        0.0000000000000000     
   2.0312500000000001E-002  0.88593750000000004        0.0000000000000000     
   2.1874999999999999E-002  0.89687499999999998        0.0000000000000000     
   1.0937499999999999E-002  0.89531249999999996        0.0000000000000000     
   4.6875000000000000E-002  0.87500000000000000        0.0000000000000000     
   6.2500000000000000E-002  0.87500000000000000        0.0000000000000000     
   6.2500000000000000E-002  0.89062500000000000        0.0000000000000000     
   4.0625000000000001E-002  0.88437500000000002        0.0000000000000000     
   5.1562499999999997E-002  0.88593750000000004        0.0000000000000000     
   5.3124999999999999E-002  0.89687499999999998        0.0000000000000000     
   4.2187500000000003E-002  0.89531249999999996        0.0000000000000000     
   7.8125000000000000E-002  0.90625000000000000        0.0000000000000000     
   9.3750000000000000E-002  0.90625000000000000        0.0000000000000000     
   9.3750000000000000E-002  0.92187500000000000        0.0000000000000000     
   7.1874999999999994E-002  0.91562500000000002        0.0000000000000000     
   8.2812499999999997E-002  0.91718750000000004        0.0000000000000000     
   8.4375000000000006E-002  0.92812499999999998        0.0000000000000000     
   7.3437500000000003E-002  0.92656249999999996        0.0000000000000000     
  0.10937500000000000       0.90625000000000000        0.0000000000000000     
  0.12500000000000000       0.90625000000000000        0.0000000000000000     
  0.12500000000000000       0.92187500000000000        0.0000000000000000     
  0.10312499999999999       0.91562500000000002        0.0000000000000000     
  0.11406250000000000       0.91718750000000004        0.0000000000000000     
  0.11562500000000001       0.92812499999999998        0.0000000000000000     
  0.10468750000000000       0.92656249999999996        0.0000000000000000     
   7.8125000000000000E-002  0.87500000000000000        0.0000000000000000     
   9.3750000000000000E-002  0.87500000000000000        0.0000000000000000     
   9.3750000000000000E-002  0.89062500000000000        0.0000000000000000     
   7.1874999999999994E-002  0.88437500000000002        0.0000000000000000     
   8.2812499999999997E-002  0.88593750000000004        0.0000000000000000     
   8.4375000000000006E-002  0.89687499999999998        0.0000000000000000     
   7.3437500000000003E-002  0.89531249999999996        0.0000000000000000     
  0.10937500000000000       0.87500000000000000        0.0000000000000000     
  0.12500000000000000       0.87500000000000000        0.0000000000000000     
  0.12500000000000000       0.89062500000000000        0.0000000000000000     
  0.10312499999999999       0.88437500000000002        0.0000000000000000     
  0.11406250000000000       0.88593750000000004        0.0000000000000000     
  0.11562500000000001       0.89687499999999998        0.0000000000000000     
  0.10468750000000000       0.89531249999999996        0.0000000000000000     
  0.14062500000000000       0.96875000000000000        0.0000000000000000     
  0.15625000000000000       0.96875000000000000        0.0000000000000000     
  0.15625000000000000       0.98437500000000000        0.0000000000000000     
  0.13437499999999999       0.97812500000000002        0.0000000000000000     
  0.14531250000000001       0.97968750000000004        0.0000000000000000     
  0.14687500000000001       0.99062499999999998        0.0000000000000000     
  0.13593749999999999       0.98906249999999996        0.0000000000000000     
  0.17187500000000000       0.96875000000000000        0.0000000000000000     
  0.18750000000000000       0.96875000000000000        0.0000000000000000     
  0.18750000000000000       0.98437500000000000        0.0000000000000000     
  0.16562499999999999       0.97812500000000002        0.0000000000000000     
  0.17656250000000001       0.97968750000000004        0.0000000000000000     
[...]
 CELL_DATA       14336
 SCALARS Nutrient float
 LOOKUP_TABLE default
    0.12246134450630838733E-01
    0.12246051946654359921E-01
    0.12246704712967706324E-01
    0.12246704712801079196E-01
    0.12246051947321347220E-01
    0.12246134450061802595E-01
    0.12245617344830780557E-01
    0.12245310964999268563E-01
    0.12244979882684640243E-01
    0.12244979878865034154E-01
    0.12245310966963563609E-01
    0.12245617344009477462E-01
    0.12245569577976967920E-01
    0.12245569577357130406E-01
    0.12248282142013929355E-01
    0.12248854093802646198E-01
    0.12250406078227906934E-01
    0.12250835932611964935E-01
    0.12249672423086737164E-01
    0.12250229664441362673E-01
    0.12249010006327111857E-01
    0.12247995642309897346E-01
    0.12246923761246090306E-01
    0.12246541440241728166E-01
    0.12247207630039237333E-01
    0.12247125666293991533E-01
    0.12248171940833170457E-01
    0.12248400916357121693E-01
    0.12250229664536888691E-01
    0.12249672422977645608E-01
    0.12250835932648690765E-01
    0.12250406078181185626E-01
    0.12248854093961501766E-01
    0.12248282141808073190E-01
    0.12247125666699162222E-01
    0.12247207629637390375E-01
    0.12246541440755499483E-01
    0.12246923760749792859E-01
    0.12247995642558151888E-01
    0.12249010006230080100E-01
    0.12248400916476285052E-01
    0.12248171940769861724E-01
    0.12253109379721939531E-01
    0.12253359401206481358E-01
    0.12255785119320837875E-01
    0.12255785119305891498E-01
    0.12253359401253358790E-01
    0.12253109379671297749E-01
    0.12250958889856264356E-01
    0.12250345837726774392E-01
    0.12248746217327341479E-01
    0.12248746217127955832E-01
    0.12250345837850389052E-01
    0.12250958889769651347E-01
    0.12251665532947672230E-01
    0.12251665532911957743E-01
    0.12254017662285409535E-01
    0.12255562788047184158E-01
    0.12258588777919684348E-01
    0.12259715679277473702E-01
    0.12257714100404116728E-01
    0.12259068064262936687E-01
    0.12256677894871182907E-01
    0.12254459385710398181E-01
    0.12252164567606074405E-01
    0.12251194359108203216E-01
    0.12252419353924326115E-01
    0.12251830339976553866E-01
    0.12254505986442046708E-01
    0.12255116050751196574E-01
    0.12265485428406270110E-01
    0.12268597847633061840E-01
    0.12273942688933531242E-01
    0.12276115277510933274E-01
    0.12272741401603708827E-01
    0.12275243730038626691E-01
    0.12271019583486385274E-01
    0.12267002341623972975E-01
    0.12262825311252962407E-01
    0.12260927230594347026E-01
    0.12263073646499695127E-01
    0.12261655947809157324E-01
    0.12266921838683629564E-01
    0.12268103690103138517E-01
    0.12260627209012780678E-01
    0.12261834397096209315E-01
    0.12266087911276448569E-01
    0.12266654910530647507E-01
    0.12262873356405905312E-01
    0.12263089649922800928E-01
    0.12259360130029119812E-01
    0.12257713339085934620E-01
    0.12254661261625316923E-01
    0.12254201303419478067E-01
    0.12256757532029354668E-01
    0.12257043583221001459E-01
    0.12259382264528717599E-01
    0.12259674054682137209E-01
    0.12274858888523818359E-01
    0.12277634967735085586E-01
    0.12284954592561053016E-01
    0.12286468618068958902E-01
    0.12280417035815480858E-01
    0.12281381772897276630E-01
    0.12275089587468389352E-01
    0.12271777369260014265E-01
    0.12266396982155142528E-01
    0.12265178912207198511E-01
    0.12269226337561367143E-01
    0.12268999139136298887E-01
    0.12273960952824959983E-01
    0.12274741086525630882E-01
    0.12259068064297561768E-01
    0.12257714100400537993E-01
    0.12259715679298682431E-01
    0.12258588777922727053E-01
    0.12255562788088519149E-01
    0.12254017662244286180E-01
    0.12251830340065435893E-01
    0.12252419353860951462E-01
    0.12251194359195426847E-01
    0.12252164567543959162E-01
    0.12254459385760590670E-01
    0.12256677894875805945E-01
    0.12255116050781901180E-01
    0.12254505986445304519E-01
    0.12263089649944788548E-01
    0.12262873356405039685E-01
    0.12266654910547181156E-01
    0.12266087911282964190E-01
    0.12261834397115905365E-01
    0.12260627208998163898E-01
    0.12257043583251267180E-01
    0.12256757531997175548E-01
    0.12254201303472810405E-01
    0.12254661261590955521E-01
    0.12257713339117411178E-01
    0.12259360130022713478E-01
    0.12259674054700450685E-01
    0.12259382264529166892E-01
    0.12275243730096654926E-01
    0.12272741401647101200E-01
    0.12276115277561974043E-01
    0.12273942688974907866E-01
    0.12268597847672948337E-01
    0.12265485428420623212E-01
    0.12261655947840829906E-01
    0.12263073646513134030E-01
    0.12260927230627891374E-01
    0.12262825311270998327E-01
    0.12267002341669322116E-01
    0.12271019583537571759E-01
    0.12268103690144360751E-01
    0.12266921838715565823E-01
    0.12281381772950036510E-01
    0.12280417035859452629E-01
    0.12286468618125904670E-01
    0.12284954592610624474E-01
    0.12277634967774222682E-01
    0.12274858888543143179E-01
    0.12268999139158560593E-01
    0.12269226337574648186E-01
    0.12265178912235738182E-01
    0.12266396982171471480E-01
    0.12271777369297815624E-01
    0.12275089587507555938E-01
    0.12274741086563911024E-01
    0.12273960952856712361E-01
    0.12273564799331952019E-01
    0.12274502771301055645E-01
    0.12280809723839681072E-01
    0.12280809723835226302E-01
    0.12274502771301373100E-01
    0.12273564799318370869E-01
    0.12267815747003888924E-01
    0.12266483436442559077E-01
    0.12262070727848441154E-01
    0.12262070727833902437E-01
    0.12266483436457361472E-01
    0.12267815747007727867E-01
    0.12270128260729566347E-01
    0.12270128260725456787E-01
    0.12293051538381000523E-01
    0.12295827443967224588E-01
    0.12306443373920908368E-01
    0.12307432493624410538E-01
    0.12297549787040817568E-01
    0.12297023793828921676E-01
    0.12287506682153939361E-01
    0.12284432352213527084E-01
    0.12276901969645506035E-01
    0.12276230189380602301E-01
    0.12282952473658435150E-01
    0.12283969541036811324E-01
    0.12289392766720100281E-01
    0.12289861660443789082E-01
    0.12297023793890634463E-01
    0.12297549787091303225E-01
    0.12307432493684850039E-01
    0.12306443373968484895E-01
    0.12295827444001783749E-01
    0.12293051538397388456E-01
    0.12283969541044919421E-01
    0.12282952473673388466E-01
    0.12276230189400962750E-01
    0.12276901969665092798E-01
    0.12284432352254254922E-01
    0.12287506682207035777E-01
    0.12289861660482606989E-01
    0.12289392766751713881E-01
    0.12325514715205262289E-01
    0.12328150326490002961E-01
    0.12344154298626662872E-01
    0.12344154298615152981E-01
    0.12328150326471228049E-01
    0.12325514715160166418E-01
    0.12310973229361223819E-01
    0.12307844791734827081E-01
    0.12296750142889107185E-01
    0.12296750142896412106E-01
    0.12307844791755747846E-01
    0.12310973229408097782E-01
    0.12317124239186082874E-01
    0.12317124239180099812E-01
    0.12286064852049116344E-01
    0.12291660248187770074E-01
    0.12300918718325386247E-01
    0.12304807775448733942E-01
    0.12299046139911680442E-01
    0.12303462879602123162E-01
    0.12296172883983444782E-01
    0.12289152391214632973E-01
    0.12281883623090758192E-01
    0.12278521744350984202E-01
    0.12282180544049468851E-01
    0.12279542186998768094E-01
    0.12288887993484168271E-01
    0.12290990207169618167E-01
    0.12322096506299531210E-01
    0.12331874829977551578E-01
    0.12347984393992797805E-01
    0.12354694604761668961E-01
    0.12344635423069134916E-01
    0.12352149725610463843E-01
    0.12339604802597620853E-01
    0.12327522539150488623E-01
    0.12314955890071562286E-01
    0.12309139468700757217E-01
    0.12315440263805210730E-01
    0.12310791390385092056E-01
    0.12327074808155449176E-01
    0.12330714170519943215E-01
    0.12300477296916821623E-01
    0.12305915260231285041E-01
    0.12318618780717910388E-01
    0.12321736069758516471E-01
    0.12311563030905503177E-01
    0.12313645676114008329E-01
    0.12302798931467085961E-01
    0.12296792896780145768E-01
    0.12287483428815127590E-01
    0.12285090688121780289E-01
    0.12291709827732411747E-01
    0.12290660927487222567E-01
    0.12300032824527533729E-01
    0.12301603593092742817E-01
    0.12346069715859137039E-01
    0.12356111140683327318E-01
    0.12378422670557253857E-01
    0.12384165891148204638E-01
    0.12366437238407848240E-01
    0.12370158971017241462E-01
    0.12351263539704894837E-01
    0.12340700735021158108E-01
    0.12324498604524915940E-01
    0.12320167790565961577E-01
    0.12331467020588455022E-01
    0.12329170017590228292E-01
    0.12346082535919311943E-01
    0.12348945418263854168E-01
    0.12384645871284145208E-01
    0.12401267248913716568E-01
    0.12428981158699196549E-01
    0.12440005906575065525E-01
    0.12422467935528482344E-01
    0.12434739436517655564E-01
    0.12413525212577538812E-01
    0.12393169287481513308E-01
    0.12371797727740925163E-01
    0.12361891984658496951E-01
    0.12372824023573694360E-01
    0.12365017273012323534E-01
    0.12392725196025881559E-01
    0.12398809501741893044E-01
    0.12491444345963826149E-01
    0.12518482847673807062E-01
    0.12565372721186207974E-01
    0.12582380341892998935E-01
    0.12551979900064593604E-01
    0.12570920137300319736E-01
    0.12536080477400663932E-01
    0.12502861629372863383E-01
    0.12467364864739288732E-01
    0.12451041489225246617E-01
    0.12469860388466744161E-01
    0.12457473712792925535E-01
    0.12503122172229149539E-01
    0.12512860691277305145E-01
    0.12427141435690208793E-01
    0.12444906029139052653E-01
    0.12484461887296847624E-01
    0.12494220781954527497E-01
    0.12462434477489819917E-01
    0.12468029414618778811E-01
    0.12434992796609773552E-01
    0.12417128581069272059E-01
    0.12388931400584633769E-01
    0.12381525060917015352E-01
    0.12401375235621863238E-01
    0.12397316811114873422E-01
    0.12427025891318613932E-01
    0.12431900141645635394E-01
    0.12570538861747101653E-01
    0.12600505554498769509E-01
    0.12670376620718190944E-01
    0.12685300703609389550E-01
    0.12627692876402493369E-01
    0.12634139013751988223E-01
    0.12576734770730894908E-01
    0.12548011047625547143E-01
    0.12499443996790055716E-01
    0.12487544853036956771E-01
    0.12523089188235572364E-01
    0.12517265386481891271E-01
    0.12567553187134263351E-01
    0.12575184141936892462E-01
    0.12327887257553805586E-01
    0.12333905174226901177E-01
    0.12352061889952073090E-01
    0.12354851437360449967E-01
    0.12338658321088496680E-01
    0.12338872801996232306E-01
    0.12322657946808576734E-01
    0.12316545863842473171E-01
    0.12303591957582734467E-01
    0.12301792643223152454E-01
    0.12312558790227417713E-01
    0.12313064615864163787E-01
    0.12323854351428411083E-01
    0.12325132006219922942E-01
    0.12390041160888223826E-01
    0.12402082466148692599E-01
    0.12434079912790208661E-01
    0.12440239721311550924E-01
    0.12412381756168214958E-01
    0.12413729537372339418E-01
    0.12385299782385389769E-01
    0.12373900601306350375E-01
    0.12351161974029025228E-01
    0.12347388762052199929E-01
    0.12365429776581291291E-01
    0.12364924884442900221E-01
    0.12385530954132958903E-01
    0.12388278480275131260E-01
    0.12374904313215010290E-01
    0.12381576263800934262E-01
    0.12408087652168836232E-01
    0.12410271064608841343E-01
    0.12385152892242502071E-01
    0.12383105369918335700E-01
    0.12358970967954437462E-01
    0.12352057855991300031E-01
    0.12333336379507299149E-01
    0.12332079143050478712E-01
    0.12349185932628825232E-01
    0.12352063551649103065E-01
    0.12365169018726912889E-01
    0.12366112540696846955E-01
    0.12461438398034579284E-01
    0.12476282316083079846E-01
    0.12521991037768871041E-01
    0.12529041909757147530E-01
    0.12487547713605108915E-01
    0.12487128959081201726E-01
    0.12445300203561228056E-01
    0.12431127993382754676E-01
    0.12398559195389239479E-01
    0.12394835332912758005E-01
    0.12422393725182395360E-01
    0.12424242859784022028E-01
    0.12450618602639301410E-01
    0.12453545769817699063E-01
    0.12502742533152462132E-01
    0.12525770216319421016E-01
    0.12583539664675845102E-01
    0.12595414658638785094E-01
    0.12545384385906089772E-01
    0.12547801887838647139E-01
    0.12496893424256277916E-01
    0.12476534117674305258E-01
    0.12436052387541191369E-01
    0.12428990232852141218E-01
    0.12460557836595989242E-01
    0.12458484432721282989E-01
    0.12496735241521693405E-01
    0.12501945004123373936E-01
    0.12709049885949319156E-01
    0.12751082545631274925E-01
    0.12856756500119711703E-01
    0.12877126664919576887E-01
    0.12784562891250142447E-01
    0.12785845937276345621E-01
    0.12693876325457651918E-01
    0.12659449864659562401E-01
    0.12587029613534295863E-01
    0.12575058622525990895E-01
    0.12632293852559952491E-01
    0.12628648522979065566E-01
    0.12697600598792990745E-01
    0.12706479700202766986E-01
    0.12618500750242194267E-01
    0.12649876622264384987E-01
    0.12732485020305757059E-01
    0.12749196813307191525E-01
    0.12676290258553353854E-01
    0.12678571196196945434E-01
    0.12603150217400714214E-01
    0.12575605030332320106E-01
    0.12517008017711932222E-01
    0.12508568836360617338E-01
    0.12555471182731502144E-01
    0.12554606281494165923E-01
    0.12607050857868699542E-01
    0.12613867387298137099E-01
    0.12912692031151796340E-01
    0.12975564566787087944E-01
    0.13129840269939758307E-01
    0.13163708108552015993E-01
    0.13028586390810292100E-01
    0.13032947432079246969E-01
    0.12893353482761776493E-01
    0.12842482640234015659E-01
    0.12734769342349920931E-01
    0.12718219262933865010E-01
    0.12802600619213266517E-01
    0.12797089895383587793E-01
    0.12898630943433556442E-01
    0.12912240735244624040E-01
    0.12303462879741407579E-01
    0.12299046140032229846E-01
    0.12304807775580675275E-01
    0.12300918718441907623E-01
    0.12291660248283653445E-01
    0.12286064852120694504E-01
    0.12279542187057602975E-01
    0.12282180544118772789E-01
    0.12278521744418322698E-01
    0.12281883623166345298E-01
    0.12289152391317710242E-01
    0.12296172884113779761E-01
    0.12290990207270592952E-01
    0.12288887993575931673E-01
    0.12313645676255750849E-01
    0.12311563031038912086E-01
    0.12321736069917861231E-01
    0.12318618780866659457E-01
    0.12305915260344996165E-01
    0.12300477297003849231E-01
    0.12290660927551766424E-01
    0.12291709827806510461E-01
    0.12285090688187304264E-01
    0.12287483428888495984E-01
    0.12296792896880666054E-01
    0.12302798931585368081E-01
    0.12301603593201289669E-01
    0.12300032824628770456E-01
    0.12352149725919685241E-01
    0.12344635423345089523E-01
    0.12354694605063085838E-01
    0.12347984394265765218E-01
    0.12331874830202864401E-01
    0.12322096506483110057E-01
    0.12310791390531521800E-01
    0.12315440263978892979E-01
    0.12309139468860847907E-01
    0.12314955890254752555E-01
    0.12327522539383467190E-01
    0.12339604802886311799E-01
    0.12330714170752925252E-01
    0.12327074808371883685E-01
    0.12370158971348497318E-01
    0.12366437238728376566E-01
    0.12384165891525840061E-01
    0.12378422670917965318E-01
    0.12356111140965022124E-01
    0.12346069716093073174E-01
    0.12329170017767246414E-01
    0.12331467020786520544E-01
    0.12320167790733778726E-01
    0.12324498604712890576E-01
    0.12340700735263622143E-01
    0.12351263539985231354E-01
    0.12348945418528175719E-01
    0.12346082536171266650E-01
    0.12338872802181762717E-01
    0.12338658321260465023E-01
    0.12354851437563141997E-01
    0.12352061890134229463E-01
    0.12333905174365760588E-01
    0.12327887257660369649E-01
    0.12313064615935899807E-01
    0.12312558790318095178E-01
    0.12301792643301015517E-01
    0.12303591957672792637E-01
    0.12316545863970993629E-01
    0.12322657946968339562E-01
    0.12325132006356558437E-01
    0.12323854351554367620E-01
    0.12383105370129056030E-01
    0.12385152892414241430E-01
    0.12410271064797624360E-01
    0.12408087652315628532E-01
    0.12381576263905947483E-01
    0.12374904313267721598E-01
    0.12352063551672783775E-01
    0.12349185932696104748E-01
    0.12332079143118054865E-01
    0.12333336379605144492E-01
    0.12352057856128346655E-01
    0.12358970968143152824E-01
    0.12366112540826189672E-01
    0.12365169018835789339E-01
    0.12413729537825799604E-01
    0.12412381756603106664E-01
    0.12440239721826945943E-01
    0.12434079913267536907E-01
    0.12402082466525391272E-01
    0.12390041161203754413E-01
    0.12364924884673972327E-01
    0.12365429776843638726E-01
    0.12347388762271739593E-01
    0.12351161974273643790E-01
    0.12373900601632591145E-01
    0.12385299782771551358E-01
    0.12388278480630962944E-01
    0.12385530954470340068E-01
    0.12487128959659494348E-01
    0.12487547714129654600E-01
    0.12529041910350792455E-01
    0.12521991038298260074E-01
    0.12476282316491867433E-01
    0.12461438398348153103E-01
    0.12424242860005622544E-01
    0.12422393725472892154E-01
    0.12394835333170975064E-01
    0.12398559195701612870E-01
    0.12431127993789979277E-01
    0.12445300204065585029E-01
    0.12453545770238402465E-01
    0.12450618603026035458E-01
    0.12434739437157000044E-01
    0.12422467936109479400E-01
    0.12440005907208572661E-01
    0.12428981159284646640E-01
    0.12401267249399274342E-01
    0.12384645871693905975E-01
    0.12365017273343248058E-01
    0.12372824023955432404E-01
    0.12361891985008399350E-01
    0.12371797728136691916E-01
    0.12393169287971539730E-01
    0.12413525213172784886E-01
    0.12398809502236591076E-01
    0.12392725196490421424E-01
    0.12468029415330017171E-01
    0.12462434478184585343E-01
    0.12494220782774250258E-01
    0.12484461888083081549E-01
    0.12444906029765464769E-01
    0.12427141436227810006E-01
    0.12397316811532022376E-01
    0.12401375236073876665E-01
    0.12381525061300515875E-01
    0.12388931401004766447E-01
    0.12417128581599710599E-01
    0.12434992797211283713E-01
    0.12431900142226766023E-01
    0.12427025891877715308E-01
    0.12570920138546945802E-01
    0.12551979901222306418E-01
    0.12582380343172990672E-01
    0.12565372722371898409E-01
    0.12518482848662176171E-01
    0.12491444346812353994E-01
    0.12457473713487609429E-01
    0.12469860389249583232E-01
    0.12451041489941859150E-01
    0.12467364865540312910E-01
    0.12502861630346868982E-01
    0.12536080478561308429E-01
    0.12512860692269815038E-01
    0.12503122173168318421E-01
    0.12634139015175968948E-01
    0.12627692877824600592E-01
    0.12685300705296751606E-01
    0.12670376622344506345E-01
    0.12600505555802382976E-01
    0.12570538862891337401E-01
    0.12517265387377867272E-01
    0.12523089189189555784E-01
    0.12487544853844479223E-01
    0.12499443997666000866E-01
    0.12548011048714542356E-01
    0.12576734771948618746E-01
    0.12575184143135605466E-01
    0.12567553188295667657E-01
    0.12547801888832667977E-01
    0.12545384386881177838E-01
    0.12595414659790717810E-01
    0.12583539665769938667E-01
    0.12525770217192328665E-01
    0.12502742533914305845E-01
    0.12458484433295655136E-01
    0.12460557837220262445E-01
    0.12428990233372466320E-01
    0.12436052388107970632E-01
    0.12476534118407827875E-01
    0.12496893425102188063E-01
    0.12501945004932310188E-01
    0.12496735242299527799E-01
    0.12678571197546470092E-01
    0.12676290259822208667E-01
    0.12749196814771757841E-01
    0.12732485021651392468E-01
    0.12649876623337668810E-01
    0.12618500751134629698E-01
    0.12554606282171261455E-01
    0.12555471183512295977E-01
    0.12508568837040327099E-01
    0.12517008018481153714E-01
    0.12575605031313505724E-01
    0.12603150218556903941E-01