# vtk DataFile Version 3.0
LAPLACIEN  2D
ASCII
DATASET UNSTRUCTURED_GRID
FIELD FieldData 1
TIME 1 1 double
7.4000
 POINTS        7297  float
   1.5625000000000000E-002  0.96875000000000000        0.0000000000000000     
   3.1250000000000000E-002  0.96875000000000000        0.0000000000000000     
   3.1250000000000000E-002  0.98437500000000000        0.0000000000000000     
   9.3749999999999997E-003  0.97812500000000002        0.0000000000000000     
   2.0312500000000001E-002  0.97968750000000004        0.0000000000000000     
   2.1874999999999999E-002  0.99062499999999998        0.0000000000000000     
   1.0937499999999999E-002  0.98906249999999996        0.0000000000000000     
   4.6875000000000000E-002  0.96875000000000000        0.0000000000000000     
   6.2500000000000000E-002  0.96875000000000000        0.0000000000000000     
   6.2500000000000000E-002  0.98437500000000000        0.0000000000000000     
   4.0625000000000001E-002  0.97812500000000002        0.0000000000000000     
   5.1562499999999997E-002  0.97968750000000004        0.0000000000000000     
   5.3124999999999999E-002  0.99062499999999998        0.0000000000000000     
   4.2187500000000003E-002  0.98906249999999996        0.0000000000000000     
   1.5625000000000000E-002  0.93750000000000000        0.0000000000000000     
   3.1250000000000000E-002  0.93750000000000000        0.0000000000000000     
   3.1250000000000000E-002  0.95312500000000000        0.0000000000000000     
   9.3749999999999997E-003  0.94687500000000002        0.0000000000000000     
   2.0312500000000001E-002  0.94843750000000004        0.0000000000000000     
   2.1874999999999999E-002  0.95937499999999998        0.0000000000000000     
   1.0937499999999999E-002  0.95781249999999996        0.0000000000000000     
   4.6875000000000000E-002  0.93750000000000000        0.0000000000000000     
   6.2500000000000000E-002  0.93750000000000000        0.0000000000000000     
   6.2500000000000000E-002  0.95312500000000000        0.0000000000000000     
   4.0625000000000001E-002  0.94687500000000002        0.0000000000000000     
   5.1562499999999997E-002  0.94843750000000004        0.0000000000000000     
   5.3124999999999999E-002  0.95937499999999998        0.0000000000000000     
   4.2187500000000003E-002  0.95781249999999996        0.0000000000000000     
   7.8125000000000000E-002  0.96875000000000000        0.0000000000000000     
   9.3750000000000000E-002  0.96875000000000000        0.0000000000000000     
   9.3750000000000000E-002  0.98437500000000000        0.0000000000000000     
   7.1874999999999994E-002  0.97812500000000002        0.0000000000000000     
   8.2812499999999997E-002  0.97968750000000004        0.0000000000000000     
   8.4375000000000006E-002  0.99062499999999998        0.0000000000000000     
   7.3437500000000003E-002  0.98906249999999996        0.0000000000000000     
  0.10937500000000000       0.96875000000000000        0.0000000000000000     
  0.12500000000000000       0.96875000000000000        0.0000000000000000     
  0.12500000000000000       0.98437500000000000        0.0000000000000000     
  0.10312499999999999       0.97812500000000002        0.0000000000000000     
  0.11406250000000000       0.97968750000000004        0.0000000000000000     
  0.11562500000000001       0.99062499999999998        0.0000000000000000     
  0.10468750000000000       0.98906249999999996        0.0000000000000000     
   7.8125000000000000E-002  0.93750000000000000        0.0000000000000000     
   9.3750000000000000E-002  0.93750000000000000        0.0000000000000000     
   9.3750000000000000E-002  0.95312500000000000        0.0000000000000000     
   7.1874999999999994E-002  0.94687500000000002        0.0000000000000000     
   8.2812499999999997E-002  0.94843750000000004        0.0000000000000000     
   8.4375000000000006E-002  0.95937499999999998        0.0000000000000000     
   7.3437500000000003E-002  0.95781249999999996        0.0000000000000000     
  0.10937500000000000       0.93750000000000000        0.0000000000000000     
  0.12500000000000000       0.93750000000000000        0.0000000000000000     
  0.12500000000000000       0.95312500000000000        0.0000000000000000     
  0.10312499999999999       0.94687500000000002        0.0000000000000000     
  0.11406250000000000       0.94843750000000004        0.0000000000000000     
  0.11562500000000001       0.95937499999999998        0.0000000000000000     
  0.10468750000000000       0.95781249999999996        0.0000000000000000     
   1.5625000000000000E-002  0.90625000000000000        0.0000000000000000     
   3.1250000000000000E-002  0.90625000000000000        0.0000000000000000     
   3.1250000000000000E-002  0.92187500000000000        0.0000000000000000     
   9.3749999999999997E-003  0.91562500000000002        0.0000000000000000     
   2.0312500000000001E-002  0.91718750000000004        0.0000000000000000     
   2.1874999999999999E-002  0.92812499999999998        0.0000000000000000     
   1.0937499999999999E-002  0.92656249999999996        0.0000000000000000     
   4.6875000000000000E-002  0.90625000000000000        0.0000000000000000     
   6.2500000000000000E-002  0.90625000000000000        0.0000000000000000     
   6.2500000000000000E-002  0.92187500000000000        0.0000000000000000     
   4.0625000000000001E-002  0.91562500000000002        0.0000000000000000     
   5.1562499999999997E-002  0.91718750000000004        0.0000000000000000     
   5.3124999999999999E-002  0.92812499999999998        0.0000000000000000     
   4.2187500000000003E-002  0.92656249999999996        0.0000000000000000     
   1.5625000000000000E-002  0.87500000000000000        0.0000000000000000     
   3.1250000000000000E-002  0.87500000000000000        0.0000000000000000     
   3.1250000000000000E-002  0.89062500000000000        0.0000000000000000     
   9.3749999999999997E-003  0.88437500000000002        0.0000000000000000     
   2.0312500000000001E-002  0.88593750000000004        0.0000000000000000     
   2.1874999999999999E-002  0.89687499999999998        0.0000000000000000     
   1.0937499999999999E-002  0.89531249999999996        0.0000000000000000     
   4.6875000000000000E-002  0.87500000000000000        0.0000000000000000     
   6.2500000000000000E-002  0.87500000000000000        0.0000000000000000     
   6.2500000000000000E-002  0.89062500000000000        0.0000000000000000     
   4.0625000000000001E-002  0.88437500000000002        0.0000000000000000     
   5.1562499999999997E-002  0.88593750000000004        0.0000000000000000     
   5.3124999999999999E-002  0.89687499999999998        0.0000000000000000     
   4.2187500000000003E-002  0.89531249999999996        0.0000000000000000     
   7.8125000000000000E-002  0.90625000000000000        0.0000000000000000     
   9.3750000000000000E-002  0.90625000000000000        0.0000000000000000     
   9.3750000000000000E-002  0.92187500000000000        0.0000000000000000     
   7.1874999999999994E-002  0.91562500000000002        0.0000000000000000     
   8.2812499999999997E-002  0.91718750000000004        0.0000000000000000     
   8.4375000000000006E-002  0.92812499999999998        0.0000000000000000     
   7.3437500000000003E-002  0.92656249999999996        0.0000000000000000     
  0.10937500000000000       0.90625000000000000        0.0000000000000000     
  0.12500000000000000       0.90625000000000000        0.0000000000000000     
  0.12500000000000000       0.92187500000000000        0.0000000000000000     
  0.10312499999999999       0.91562500000000002        0.0000000000000000     
  0.11406250000000000       0.91718750000000004        0.0000000000000000     
  0.11562500000000001       0.92812499999999998        0.0000000000000000     
  0.10468750000000000       0.92656249999999996        0.0000000000000000     
   7.8125000000000000E-002  0.87500000000000000        0.0000000000000000     
   9.3750000000000000E-002  0.87500000000000000        0.0000000000000000     
   9.3750000000000000E-002  0.89062500000000000        0.0000000000000000     
   7.1874999999999994E-002  0.88437500000000002        0.0000000000000000     
   8.2812499999999997E-002  0.88593750000000004        0.0000000000000000     
   8.4375000000000006E-002  0.89687499999999998        0.0000000000000000     
   7.3437500000000003E-002  0.89531249999999996        0.0000000000000000     
  0.10937500000000000       0.87500000000000000        0.0000000000000000     
  0.12500000000000000       0.87500000000000000        0.0000000000000000     
  0.12500000000000000       0.89062500000000000        0.0000000000000000     
  0.10312499999999999       0.88437500000000002        0.0000000000000000     
  0.11406250000000000       0.88593750000000004        0.0000000000000000     
  0.11562500000000001       0.89687499999999998        0.0000000000000000     
  0.10468750000000000       0.89531249999999996        0.0000000000000000     
  0.14062500000000000       0.96875000000000000        0.0000000000000000     
  0.15625000000000000       0.96875000000000000        0.0000000000000000     
  0.15625000000000000       0.98437500000000000        0.0000000000000000     
  0.13437499999999999       0.97812500000000002        0.0000000000000000     
  0.14531250000000001       0.97968750000000004        0.0000000000000000     
  0.14687500000000001       0.99062499999999998        0.0000000000000000     
  0.13593749999999999       0.98906249999999996        0.0000000000000000     
  0.17187500000000000       0.96875000000000000        0.0000000000000000     
  0.18750000000000000       0.96875000000000000        0.0000000000000000     
  0.18750000000000000       0.98437500000000000        0.0000000000000000     
  0.16562499999999999       0.97812500000000002        0.0000000000000000     
  0.17656250000000001       0.97968750000000004        0.0000000000000000     
[...]
 CELL_DATA       14336
 SCALARS Nutrient float
 LOOKUP_TABLE default
    0.43042165485707786776E-02
    0.43041309495789603634E-02
    0.43047828041333129415E-02
    0.43047828040765866164E-02
    0.43041309498043252291E-02
    0.43042165483727513192E-02
    0.43036982903280748478E-02
    0.43033931552226671602E-02
    0.43030634153168800457E-02
    0.43030634140191117293E-02
    0.43033931558916615340E-02
    0.43036982900525244319E-02
    0.43036506159930803389E-02
    0.43036506157818491328E-02
    0.43063545244755091143E-02
    0.43069242784751458897E-02
    0.43084717324861398005E-02
    0.43088994566608182502E-02
    0.43077396340423738247E-02
    0.43082965448884135568E-02
    0.43070799571195668778E-02
    0.43060684299473664730E-02
    0.43050017549017046553E-02
    0.43046167338826801449E-02
    0.43052844562060316527E-02
    0.43052011967635358397E-02
    0.43062433135051250352E-02
    0.43064735062481344571E-02
    0.43082965449303079961E-02
    0.43077396340126805629E-02
    0.43088994566795749477E-02
    0.43084717324746741457E-02
    0.43069242785330552961E-02
    0.43063545244072572865E-02
    0.43052011969030822003E-02
    0.43052844560733461235E-02
    0.43046167340596661749E-02
    0.43050017547386701389E-02
    0.43060684300385496104E-02
    0.43070799570973043041E-02
    0.43064735062950032160E-02
    0.43062433134880076513E-02
    0.43111659231775262269E-02
    0.43114148302314863823E-02
    0.43138329493254412572E-02
    0.43138329493198485087E-02
    0.43114148302456746856E-02
    0.43111659231558040195E-02
    0.43090218964336778409E-02
    0.43084110560813486043E-02
    0.43068164577222522310E-02
    0.43068164576549128678E-02
    0.43084110561251234839E-02
    0.43090218964083647560E-02
    0.43097261296366476055E-02
    0.43097261296241506576E-02
    0.43120711930165357001E-02
    0.43136111130140219333E-02
    0.43166277323442112795E-02
    0.43177510049211137444E-02
    0.43157553047179315550E-02
    0.43171057117676161011E-02
    0.43147227287133197229E-02
    0.43125111016222242993E-02
    0.43102243371358588131E-02
    0.43092562213606078192E-02
    0.43104781389861918789E-02
    0.43098911186652310093E-02
    0.43125573660858281672E-02
    0.43131659170807228748E-02
    0.43235032101268345769E-02
    0.43266061245520442274E-02
    0.43319352319213418057E-02
    0.43341009596918533484E-02
    0.43307367323227995842E-02
    0.43332319243138224182E-02
    0.43290202260425365149E-02
    0.43250150286412991640E-02
    0.43208508087885528354E-02
    0.43189586696009661659E-02
    0.43210983721775420366E-02
    0.43196853994520445497E-02
    0.43249348686139324136E-02
    0.43261129750901562013E-02
    0.43186601378027338408E-02
    0.43198633004346495556E-02
    0.43241039850410297948E-02
    0.43246692054375052844E-02
    0.43208990268542449634E-02
    0.43211149308101538119E-02
    0.43173965494867020537E-02
    0.43157550299895370075E-02
    0.43127124163524011360E-02
    0.43122545677459342070E-02
    0.43148022071996250393E-02
    0.43150875777646334475E-02
    0.43174187056911096649E-02
    0.43177092856519962843E-02
    0.43328489721310460558E-02
    0.43356165257611304145E-02
    0.43429155312154554477E-02
    0.43444247579994561131E-02
    0.43383904452498128421E-02
    0.43393527663464518881E-02
    0.43330785720466337765E-02
    0.43297762837096352359E-02
    0.43244118109554219656E-02
    0.43231979791014101683E-02
    0.43272327180339832664E-02
    0.43270064204802283214E-02
    0.43319532139200443710E-02
    0.43327308015337351321E-02
    0.43171057118017519896E-02
    0.43157553047348208228E-02
    0.43177510049464190231E-02
    0.43166277323606850810E-02
    0.43136111130405588657E-02
    0.43120711930111207608E-02
    0.43098911187022109770E-02
    0.43104781389750289333E-02
    0.43092562214026592510E-02
    0.43102243371274905070E-02
    0.43125111016560167126E-02
    0.43147227287365745585E-02
    0.43131659171061062161E-02
    0.43125573661009159246E-02
    0.43211149308333947697E-02
    0.43208990268668858933E-02
    0.43246692054569203095E-02
    0.43241039850546898748E-02
    0.43198633004488708187E-02
    0.43186601378003043605E-02
    0.43150875777756463395E-02
    0.43148022071937599392E-02
    0.43122545677697398173E-02
    0.43127124163488649022E-02
    0.43157550300108454833E-02
    0.43173965494987236874E-02
    0.43177092856680667626E-02
    0.43174187056994346029E-02
    0.43332319243860936003E-02
    0.43307367323830673472E-02
    0.43341009597570052253E-02
    0.43319352319777567478E-02
    0.43266061245998939724E-02
    0.43235032101575782137E-02
    0.43196853994830987020E-02
    0.43210983722093004866E-02
    0.43189586696369235141E-02
    0.43208508088251797868E-02
    0.43250150286955630491E-02
    0.43290202261101716485E-02
    0.43261129751423601023E-02
    0.43249348686589719065E-02
    0.43393527664124520449E-02
    0.43383904453081273064E-02
    0.43444247580680288648E-02
    0.43429155312767753205E-02
    0.43356165258074457966E-02
    0.43328489721602813506E-02
    0.43270064205037780600E-02
    0.43272327180612713340E-02
    0.43231979791313072600E-02
    0.43244118109862696858E-02
    0.43297762837560321500E-02
    0.43330785721014553752E-02
    0.43327308015812370651E-02
    0.43319532139622857550E-02
    0.43315589450530376722E-02
    0.43324939076904121771E-02
    0.43387829763789770299E-02
    0.43387829763748934908E-02
    0.43324939076862106768E-02
    0.43315589450385804868E-02
    0.43258267155500528672E-02
    0.43244984478688569887E-02
    0.43200993003226460798E-02
    0.43200993003192633690E-02
    0.43244984478783806206E-02
    0.43258267155626885930E-02
    0.43281321526845595998E-02
    0.43281321526818603701E-02
    0.43509898923474194660E-02
    0.43537579216361387002E-02
    0.43643445502334283007E-02
    0.43653305826066701040E-02
    0.43554752630783665282E-02
    0.43549507300258078271E-02
    0.43454599508882911507E-02
    0.43423947412495429374E-02
    0.43348860600690092629E-02
    0.43342166371983870468E-02
    0.43409194364249243520E-02
    0.43419336718918963638E-02
    0.43473412258847408257E-02
    0.43478085141135901226E-02
    0.43549507300975854804E-02
    0.43554752631381060679E-02
    0.43653305826741933479E-02
    0.43643445502874345793E-02
    0.43537579216742167479E-02
    0.43509898923666748966E-02
    0.43419336719000339517E-02
    0.43409194364462146132E-02
    0.43342166372203382377E-02
    0.43348860600977362836E-02
    0.43423947412962408260E-02
    0.43454599509527135764E-02
    0.43478085141585099196E-02
    0.43473412259223921314E-02
    0.43833637104126578835E-02
    0.43859915199639543798E-02
    0.44019534283037172612E-02
    0.44019534282916557288E-02
    0.43859915199425114629E-02
    0.43833637103627472870E-02
    0.43688614833118704847E-02
    0.43657413744253624824E-02
    0.43546778125129513917E-02
    0.43546778125224203798E-02
    0.43657413744475582693E-02
    0.43688614833640188745E-02
    0.43749950715809811722E-02
    0.43749950715745765731E-02
    0.43440220422592918867E-02
    0.43496008780319226836E-02
    0.43588340308097191581E-02
    0.43627110744026307773E-02
    0.43569653233816165935E-02
    0.43613697684462774534E-02
    0.43541001977068149661E-02
    0.43470999658470716939E-02
    0.43398518857343526545E-02
    0.43365004914553625937E-02
    0.43401479876720404361E-02
    0.43375182675641516666E-02
    0.43468364329340919774E-02
    0.43489320837700540592E-02
    0.43799534264563387900E-02
    0.43897054755335992993E-02
    0.44057733951275651965E-02
    0.44124645510699445072E-02
    0.44024314826457567468E-02
    0.44099260336478273564E-02
    0.43974133513857436087E-02
    0.43853638936879827531E-02
    0.43728308433762224511E-02
    0.43670311152608186356E-02
    0.43733140881920809159E-02
    0.43686793970502402207E-02
    0.43849177736833737720E-02
    0.43885466655442795236E-02
    0.43583944948174125483E-02
    0.43638174498979425547E-02
    0.43764873014492805536E-02
    0.43795949632211995245E-02
    0.43694497001488547677E-02
    0.43715265779929500869E-02
    0.43607083775240411405E-02
    0.43547201227052282149E-02
    0.43454365614657526271E-02
    0.43430513205621303421E-02
    0.43496511380729250065E-02
    0.43486057209784455269E-02
    0.43579510278417320571E-02
    0.43595170079074284375E-02
    0.44038657937028220790E-02
    0.44138808711597391984E-02
    0.44361370748968479913E-02
    0.44418649152385457704E-02
    0.44241801707396019236E-02
    0.44278919804142096578E-02
    0.44090436146966456576E-02
    0.43985092680634569479E-02
    0.43823494251485073381E-02
    0.43780312410725387776E-02
    0.43893001163761297123E-02
    0.43870104135112549665E-02
    0.44038778411490909701E-02
    0.44067326905093771178E-02
    0.44423409185385155651E-02
    0.44589203433422807191E-02
    0.44865663178435804398E-02
    0.44975638168706357986E-02
    0.44800669570045246679E-02
    0.44923079812562343241E-02
    0.44711452587972537465E-02
    0.44508405107348686380E-02
    0.44295225229635691241E-02
    0.44196434428821302839E-02
    0.44305470942972097551E-02
    0.44227620592314125306E-02
    0.44503986601052052466E-02
    0.44564670402035778604E-02
    0.45488816440338057309E-02
    0.45758562441322106484E-02
    0.46226403815441416759E-02
    0.46396085077931867660E-02
    0.46092729559217967758E-02
    0.46281683956575989103E-02
    0.45934074193192918345E-02
    0.45602674985850332953E-02
    0.45248535593611933364E-02
    0.45085705445579073863E-02
    0.45273452382216415255E-02
    0.45149902901020968343E-02
    0.45605290897051181317E-02
    0.45702441836132810457E-02
    0.44847368508787593955E-02
    0.45024592767141640576E-02
    0.45419232854868709162E-02
    0.45516597451546398148E-02
    0.45199443903335967399E-02
    0.45255245841804934287E-02
    0.44925643313839082674E-02
    0.44747450933116860936E-02
    0.44466161022502451866E-02
    0.44392295169005530076E-02
    0.44590313775758200210E-02
    0.44549845164098345399E-02
    0.44846199558879126790E-02
    0.44894819406732875550E-02
    0.46278088732081019280E-02
    0.46577090384259268313E-02
    0.47274314919980367500E-02
    0.47423232665251679324E-02
    0.46848327403684157655E-02
    0.46912612415283098943E-02
    0.46339792135349621577E-02
    0.46053222364389120869E-02
    0.45568643984399710006E-02
    0.45449948907286081765E-02
    0.45804601264064805088E-02
    0.45746517518202179514E-02
    0.46248247939012403565E-02
    0.46324378512654874537E-02
    0.43857306633301338869E-02
    0.43917325499391668756E-02
    0.44098430693103153957E-02
    0.44126246651546244953E-02
    0.43964736115755321047E-02
    0.43966877801215461727E-02
    0.43805148938536597747E-02
    0.43744195965110359292E-02
    0.43615004152604231955E-02
    0.43597065880823897277E-02
    0.43704430332975798684E-02
    0.43709479207659877875E-02
    0.43817085965207076131E-02
    0.43829824706663762096E-02
    0.44477265765063209169E-02
    0.44597389118225952767E-02
    0.44916596164672360422E-02
    0.44978046052441544855E-02
    0.44700133699296885556E-02
    0.44713578929791043121E-02
    0.44429964044236077217E-02
    0.44316266273832401190E-02
    0.44089449026837711915E-02
    0.44051819136979395580E-02
    0.44231767548432434842E-02
    0.44226736737860575591E-02
    0.44432278015199191262E-02
    0.44459681925174427547E-02
    0.44326243083307225248E-02
    0.44392798291953269527E-02
    0.44657255015104957083E-02
    0.44679035980055639699E-02
    0.44428487239238168352E-02
    0.44408072285603743604E-02
    0.44167332423838169542E-02
    0.44098380566742114567E-02
    0.43911650626091572672E-02
    0.43899108676968088411E-02
    0.44069722874000571977E-02
    0.44098421589247299018E-02
    0.44229143314752821306E-02
    0.44238555799491485754E-02
    0.45189480136597183837E-02
    0.45337579481752598998E-02
    0.45793622365980935635E-02
    0.45863979424625167525E-02
    0.45450001513446811399E-02
    0.45445842642921497473E-02
    0.45028527403606008472E-02
    0.44887134008043420505E-02
    0.44562234230724351997E-02
    0.44525082792637293155E-02
    0.44799979877291340458E-02
    0.44818423551892475759E-02
    0.45081559192421205920E-02
    0.45110766576578996412E-02
    0.45601639481272510795E-02
    0.45831401347449073763E-02
    0.46407829182153548589E-02
    0.46526329605837872874E-02
    0.46027111375552959283E-02
    0.46051233436906939891E-02
    0.45543278351335234749E-02
    0.45340150960751796766E-02
    0.44936272315282696846E-02
    0.44865824423856665373E-02
    0.45180756129524456133E-02
    0.45160075584390769327E-02
    0.45541702633294708219E-02
    0.45593682274639888916E-02
    0.47660300806404596805E-02
    0.48079782057922756597E-02
    0.49134416227027046670E-02
    0.49337728826152043443E-02
    0.48413903546907577705E-02
    0.48426696784579061419E-02
    0.47508847973061251249E-02
    0.47165317401339995965E-02
    0.46442643453580801857E-02
    0.46323205477655652121E-02
    0.46894338999880968641E-02
    0.46857961666771918985E-02
    0.47546045224334679627E-02
    0.47634650916520901442E-02
    0.46756591578291078343E-02
    0.47069708939689609145E-02
    0.47894057794459531444E-02
    0.48060866545418480175E-02
    0.47333333739789460598E-02
    0.47356124222696681716E-02
    0.46603509683339231981E-02
    0.46328643399106634107E-02
    0.45743962961647998203E-02
    0.45659755853308140947E-02
    0.46127716668969195174E-02
    0.46119059986669411547E-02
    0.46642391468497638313E-02
    0.46710418315588026275E-02
    0.49692549869990321892E-02
    0.50320128526035266120E-02
    0.51859974054531896015E-02
    0.52198089400098462640E-02
    0.50849400603705172119E-02
    0.50892973901385252233E-02
    0.49499681492382622758E-02
    0.48991954741112080443E-02
    0.47916968536763845932E-02
    0.47751789867078574953E-02
    0.48593880082724617842E-02
    0.48538846805420299974E-02
    0.49552299680220715863E-02
    0.49688151482956636334E-02
    0.43613697686098419279E-02
    0.43569653235260080368E-02
    0.43627110745580255716E-02
    0.43588340309489801566E-02
    0.43496008781469122986E-02
    0.43440220423498435848E-02
    0.43375182676376553698E-02
    0.43401479877607620009E-02
    0.43365004915386544740E-02
    0.43398518858299870923E-02
    0.43470999659700184856E-02
    0.43541001978607690726E-02
    0.43489320838917110840E-02
    0.43468364330461230216E-02
    0.43715265781576586115E-02
    0.43694497003039321076E-02
    0.43795949634012534130E-02
    0.43764873016177941942E-02
    0.43638174500283321774E-02
    0.43583944949197352126E-02
    0.43486057210555435770E-02
    0.43496511381642529934E-02
    0.43430513206417671601E-02
    0.43454365615574778656E-02
    0.43547201228244175955E-02
    0.43607083776648035423E-02
    0.43595170080345342287E-02
    0.43579510279609309786E-02
    0.44099260339920719545E-02
    0.44024314829556043804E-02
    0.44124645514054617115E-02
    0.44057733954332789841E-02
    0.43897054757883685952E-02
    0.43799534266673661662E-02
    0.43686793972216447779E-02
    0.43733140883935222101E-02
    0.43670311154469249743E-02
    0.43728308435879228999E-02
    0.43853638939511012731E-02
    0.43974133517080196687E-02
    0.43885466658080390240E-02
    0.43849177739296776174E-02
    0.44278919807790480256E-02
    0.44241801710918219129E-02
    0.44418649156472709075E-02
    0.44361370752874617479E-02
    0.44138808714681123171E-02
    0.44038657939608743391E-02
    0.43870104137107377579E-02
    0.43893001165997824059E-02
    0.43780312412646472595E-02
    0.43823494253636225901E-02
    0.43985092683347017800E-02
    0.44090436150094206372E-02
    0.44067326908023658413E-02
    0.44038778414286555360E-02
    0.43966877803264456381E-02
    0.43964736117647314553E-02
    0.44126246653731797040E-02
    0.44098430695072091123E-02
    0.43917325500900756749E-02
    0.43857306634463707681E-02
    0.43709479208462629837E-02
    0.43704430334005495845E-02
    0.43597065881712838975E-02
    0.43615004153652429941E-02
    0.43744195966547100643E-02
    0.43805148940322643017E-02
    0.43829824708175981265E-02
    0.43817085966603172911E-02
    0.44408072287849273754E-02
    0.44428487241064589311E-02
    0.44679035982036850033E-02
    0.44657255016649077817E-02
    0.44392798293058210318E-02
    0.44326243083858173424E-02
    0.44098421589507386109E-02
    0.44069722874731029338E-02
    0.43899108677700523357E-02
    0.43911650627160968979E-02
    0.44098380568209083474E-02
    0.44167332425857483078E-02
    0.44238555800870764390E-02
    0.44229143315914461534E-02
    0.44713578934625379177E-02
    0.44700133703917547048E-02
    0.44978046057858565854E-02
    0.44916596169690412368E-02
    0.44597389122211263113E-02
    0.44477265768404303931E-02
    0.44226736740350250723E-02
    0.44231767551267085758E-02
    0.44051819139380391649E-02
    0.44089449029520834736E-02
    0.44316266277345797361E-02
    0.44429964048384460243E-02
    0.44459681928977349066E-02
    0.44432278018804484410E-02
    0.45445842648943971659E-02
    0.45450001518901120279E-02
    0.45863979430752635849E-02
    0.45793622371452765221E-02
    0.45337579485989825887E-02
    0.45189480139848567375E-02
    0.44818423554220405275E-02
    0.44799979880344080810E-02
    0.44525082795366256044E-02
    0.44562234234030587490E-02
    0.44887134012308871345E-02
    0.45028527408881875022E-02
    0.45110766580968271813E-02
    0.45081559196456172725E-02
    0.44923079819426375153E-02
    0.44800669576311536249E-02
    0.44975638175500740751E-02
    0.44865663184735548111E-02
    0.44589203438687146502E-02
    0.44423409189865885674E-02
    0.44227620595981495533E-02
    0.44305470947175080998E-02
    0.44196434432689744864E-02
    0.44295225233987106303E-02
    0.44508405112665145459E-02
    0.44711452594377665629E-02
    0.44564670407405129401E-02
    0.44503986606109066301E-02
    0.45255245849373454750E-02
    0.45199443910716157607E-02
    0.45516597460174765266E-02
    0.45419232863142125836E-02
    0.45024592773785969760E-02
    0.44847368514511288043E-02
    0.44549845168603222773E-02
    0.44590313780641334038E-02
    0.44392295173193534186E-02
    0.44466161027083336149E-02
    0.44747450938823042990E-02
    0.44925643320294179547E-02
    0.44894819412945085116E-02
    0.44846199564857964007E-02
    0.46281683969642438067E-02
    0.46092729571380530382E-02
    0.46396085091322094088E-02
    0.46226403827870563013E-02
    0.45758562451740855681E-02
    0.45488816449328582647E-02
    0.45149902908448186906E-02
    0.45273452390553019231E-02
    0.45085705453236975954E-02
    0.45248535602139027326E-02
    0.45602674996133201260E-02
    0.45934074205380990077E-02
    0.45702441846607010090E-02
    0.45605290906980278792E-02
    0.46912612430108080463E-02
    0.46848327418465398123E-02
    0.47423232682680853747E-02
    0.47274314936782092442E-02
    0.46577090397798255952E-02
    0.46278088743993686313E-02
    0.45746517527612724774E-02
    0.45804601274089060819E-02
    0.45449948915834955179E-02
    0.45568643993662578257E-02
    0.46053222375806073322E-02
    0.46339792148095866609E-02
    0.46324378525168050796E-02
    0.46248247951138432912E-02
    0.46051233447261556361E-02
    0.46027111385690327658E-02
    0.46526329617731796220E-02
    0.46407829193454812333E-02
    0.45831401356505778802E-02
    0.45601639489184324361E-02
    0.45160075590417216029E-02
    0.45180756136084980826E-02
    0.44865824429371247220E-02
    0.44936272321296670887E-02
    0.45340150968449207183E-02
    0.45543278360197711474E-02
    0.45593682283085268728E-02
    0.45541702641414601865E-02
    0.47356124236548006318E-02
    0.47333333752796720797E-02
    0.48060866560371692455E-02
    0.47894057808197812789E-02
    0.47069708950680886478E-02
    0.46756591587432160331E-02
    0.46119059993657944563E-02
    0.46127716677028841874E-02
    0.45659755860358881147E-02
    0.45743962969626295045E-02
    0.46328643409221598529E-02
    0.46603509695242661612E-02