# vtk DataFile Version 3.0
LAPLACIEN  2D
ASCII
DATASET UNSTRUCTURED_GRID
 POINTS        7297  float
   1.5625000000000000E-002  0.96875000000000000        0.0000000000000000     
   3.1250000000000000E-002  0.96875000000000000        0.0000000000000000     
   3.1250000000000000E-002  0.98437500000000000        0.0000000000000000     
   9.3749999999999997E-003  0.97812500000000002        0.0000000000000000     
   2.0312500000000001E-002  0.97968750000000004        0.0000000000000000     
   2.1874999999999999E-002  0.99062499999999998        0.0000000000000000     
   1.0937499999999999E-002  0.98906249999999996        0.0000000000000000     
   4.6875000000000000E-002  0.96875000000000000        0.0000000000000000     
   6.2500000000000000E-002  0.96875000000000000        0.0000000000000000     
   6.2500000000000000E-002  0.98437500000000000        0.0000000000000000     
   4.0625000000000001E-002  0.97812500000000002        0.0000000000000000     
   5.1562499999999997E-002  0.97968750000000004        0.0000000000000000     
   5.3124999999999999E-002  0.99062499999999998        0.0000000000000000     
   4.2187500000000003E-002  0.98906249999999996        0.0000000000000000     
   1.5625000000000000E-002  0.93750000000000000        0.0000000000000000     
   3.1250000000000000E-002  0.93750000000000000        0.0000000000000000     
   3.1250000000000000E-002  0.95312500000000000        0.0000000000000000     
   9.3749999999999997E-003  0.94687500000000002        0.0000000000000000     
   2.0312500000000001E-002  0.94843750000000004        0.0000000000000000     
   2.1874999999999999E-002  0.95937499999999998        0.0000000000000000     
   1.0937499999999999E-002  0.95781249999999996        0.0000000000000000     
   4.6875000000000000E-002  0.93750000000000000        0.0000000000000000     
   6.2500000000000000E-002  0.93750000000000000        0.0000000000000000     
   6.2500000000000000E-002  0.95312500000000000        0.0000000000000000     
   4.0625000000000001E-002  0.94687500000000002        0.0000000000000000     
   5.1562499999999997E-002  0.94843750000000004        0.0000000000000000     
   5.3124999999999999E-002  0.95937499999999998        0.0000000000000000     
   4.2187500000000003E-002  0.95781249999999996        0.0000000000000000     
   7.8125000000000000E-002  0.96875000000000000        0.0000000000000000     
   9.3750000000000000E-002  0.96875000000000000        0.0000000000000000     
   9.3750000000000000E-002  0.98437500000000000        0.0000000000000000     
   7.1874999999999994E-002  0.97812500000000002        0.0000000000000000     
   8.2812499999999997E-002  0.97968750000000004        0.0000000000000000     
   8.4375000000000006E-002  0.99062499999999998        0.0000000000000000     
   7.3437500000000003E-002  0.98906249999999996        0.0000000000000000     
  0.10937500000000000       0.96875000000000000        0.0000000000000000     
  0.12500000000000000       0.96875000000000000        0.0000000000000000     
  0.12500000000000000       0.98437500000000000        0.0000000000000000     
  0.10312499999999999       0.97812500000000002        0.0000000000000000     
  0.11406250000000000       0.97968750000000004        0.0000000000000000     
  0.11562500000000001       0.99062499999999998        0.0000000000000000     
  0.10468750000000000       0.98906249999999996        0.0000000000000000     
   7.8125000000000000E-002  0.93750000000000000        0.0000000000000000     
   9.3750000000000000E-002  0.93750000000000000        0.0000000000000000     
   9.3750000000000000E-002  0.95312500000000000        0.0000000000000000     
   7.1874999999999994E-002  0.94687500000000002        0.0000000000000000     
   8.2812499999999997E-002  0.94843750000000004        0.0000000000000000     
   8.4375000000000006E-002  0.95937499999999998        0.0000000000000000     
   7.3437500000000003E-002  0.95781249999999996        0.0000000000000000     
  0.10937500000000000       0.93750000000000000        0.0000000000000000     
  0.12500000000000000       0.93750000000000000        0.0000000000000000     
  0.12500000000000000       0.95312500000000000        0.0000000000000000     
  0.10312499999999999       0.94687500000000002        0.0000000000000000     
  0.11406250000000000       0.94843750000000004        0.0000000000000000     
  0.11562500000000001       0.95937499999999998        0.0000000000000000     
  0.10468750000000000       0.95781249999999996        0.0000000000000000     
   1.5625000000000000E-002  0.90625000000000000        0.0000000000000000     
   3.1250000000000000E-002  0.90625000000000000        0.0000000000000000     
   3.1250000000000000E-002  0.92187500000000000        0.0000000000000000     
   9.3749999999999997E-003  0.91562500000000002        0.0000000000000000     
   2.0312500000000001E-002  0.91718750000000004        0.0000000000000000     
   2.1874999999999999E-002  0.92812499999999998        0.0000000000000000     
   1.0937499999999999E-002  0.92656249999999996        0.0000000000000000     
   4.6875000000000000E-002  0.90625000000000000        0.0000000000000000     
   6.2500000000000000E-002  0.90625000000000000        0.0000000000000000     
   6.2500000000000000E-002  0.92187500000000000        0.0000000000000000     
   4.0625000000000001E-002  0.91562500000000002        0.0000000000000000     
   5.1562499999999997E-002  0.91718750000000004        0.0000000000000000     
   5.3124999999999999E-002  0.92812499999999998        0.0000000000000000     
   4.2187500000000003E-002  0.92656249999999996        0.0000000000000000     
   1.5625000000000000E-002  0.87500000000000000        0.0000000000000000     
   3.1250000000000000E-002  0.87500000000000000        0.0000000000000000     
   3.1250000000000000E-002  0.89062500000000000        0.0000000000000000     
   9.3749999999999997E-003  0.88437500000000002        0.0000000000000000     
   2.0312500000000001E-002  0.88593750000000004        0.0000000000000000     
   2.1874999999999999E-002  0.89687499999999998        0.0000000000000000     
   1.0937499999999999E-002  0.89531249999999996        0.0000000000000000     
   4.6875000000000000E-002  0.87500000000000000        0.0000000000000000     
   6.2500000000000000E-002  0.87500000000000000        0.0000000000000000     
   6.2500000000000000E-002  0.89062500000000000        0.0000000000000000     
   4.0625000000000001E-002  0.88437500000000002        0.0000000000000000     
   5.1562499999999997E-002  0.88593750000000004        0.0000000000000000     
   5.3124999999999999E-002  0.89687499999999998        0.0000000000000000     
   4.2187500000000003E-002  0.89531249999999996        0.0000000000000000     
   7.8125000000000000E-002  0.90625000000000000        0.0000000000000000     
   9.3750000000000000E-002  0.90625000000000000        0.0000000000000000     
   9.3750000000000000E-002  0.92187500000000000        0.0000000000000000     
   7.1874999999999994E-002  0.91562500000000002        0.0000000000000000     
   8.2812499999999997E-002  0.91718750000000004        0.0000000000000000     
   8.4375000000000006E-002  0.92812499999999998        0.0000000000000000     
   7.3437500000000003E-002  0.92656249999999996        0.0000000000000000     
  0.10937500000000000       0.90625000000000000        0.0000000000000000     
  0.12500000000000000       0.90625000000000000        0.0000000000000000     
  0.12500000000000000       0.92187500000000000        0.0000000000000000     
  0.10312499999999999       0.91562500000000002        0.0000000000000000     
  0.11406250000000000       0.91718750000000004        0.0000000000000000     
  0.11562500000000001       0.92812499999999998        0.0000000000000000     
  0.10468750000000000       0.92656249999999996        0.0000000000000000     
   7.8125000000000000E-002  0.87500000000000000        0.0000000000000000     
   9.3750000000000000E-002  0.87500000000000000        0.0000000000000000     
   9.3750000000000000E-002  0.89062500000000000        0.0000000000000000     
   7.1874999999999994E-002  0.88437500000000002        0.0000000000000000     
   8.2812499999999997E-002  0.88593750000000004        0.0000000000000000     
   8.4375000000000006E-002  0.89687499999999998        0.0000000000000000     
   7.3437500000000003E-002  0.89531249999999996        0.0000000000000000     
  0.10937500000000000       0.87500000000000000        0.0000000000000000     
  0.12500000000000000       0.87500000000000000        0.0000000000000000     
  0.12500000000000000       0.89062500000000000        0.0000000000000000     
  0.10312499999999999       0.88437500000000002        0.0000000000000000     
  0.11406250000000000       0.88593750000000004        0.0000000000000000     
  0.11562500000000001       0.89687499999999998        0.0000000000000000     
  0.10468750000000000       0.89531249999999996        0.0000000000000000     
  0.14062500000000000       0.96875000000000000        0.0000000000000000     
  0.15625000000000000       0.96875000000000000        0.0000000000000000     
  0.15625000000000000       0.98437500000000000        0.0000000000000000     
  0.13437499999999999       0.97812500000000002        0.0000000000000000     
  0.14531250000000001       0.97968750000000004        0.0000000000000000     
  0.14687500000000001       0.99062499999999998        0.0000000000000000     
  0.13593749999999999       0.98906249999999996        0.0000000000000000     
  0.17187500000000000       0.96875000000000000        0.0000000000000000     
  0.18750000000000000       0.96875000000000000        0.0000000000000000     
  0.18750000000000000       0.98437500000000000        0.0000000000000000     
  0.16562499999999999       0.97812500000000002        0.0000000000000000     
  0.17656250000000001       0.97968750000000004        0.0000000000000000     
  0.17812500000000001       0.99062499999999998        0.0000000000000000     
[...]
 CELL_DATA       14336
 SCALARS Nutrients float
 LOOKUP_TABLE default
    0.12802863075187915796E-04
    0.12703849361851356247E-04
    0.13411828672962002314E-04
    0.13411828672053971136E-04
    0.12703849360255649512E-04
    0.12802863071092896049E-04
    0.12235781869896379393E-04
    0.11903336781661072306E-04
    0.11543664522405500887E-04
    0.11543664522541598752E-04
    0.11903336783716994063E-04
    0.12235781875066927696E-04
    0.12182965419917494331E-04
    0.12182965419363956606E-04
    0.15120421069077221650E-04
    0.15741313319398414749E-04
    0.17430619524151195083E-04
    0.17895420842818846036E-04
    0.16632542549996550009E-04
    0.17247672540441942796E-04
    0.15917105977391494829E-04
    0.14814793283862450117E-04
    0.13655996518918943146E-04
    0.13230945682747654953E-04
    0.13959884004594228291E-04
    0.13864762268167482698E-04
    0.15000456055776803895E-04
    0.15255326400660406520E-04
    0.17247672550845994277E-04
    0.16632542556807565655E-04
    0.17895420847567519414E-04
    0.17430619527933840937E-04
    0.15741313322785533487E-04
    0.15120421070565931182E-04
    0.13864762269837868939E-04
    0.13959884008337224533E-04
    0.13230945687365434636E-04
    0.13655996524366356026E-04
    0.14814793291510053099E-04
    0.15917105989237633455E-04
    0.15255326406617541804E-04
    0.15000456060679821923E-04
    0.20366562186360108227E-04
    0.20637472242391535982E-04
    0.23275263095149873388E-04
    0.23275263095308346476E-04
    0.20637472241241438034E-04
    0.20366562182803078069E-04
    0.18026317586088080148E-04
    0.17361346371846086685E-04
    0.15621920059815164509E-04
    0.15621920060529203119E-04
    0.17361346373193414560E-04
    0.18026317589226862378E-04
    0.18795138856255553411E-04
    0.18795138855885189949E-04
    0.21355523096306242069E-04
    0.23034936269606199938E-04
    0.26324266759438944241E-04
    0.27547441459864262052E-04
    0.25369959503764700858E-04
    0.26840514801848584434E-04
    0.24243021632083688898E-04
    0.21833529101268599068E-04
    0.19345434484493385300E-04
    0.18282262345536959123E-04
    0.19620970561073142240E-04
    0.18978034653814899535E-04
    0.21883640968885912140E-04
    0.22550601884512471221E-04
    0.33817702236437712610E-04
    0.37196352402662682241E-04
    0.43001660392033481289E-04
    0.45358681192715538167E-04
    0.41688273820109901459E-04
    0.44400299630085542340E-04
    0.39813704688050167784E-04
    0.35453687957939619723E-04
    0.30918538342793254036E-04
    0.28857662658847626428E-04
    0.31192311371658026204E-04
    0.29655647605146029410E-04
    0.35371387762313188875E-04
    0.36653234938067599487E-04
    0.28540204528603910190E-04
    0.29851885373318445209E-04
    0.34475385500593243879E-04
    0.35091910760407235960E-04
    0.30980854149205064698E-04
    0.31216061403248107674E-04
    0.27161982293626711393E-04
    0.25372298840076183175E-04
    0.22052938249325368603E-04
    0.21554489750128632468E-04
    0.24332103985107532412E-04
    0.24643855428395403616E-04
    0.27186238065087527484E-04
    0.27502341532653353336E-04
    0.44010438713378417677E-04
    0.47024959218873671756E-04
    0.54981474286321060680E-04
    0.56626414768642015240E-04
    0.50045552222118008215E-04
    0.51090626925359980740E-04
    0.44252225055075198267E-04
    0.40655530446439522340E-04
    0.34808173679539970605E-04
    0.33487261470759655316E-04
    0.37885110540994029304E-04
    0.37639180536363158695E-04
    0.43030378431898244477E-04
    0.43877165486008848274E-04
    0.26840514823394205759E-04
    0.25369959520850392172E-04
    0.27547441476543706201E-04
    0.26324266773359673231E-04
    0.23034936280751252782E-04
    0.21355523103324421645E-04
    0.18978034658483728200E-04
    0.19620970570591539459E-04
    0.18282262356163722671E-04
    0.19345434497239100022E-04
    0.21833529117678930685E-04
    0.24243021655218503275E-04
    0.22550601898912278658E-04
    0.21883640981221686632E-04
    0.31216061417500866803E-04
    0.30980854161347417522E-04
    0.35091910774230427412E-04
    0.34475385512911149364E-04
    0.29851885380650186217E-04
    0.28540204530742732756E-04
    0.24643855427633158667E-04
    0.24332103988943104274E-04
    0.21554489754725873296E-04
    0.22052938255855311612E-04
    0.25372298849357587352E-04
    0.27161982306328681945E-04
    0.27502341541434120384E-04
    0.27186238072453807108E-04
    0.44400299692204831274E-04
    0.41688273873137179394E-04
    0.45358681248801363984E-04
    0.43001660441314562891E-04
    0.37196352440877014113E-04
    0.33817702263633128397E-04
    0.29655647624281465918E-04
    0.31192311399814336495E-04
    0.28857662684727586496E-04
    0.30918538375563982983E-04
    0.35453688002468243404E-04
    0.39813704748717100145E-04
    0.36653234980921916859E-04
    0.35371387800469814087E-04
    0.51090626983227719932E-04
    0.50045552275238202277E-04
    0.56626414831473543686E-04
    0.54981474344032986467E-04
    0.47024959259377079675E-04
    0.44010438739973449735E-04
    0.37639180552509178762E-04
    0.37885110565732649744E-04
    0.33487261491128168507E-04
    0.34808173706392920807E-04
    0.40655530484873161207E-04
    0.44252225103679663175E-04
    0.43877165526795856377E-04
    0.43030378468883646740E-04
    0.42606416612897573442E-04
    0.43627161261960817047E-04
    0.50487870879087763426E-04
    0.50487870876265063399E-04
    0.43627161257319937082E-04
    0.42606416602535378941E-04
    0.36355368173384866083E-04
    0.34906952430894515208E-04
    0.30109947004027370340E-04
    0.30109947005496254219E-04
    0.34906952435913463247E-04
    0.36355368186561039560E-04
    0.38869801110350172841E-04
    0.38869801108955075696E-04
    0.63800533891290490290E-04
    0.66819675496602025269E-04
    0.78363841100626262801E-04
    0.79437996754839045196E-04
    0.68687302163983153655E-04
    0.68108269634222060214E-04
    0.57759273813612138030E-04
    0.54420543107835089695E-04
    0.46232667987593868740E-04
    0.45505182418210757560E-04
    0.52816842249675152157E-04
    0.53924115611208812352E-04
    0.59819929832719776690E-04
    0.60327971293731330637E-04
    0.68108269702204992323E-04
    0.68687302221917361216E-04
    0.79437996820669442969E-04
    0.78363841154544693936E-04
    0.66819675533226876099E-04
    0.63800533911090488519E-04
    0.53924115617353419745E-04
    0.52816842270100511423E-04
    0.45505182435725691290E-04
    0.46232668014237547594E-04
    0.54420543150550866357E-04
    0.57759273875180801338E-04
    0.60327971336066166090E-04
    0.59819929868664622693E-04
    0.99111434472792480613E-04
    0.10197818658212079825E-03
    0.11939751996402810108E-03
    0.11939751995251497176E-03
    0.10197818656056950181E-03
    0.99111434423315510783E-04
    0.83292133789518798832E-04
    0.79887743264465643062E-04
    0.67822243916188464552E-04
    0.67822243926312215890E-04
    0.79887743286285875857E-04
    0.83292133842147761218E-04
    0.89981108211484347038E-04
    0.89981108205259684868E-04
    0.56169749900715645018E-04
    0.62237923358612233992E-04
    0.72296306518107432025E-04
    0.76515577446070677558E-04
    0.70246625797375540092E-04
    0.75036963796921372352E-04
    0.67119422366208162409E-04
    0.59498884129216167047E-04
    0.51605854001506465899E-04
    0.47959742109103124840E-04
    0.51935469671363138262E-04
    0.49078742219518200183E-04
    0.59219160177714418394E-04
    0.61498303632036288580E-04
    0.95303493652846972095E-04
    0.10591699302975352644E-03
    0.12342225709318033417E-03
    0.13070229234767892566E-03
    0.11976406573176595096E-03
    0.12791877244679988727E-03
    0.11428753441457120200E-03
    0.10116760811864134221E-03
    0.87516893830092481197E-04
    0.81203099987755435868E-04
    0.88052537169440740685E-04
    0.83013487447792307528E-04
    0.10069139100854806502E-03
    0.10464020648708978391E-03
    0.71856319362918107336E-04
    0.77762275201749862319E-04
    0.91573426089803630005E-04
    0.94953754574926899079E-04
    0.83887832374722646968E-04
    0.86138133473652534811E-04
    0.74346661039668881436E-04
    0.67830867223455393604E-04
    0.57714076226367120367E-04
    0.55121966804540772488E-04
    0.62317379742306169658E-04
    0.61181747053391650451E-04
    0.71361651425238983686E-04
    0.73064864704010723181E-04
    0.12141403416578838963E-03
    0.13231260787198467115E-03
    0.15656713929537960004E-03
    0.16279536828834153053E-03
    0.14350955032521296945E-03
    0.14753411975942264849E-03
    0.12699375561379166511E-03
    0.11552908142799108392E-03
    0.97918630008507582000E-04
    0.93226377321351888922E-04
    0.10551443740641309815E-03
    0.10303278477039664197E-03
    0.12139876590476526093E-03
    0.12450285030541431751E-03
    0.16324938893545485534E-03
    0.18129437604135818394E-03
    0.21140210053909432248E-03
    0.22336724989749302990E-03
    0.20430312178561964645E-03
    0.21761999129589742336E-03
    0.19457559341501637113E-03
    0.17246998142605510771E-03
    0.14925597308363980917E-03
    0.13850195570485525506E-03
    0.15038391057617167459E-03
    0.14191621214155111254E-03
    0.17200272091203125412E-03
    0.17860619578311825073E-03
    0.27925521005818022303E-03
    0.30860902055562631921E-03
    0.35955553252310168758E-03
    0.37801337644079478295E-03
    0.34496489474191571615E-03
    0.36551723497658830751E-03
    0.32767379147264215052E-03
    0.29160488673260140380E-03
    0.25304855081959020963E-03
    0.23532543774399343863E-03
    0.25577710967347966299E-03
    0.24234109842232741980E-03
    0.29190565481564730715E-03
    0.30247699021453963242E-03
    0.20951418084071924417E-03
    0.22880108898658775888E-03
    0.27179841456246071028E-03
    0.28238280206917243907E-03
    0.24780913873494371134E-03
    0.25385764036797887769E-03
    0.21794673934542193824E-03
    0.19855764335447635845E-03
    0.16791461601150742071E-03
    0.15988077965941986398E-03
    0.18147146959362537612E-03
    0.17708511821523285294E-03
    0.20934402264070301283E-03
    0.21463106025433359870E-03
    0.36534921389535460895E-03
    0.39788221202257788994E-03
    0.47383230343097179496E-03
    0.49001576627165930114E-03
    0.42736096411383092631E-03
    0.43431511183390937971E-03
    0.37191882465065662523E-03
    0.34073886693046349537E-03
    0.28796596721279775315E-03
    0.27505680408129642295E-03
    0.31371275858246806204E-03
    0.30742102786370173939E-03
    0.36202630916228658448E-03
    0.37030223948636463785E-03
    0.10169074799804791087E-03
    0.10823202722672272422E-03
    0.12798692593841051713E-03
    0.13101416102321761692E-03
    0.11339107689804672654E-03
    0.11361044609881826349E-03
    0.95972714632359617886E-04
    0.89334400215232735178E-04
    0.75244166061873914327E-04
    0.73295239302709791246E-04
    0.85007671606021360301E-04
    0.85563586286870838568E-04
    0.97294563815990389765E-04
    0.98680541694602013150E-04
    0.16929995086680191545E-03
    0.18237820093072035286E-03
    0.21718333413605080237E-03
    0.22385925800571379791E-03
    0.19353937867279494842E-03
    0.19497418523151490745E-03
    0.16405470984250477466E-03
    0.15168315863073558616E-03
    0.12695725055688540412E-03
    0.12286973959959679534E-03
    0.14250049767021869614E-03
    0.14196911468328791322E-03
    0.16435591443918377906E-03
    0.16733349100882469597E-03
    0.15287564528743190304E-03
    0.16013846606462999486E-03
    0.18900302460588162888E-03
    0.19137155750758598938E-03
    0.16402113168604047022E-03
    0.16177749203259654391E-03
    0.13550987432576361031E-03
    0.12799523181451956258E-03
    0.10762050009918877516E-03
    0.10625562740765811284E-03
    0.12487452234758678548E-03
    0.12800742272010603973E-03
    0.14227177484349564718E-03
    0.14329617354369260504E-03
    0.24708399437971191896E-03
    0.26322012730088163203E-03
    0.31298888053591311046E-03
    0.32063165164840769315E-03
    0.27543591617661632425E-03
    0.27493626333237748119E-03
    0.22940958232338506733E-03
    0.21401585616275989972E-03
    0.17857736947557949344E-03
    0.17454076158657065576E-03
    0.20454447817671819092E-03
    0.20657975907521062176E-03
    0.23526112581691150500E-03
    0.23843535167651568421E-03
    0.29185703349632346635E-03
    0.31685775381685413101E-03
    0.37969818792747505026E-03
    0.39256820509379403887E-03
    0.33811791142286613593E-03
    0.34069669501303055832E-03
    0.28533295486313177197E-03
    0.26322866785939637475E-03
    0.21921763560013308439E-03
    0.21156089232958954637E-03
    0.24590954593875876582E-03
    0.24369508193921381352E-03
    0.28524129131843588844E-03
    0.29088928413282052901E-03
    0.51618750238359596954E-03
    0.56182780561332679430E-03
    0.67676782480120790345E-03
    0.69884491998643079227E-03
    0.59811756198508380083E-03
    0.59942733950534466021E-03
    0.49941199878087122032E-03
    0.46203693609364935137E-03
    0.38330066523220026426E-03
    0.37032034295703407422E-03
    0.43259830538292556564E-03
    0.42869995430261397841E-03
    0.50360081103551738047E-03
    0.51322553523941373717E-03
    0.41803667721268848115E-03
    0.45213066507305578728E-03
    0.54206094285088864213E-03
    0.56018262477233130708E-03
    0.48076411860159377638E-03
    0.48315403487041879739E-03
    0.40106717142563151667E-03
    0.37115744654812724869E-03
    0.30740036923166628308E-03
    0.29825552195086039086E-03
    0.34933669364716786595E-03
    0.34845004584436881437E-03
    0.40545884917739141544E-03
    0.41284716536031434899E-03
    0.73818545758615042914E-03
    0.80649694680984880969E-03
    0.97442553552794513184E-03
    0.10111494422599084150E-02
    0.86397766487200503872E-03
    0.86855852940416055242E-03
    0.71664135941261442823E-03
    0.66140318385998818438E-03
    0.54421337951954913085E-03
    0.52627485495265811759E-03
    0.61817345908954249648E-03
    0.61229438086912192900E-03
    0.72265076864676995941E-03
    0.73740472541596133876E-03
    0.75036963951198042458E-04
    0.70246625933587870569E-04
    0.76515577592880460855E-04
    0.72296306650164679649E-04
    0.62237923464705319698E-04
    0.56169749983844969568E-04
    0.49078742283272560861E-04
    0.51935469751922408996E-04
    0.47959742182948365201E-04
    0.51605854088842996322E-04
    0.59498884243067796723E-04
    0.67119422512554137569E-04
    0.61498303744697213548E-04
    0.59219160281283183286E-04
    0.86138133632019831952E-04
    0.83887832525059868481E-04
    0.94953754751576365618E-04
    0.91573426256760681488E-04
    0.77762275327919078995E-04
    0.71856319461631679374E-04
    0.61181747124448932688E-04
    0.62317379828374908600E-04
    0.55121966875906849056E-04
    0.57714076311190924164E-04
    0.67830867335545350603E-04
    0.74346661173279899194E-04
    0.73064864825368074433E-04
    0.71361651539202658879E-04
    0.12791877278926712565E-03
    0.11976406603931965677E-03
    0.13070229268177406328E-03
    0.12342225739775064086E-03
    0.10591699328004951263E-03
    0.95303493858459259816E-04
    0.83013487611326343017E-04
    0.88052537363928775303E-04
    0.81203100165693747740E-04
    0.87516894034940297966E-04
    0.10116760837679120762E-03
    0.11428753473544927817E-03
    0.10464020674609299775E-03
    0.10069139124974419331E-03
    0.14753412012720313446E-03
    0.14350955068192288388E-03
    0.16279536870596043223E-03
    0.15656713969679068215E-03
    0.13231260818403702993E-03
    0.12141403442610392178E-03
    0.10303278496744333950E-03
    0.10551443762796243952E-03
    0.93226377507868489697E-04
    0.97918630219350047449E-04
    0.11552908169727153147E-03
    0.12699375592578214305E-03
    0.12450285059907904113E-03
    0.12139876618504933054E-03
    0.11361044630476096183E-03
    0.11339107708969179333E-03
    0.13101416124662793711E-03
    0.12798692614125574472E-03
    0.10823202737974096086E-03
    0.10169074811646908001E-03
    0.85563586365760546377E-04
    0.85007671708029063800E-04
    0.73295239388045108075E-04
    0.75244166163969451754E-04
    0.89334400357469651867E-04
    0.95972714810446099537E-04
    0.98680541846029549025E-04
    0.97294563956077916305E-04
    0.16177749226586028318E-03
    0.16402113187675770390E-03
    0.19137155771565766776E-03
    0.18900302476941861882E-03
    0.16013846618031680612E-03
    0.15287564534550881871E-03
    0.12800742274640217080E-03
    0.12487452242266244623E-03
    0.10625562748142741839E-03
    0.10762050020851259360E-03
    0.12799523196562319306E-03
    0.13550987453422861013E-03
    0.14329617368664677567E-03
    0.14227177496412476694E-03
    0.19497418573409986027E-03
    0.19353937915496689510E-03
    0.22385925857473304912E-03
    0.21718333466529127218E-03
    0.18237820134693410144E-03
    0.16929995121553188505E-03
    0.14196911493950489010E-03
    0.14250049796160060497E-03
    0.12286973984250741318E-03
    0.12695725082940623380E-03
    0.15168315899199963761E-03
    0.16405471027011403018E-03
    0.16733349140286610354E-03
    0.16435591481300793320E-03
    0.27493626397267080085E-03
    0.27543591675753152301E-03
    0.32063165230414845432E-03
    0.31298888112286151484E-03
    0.26322012775259354209E-03
    0.24708399472624835783E-03
    0.20657975932109179091E-03
    0.20454447849857997728E-03
    0.17454076187113792026E-03
    0.17857736982190256132E-03
    0.21401585661260131709E-03
    0.22940958288065940035E-03
    0.23843535214180042311E-03
    0.23526112624481631402E-03
    0.21761999200236607972E-03
    0.20430312242961345655E-03
    0.22336725059805690439E-03
    0.21140210118851564865E-03
    0.18129437657899932323E-03
    0.16324938939051548644E-03
    0.14191621250920626474E-03
    0.15038391100016161930E-03
    0.13850195609287172405E-03
    0.14925597352300306307E-03
    0.17246998196791102874E-03
    0.19457559407362609387E-03
    0.17860619633088998539E-03
    0.17200272142702278662E-03
    0.25385764115525591379E-03
    0.24780913950497331349E-03
    0.28238280297454039633E-03
    0.27179841543365553663E-03
    0.22880108967945122296E-03
    0.20951418143605940046E-03
    0.17708511867829145373E-03
    0.18147147009540021308E-03
    0.15988078008444600781E-03
    0.16791461647842616071E-03
    0.19855764394192959446E-03
    0.21794674001210482010E-03
    0.21463106089792064325E-03
    0.20934402326025413547E-03
    0.36551723635075162320E-03
    0.34496489602160891868E-03
    0.37801337785375047290E-03
    0.35955553383384058564E-03
    0.30860902164757506201E-03
    0.27925521099724339488E-03
    0.24234109919132944223E-03
    0.25577711053946104898E-03
    0.23532543853626420151E-03
    0.25304855170531106827E-03
    0.29160488780762932855E-03
    0.32767379275422885794E-03
    0.30247699131065469312E-03
    0.29190565585375299797E-03
    0.43431511340773822907E-03
    0.42736096568588520777E-03
    0.49001576813389514410E-03
    0.47383230522861629350E-03
    0.39788221346249535689E-03
    0.36534921515986236744E-03
    0.30742102885555227555E-03
    0.31371275963796164520E-03
    0.27505680497490479818E-03
    0.28796596818232180186E-03
    0.34073886813397458173E-03
    0.37191882599691317331E-03
    0.37030224081119295998E-03
    0.36202631044623332897E-03
    0.34069669611280588555E-03
    0.33811791250156012769E-03
    0.39256820636582719043E-03
    0.37969818913828531090E-03
    0.31685775478125478236E-03
    0.29185703433810676090E-03
    0.24369508257523537663E-03
    0.24590954662995727483E-03
    0.21156089290472109574E-03
    0.21921763622873545203E-03
    0.26322866867038545446E-03
    0.28533295579791001419E-03
    0.29088928502732591891E-03
    0.28524129217872889932E-03
    0.48315403636356690472E-03
    0.48076412000567749416E-03
    0.56018262639114890875E-03
    0.54206094434080913380E-03
    0.45213066625971988976E-03
    0.41803667819913985313E-03
    0.34845004659436799822E-03
    0.34933669451132860545E-03
    0.29825552270164757285E-03
    0.30740037008321205924E-03
    0.37115744763268157004E-03
    0.40106717270289594371E-03