# vtk DataFile Version 3.0
LAPLACIEN  2D
ASCII
DATASET UNSTRUCTURED_GRID
 POINTS        7297  float
   1.5625000000000000E-002  0.96875000000000000        0.0000000000000000     
   3.1250000000000000E-002  0.96875000000000000        0.0000000000000000     
   3.1250000000000000E-002  0.98437500000000000        0.0000000000000000     
   9.3749999999999997E-003  0.97812500000000002        0.0000000000000000     
   2.0312500000000001E-002  0.97968750000000004        0.0000000000000000     
   2.1874999999999999E-002  0.99062499999999998        0.0000000000000000     
   1.0937499999999999E-002  0.98906249999999996        0.0000000000000000     
   4.6875000000000000E-002  0.96875000000000000        0.0000000000000000     
   6.2500000000000000E-002  0.96875000000000000        0.0000000000000000     
   6.2500000000000000E-002  0.98437500000000000        0.0000000000000000     
   4.0625000000000001E-002  0.97812500000000002        0.0000000000000000     
   5.1562499999999997E-002  0.97968750000000004        0.0000000000000000     
   5.3124999999999999E-002  0.99062499999999998        0.0000000000000000     
   4.2187500000000003E-002  0.98906249999999996        0.0000000000000000     
   1.5625000000000000E-002  0.93750000000000000        0.0000000000000000     
   3.1250000000000000E-002  0.93750000000000000        0.0000000000000000     
   3.1250000000000000E-002  0.95312500000000000        0.0000000000000000     
   9.3749999999999997E-003  0.94687500000000002        0.0000000000000000     
   2.0312500000000001E-002  0.94843750000000004        0.0000000000000000     
   2.1874999999999999E-002  0.95937499999999998        0.0000000000000000     
   1.0937499999999999E-002  0.95781249999999996        0.0000000000000000     
   4.6875000000000000E-002  0.93750000000000000        0.0000000000000000     
   6.2500000000000000E-002  0.93750000000000000        0.0000000000000000     
   6.2500000000000000E-002  0.95312500000000000        0.0000000000000000     
   4.0625000000000001E-002  0.94687500000000002        0.0000000000000000     
   5.1562499999999997E-002  0.94843750000000004        0.0000000000000000     
   5.3124999999999999E-002  0.95937499999999998        0.0000000000000000     
   4.2187500000000003E-002  0.95781249999999996        0.0000000000000000     
   7.8125000000000000E-002  0.96875000000000000        0.0000000000000000     
   9.3750000000000000E-002  0.96875000000000000        0.0000000000000000     
   9.3750000000000000E-002  0.98437500000000000        0.0000000000000000     
   7.1874999999999994E-002  0.97812500000000002        0.0000000000000000     
   8.2812499999999997E-002  0.97968750000000004        0.0000000000000000     
   8.4375000000000006E-002  0.99062499999999998        0.0000000000000000     
   7.3437500000000003E-002  0.98906249999999996        0.0000000000000000     
  0.10937500000000000       0.96875000000000000        0.0000000000000000     
  0.12500000000000000       0.96875000000000000        0.0000000000000000     
  0.12500000000000000       0.98437500000000000        0.0000000000000000     
  0.10312499999999999       0.97812500000000002        0.0000000000000000     
  0.11406250000000000       0.97968750000000004        0.0000000000000000     
  0.11562500000000001       0.99062499999999998        0.0000000000000000     
  0.10468750000000000       0.98906249999999996        0.0000000000000000     
   7.8125000000000000E-002  0.93750000000000000        0.0000000000000000     
   9.3750000000000000E-002  0.93750000000000000        0.0000000000000000     
   9.3750000000000000E-002  0.95312500000000000        0.0000000000000000     
   7.1874999999999994E-002  0.94687500000000002        0.0000000000000000     
   8.2812499999999997E-002  0.94843750000000004        0.0000000000000000     
   8.4375000000000006E-002  0.95937499999999998        0.0000000000000000     
   7.3437500000000003E-002  0.95781249999999996        0.0000000000000000     
  0.10937500000000000       0.93750000000000000        0.0000000000000000     
  0.12500000000000000       0.93750000000000000        0.0000000000000000     
  0.12500000000000000       0.95312500000000000        0.0000000000000000     
  0.10312499999999999       0.94687500000000002        0.0000000000000000     
  0.11406250000000000       0.94843750000000004        0.0000000000000000     
  0.11562500000000001       0.95937499999999998        0.0000000000000000     
  0.10468750000000000       0.95781249999999996        0.0000000000000000     
   1.5625000000000000E-002  0.90625000000000000        0.0000000000000000     
   3.1250000000000000E-002  0.90625000000000000        0.0000000000000000     
   3.1250000000000000E-002  0.92187500000000000        0.0000000000000000     
   9.3749999999999997E-003  0.91562500000000002        0.0000000000000000     
   2.0312500000000001E-002  0.91718750000000004        0.0000000000000000     
   2.1874999999999999E-002  0.92812499999999998        0.0000000000000000     
   1.0937499999999999E-002  0.92656249999999996        0.0000000000000000     
   4.6875000000000000E-002  0.90625000000000000        0.0000000000000000     
   6.2500000000000000E-002  0.90625000000000000        0.0000000000000000     
   6.2500000000000000E-002  0.92187500000000000        0.0000000000000000     
   4.0625000000000001E-002  0.91562500000000002        0.0000000000000000     
   5.1562499999999997E-002  0.91718750000000004        0.0000000000000000     
   5.3124999999999999E-002  0.92812499999999998        0.0000000000000000     
   4.2187500000000003E-002  0.92656249999999996        0.0000000000000000     
   1.5625000000000000E-002  0.87500000000000000        0.0000000000000000     
   3.1250000000000000E-002  0.87500000000000000        0.0000000000000000     
   3.1250000000000000E-002  0.89062500000000000        0.0000000000000000     
   9.3749999999999997E-003  0.88437500000000002        0.0000000000000000     
   2.0312500000000001E-002  0.88593750000000004        0.0000000000000000     
   2.1874999999999999E-002  0.89687499999999998        0.0000000000000000     
   1.0937499999999999E-002  0.89531249999999996        0.0000000000000000     
   4.6875000000000000E-002  0.87500000000000000        0.0000000000000000     
   6.2500000000000000E-002  0.87500000000000000        0.0000000000000000     
   6.2500000000000000E-002  0.89062500000000000        0.0000000000000000     
   4.0625000000000001E-002  0.88437500000000002        0.0000000000000000     
   5.1562499999999997E-002  0.88593750000000004        0.0000000000000000     
   5.3124999999999999E-002  0.89687499999999998        0.0000000000000000     
   4.2187500000000003E-002  0.89531249999999996        0.0000000000000000     
   7.8125000000000000E-002  0.90625000000000000        0.0000000000000000     
   9.3750000000000000E-002  0.90625000000000000        0.0000000000000000     
   9.3750000000000000E-002  0.92187500000000000        0.0000000000000000     
   7.1874999999999994E-002  0.91562500000000002        0.0000000000000000     
   8.2812499999999997E-002  0.91718750000000004        0.0000000000000000     
   8.4375000000000006E-002  0.92812499999999998        0.0000000000000000     
   7.3437500000000003E-002  0.92656249999999996        0.0000000000000000     
  0.10937500000000000       0.90625000000000000        0.0000000000000000     
  0.12500000000000000       0.90625000000000000        0.0000000000000000     
  0.12500000000000000       0.92187500000000000        0.0000000000000000     
  0.10312499999999999       0.91562500000000002        0.0000000000000000     
  0.11406250000000000       0.91718750000000004        0.0000000000000000     
  0.11562500000000001       0.92812499999999998        0.0000000000000000     
  0.10468750000000000       0.92656249999999996        0.0000000000000000     
   7.8125000000000000E-002  0.87500000000000000        0.0000000000000000     
   9.3750000000000000E-002  0.87500000000000000        0.0000000000000000     
   9.3750000000000000E-002  0.89062500000000000        0.0000000000000000     
   7.1874999999999994E-002  0.88437500000000002        0.0000000000000000     
   8.2812499999999997E-002  0.88593750000000004        0.0000000000000000     
   8.4375000000000006E-002  0.89687499999999998        0.0000000000000000     
   7.3437500000000003E-002  0.89531249999999996        0.0000000000000000     
  0.10937500000000000       0.87500000000000000        0.0000000000000000     
  0.12500000000000000       0.87500000000000000        0.0000000000000000     
  0.12500000000000000       0.89062500000000000        0.0000000000000000     
  0.10312499999999999       0.88437500000000002        0.0000000000000000     
  0.11406250000000000       0.88593750000000004        0.0000000000000000     
  0.11562500000000001       0.89687499999999998        0.0000000000000000     
  0.10468750000000000       0.89531249999999996        0.0000000000000000     
  0.14062500000000000       0.96875000000000000        0.0000000000000000     
  0.15625000000000000       0.96875000000000000        0.0000000000000000     
  0.15625000000000000       0.98437500000000000        0.0000000000000000     
  0.13437499999999999       0.97812500000000002        0.0000000000000000     
  0.14531250000000001       0.97968750000000004        0.0000000000000000     
  0.14687500000000001       0.99062499999999998        0.0000000000000000     
  0.13593749999999999       0.98906249999999996        0.0000000000000000     
  0.17187500000000000       0.96875000000000000        0.0000000000000000     
  0.18750000000000000       0.96875000000000000        0.0000000000000000     
  0.18750000000000000       0.98437500000000000        0.0000000000000000     
  0.16562499999999999       0.97812500000000002        0.0000000000000000     
  0.17656250000000001       0.97968750000000004        0.0000000000000000     
  0.17812500000000001       0.99062499999999998        0.0000000000000000     
[...]
 CELL_DATA       14336
 SCALARS Nutrients float
 LOOKUP_TABLE default
    0.12719404676728478991E-04
    0.12620971155059737450E-04
    0.13332547000440706227E-04
    0.13332546999629565454E-04
    0.12620971153267453003E-04
    0.12719404672545494872E-04
    0.12150896424496436421E-04
    0.11818550332426137669E-04
    0.11460024693282665133E-04
    0.11460024693865245924E-04
    0.11818550334257267047E-04
    0.12150896429775379529E-04
    0.12098378110207703143E-04
    0.12098378109666059455E-04
    0.15043678711803582722E-04
    0.15662928944606753799E-04
    0.17348519243657918050E-04
    0.17808477275982095405E-04
    0.16547153027156385693E-04
    0.17155142826872898373E-04
    0.15830032766602923676E-04
    0.14731717470510120483E-04
    0.13573302356431765512E-04
    0.13148402492572313388E-04
    0.13880067563680740541E-04
    0.13786378029919457304E-04
    0.14920918103521939869E-04
    0.15174281055990271428E-04
    0.17155142837219080563E-04
    0.16547153034130302715E-04
    0.17808477280912450574E-04
    0.17348519247534540516E-04
    0.15662928948203560625E-04
    0.15043678713377136156E-04
    0.13786378031543864903E-04
    0.13880067567489576654E-04
    0.13148402496943438771E-04
    0.13573302362184654047E-04
    0.14731717478232194603E-04
    0.15830032778582070192E-04
    0.15174281062115681665E-04
    0.14920918108459589686E-04
    0.20279365226903543632E-04
    0.20553053141614357178E-04
    0.23189344829898679020E-04
    0.23189344830045317364E-04
    0.20553053140545127160E-04
    0.20279365223509174292E-04
    0.17944307514471226686E-04
    0.17281965075035249623E-04
    0.15545340204199651376E-04
    0.15545340204984234279E-04
    0.17281965076419331952E-04
    0.17944307517642965274E-04
    0.18713641506590881998E-04
    0.18713641506253424072E-04
    0.21254388666309419783E-04
    0.22914939579803288226E-04
    0.26185111125541139532E-04
    0.27387430248262243271E-04
    0.25216494026743735613E-04
    0.26664231790939375562E-04
    0.24090380787175196551E-04
    0.21705139713762070772E-04
    0.19237232440378080950E-04
    0.18183179587682288844E-04
    0.19517220338076376925E-04
    0.18885111213436222552E-04
    0.21762860580604285354E-04
    0.22421264793876791367E-04
    0.33621209394094113887E-04
    0.36949218607834703179E-04
    0.42710265334322204385E-04
    0.45019329208660336208E-04
    0.41363923927512449581E-04
    0.44026129568681089742E-04
    0.39491256446003760588E-04
    0.35184775029130927327E-04
    0.30697231575816324263E-04
    0.28660789512733862738E-04
    0.30982277650232431607E-04
    0.29477013684951652622E-04
    0.35120059849173450924E-04
    0.36382000196810271970E-04
    0.28454440703902000089E-04
    0.29758253508810120609E-04
    0.34382399923975518017E-04
    0.34983020282591809199E-04
    0.30862519061411423514E-04
    0.31072707376827072938E-04
    0.27028096304846099281E-04
    0.25260432895278748388E-04
    0.21953606152879911849E-04
    0.21462792483777858824E-04
    0.24239139486264772358E-04
    0.24556735417036008130E-04
    0.27085792329383647853E-04
    0.27395549942891119969E-04
    0.43904853283142777161E-04
    0.46877765980748175060E-04
    0.54824406604840789060E-04
    0.56415635805677307097E-04
    0.49811241741086852825E-04
    0.50786418287452991967E-04
    0.43973516341975714113E-04
    0.40437364343354056451E-04
    0.34621078578066111372E-04
    0.33328827507088788600E-04
    0.37734446683874501346E-04
    0.37522762105367153402E-04
    0.42855314579134472350E-04
    0.43679432961261914655E-04
    0.26664231811122781561E-04
    0.25216494043233193660E-04
    0.27387430264096653470E-04
    0.26185111138682913307E-04
    0.22914939590524285883E-04
    0.21254388673233260218E-04
    0.18885111218234321997E-04
    0.19517220347499388071E-04
    0.18183179598521932100E-04
    0.19237232453060424054E-04
    0.21705139729774947425E-04
    0.24090380809589439999E-04
    0.22421264807875528703E-04
    0.21762860592793353739E-04
    0.31072707390096162541E-04
    0.30862519072970279058E-04
    0.34983020295847840943E-04
    0.34382399935961677965E-04
    0.29758253515929683253E-04
    0.28454440705926307189E-04
    0.24556735416266234752E-04
    0.24239139490065290608E-04
    0.21462792488260943328E-04
    0.21953606159330779250E-04
    0.25260432904252076518E-04
    0.27028096316979022934E-04
    0.27395549951383346937E-04
    0.27085792336490037440E-04
    0.44026129627825931001E-04
    0.41363923977647035462E-04
    0.45019329261523838629E-04
    0.42710265380729831746E-04
    0.36949218643720805754E-04
    0.33621209419512623957E-04
    0.29477013702915964437E-04
    0.30982277676754808567E-04
    0.28660789537455169825E-04
    0.30697231606770492799E-04
    0.35184775071517784156E-04
    0.39491256503830489833E-04
    0.36382000237293981291E-04
    0.35120059885261899505E-04
    0.50786418342039921833E-04
    0.49811241791301744206E-04
    0.56415635865400238179E-04
    0.54824406659987221456E-04
    0.46877766019235061806E-04
    0.43904853308475384538E-04
    0.37522762120591086627E-04
    0.37734446707288924687E-04
    0.33328827526125637249E-04
    0.34621078603298673993E-04
    0.40437364379441427607E-04
    0.43973516387608089487E-04
    0.43679432999748056012E-04
    0.42855314614080835915E-04
    0.42543893767245986144E-04
    0.43586404508142577473E-04
    0.50484042605038088609E-04
    0.50484042602368627006E-04
    0.43586404503860764939E-04
    0.42543893757502139247E-04
    0.36273724088638992983E-04
    0.34833766685949939267E-04
    0.30027799399835134603E-04
    0.30027799401284065774E-04
    0.34833766690831817047E-04
    0.36273724101465795863E-04
    0.38813023893669333295E-04
    0.38813023892346721841E-04
    0.63872083011379618021E-04
    0.66879932420729705424E-04
    0.78484446481786712116E-04
    0.79512867819849164996E-04
    0.68674357929880613049E-04
    0.68012708306987673082E-04
    0.57634284800583321623E-04
    0.54344899089120801239E-04
    0.46147469932900377055E-04
    0.45443277853618204408E-04
    0.52797624068925798151E-04
    0.53935450766240893667E-04
    0.59816310269040709338E-04
    0.60305448533869699637E-04
    0.68012708372518546453E-04
    0.68674357986099816061E-04
    0.79512867884319227856E-04
    0.78484446534700426650E-04
    0.66879932456565311283E-04
    0.63872083030752874275E-04
    0.53935450771985769271E-04
    0.52797624088561072189E-04
    0.45443277870276781053E-04
    0.46147469958313167959E-04
    0.54344899130230982904E-04
    0.57634284859801942840E-04
    0.60305448574759761156E-04
    0.59816310303859225139E-04
    0.99417491005161944310E-04
    0.10235909854766574211E-03
    0.11995598193503650877E-03
    0.11995598192366200825E-03
    0.10235909852651729453E-03
    0.99417490956786550992E-04
    0.83471610545667490914E-04
    0.80077725629633270208E-04
    0.67926616423800024579E-04
    0.67926616433708290736E-04
    0.80077725651076553013E-04
    0.83471610597397649699E-04
    0.90264758790330754459E-04
    0.90264758784198696707E-04
    0.55740740410436857724E-04
    0.61695879082595831886E-04
    0.71643067061636034549E-04
    0.75757480782906813253E-04
    0.69533278455718444005E-04
    0.74213768937013687506E-04
    0.66414015994952410571E-04
    0.58916173191618479723E-04
    0.51131292275338292646E-04
    0.47540050195939787057E-04
    0.51486067491418440877E-04
    0.48696717187740201519E-04
    0.58675042886512337775E-04
    0.60909600882683110896E-04
    0.94317407878648552052E-04
    0.10468562210824250251E-03
    0.12192342861809355055E-03
    0.12899134676579068195E-03
    0.11817493102418557291E-03
    0.12610794703981330084E-03
    0.11273375936011088979E-03
    0.99879453104021096951E-04
    0.86470312452790275130E-04
    0.80277015622021597602E-04
    0.87051433984778876611E-04
    0.82154711092503443005E-04
    0.99474508760927758417E-04
    0.10332908964286477242E-03
    0.71620987486618390544E-04
    0.77406306250475307405E-04
    0.91151774358266604288E-04
    0.94403560717400540636E-04
    0.83321620886767100173E-04
    0.85422668991580959805E-04
    0.73713680239549371508E-04
    0.67336046121358272376E-04
    0.57302811453359849654E-04
    0.54777900606593601712E-04
    0.61984806049275348490E-04
    0.60941220934848491688E-04
    0.70955199394710948327E-04
    0.72604047103189917555E-04
    0.12071678831901339393E-03
    0.13133110259999086094E-03
    0.15536337440527945393E-03
    0.16132384952003485747E-03
    0.14208766539227285280E-03
    0.14582778982618195378E-03
    0.12551778773816843482E-03
    0.11434817181018619209E-03
    0.96957477720576679624E-04
    0.92410136317615091707E-04
    0.10467959207471899674E-03
    0.10239126471027484790E-03
    0.12036186534006767667E-03
    0.12335113541421901433E-03
    0.16101147577872356852E-03
    0.17856825341340751561E-03
    0.20809949408912258983E-03
    0.21967253036392703149E-03
    0.20089775548736644377E-03
    0.21380669524118317906E-03
    0.19127798590864419893E-03
    0.16969740635769864140E-03
    0.14698026039040043653E-03
    0.13647252422887662078E-03
    0.14817718227840324203E-03
    0.13998444460519858436E-03
    0.16934436157491224682E-03
    0.17576577425322856925E-03
    0.27444476268961262751E-03
    0.30290649423663173990E-03
    0.35269952643872306414E-03
    0.37048941842620421736E-03
    0.33807591191395295130E-03
    0.35793728170054956361E-03
    0.32105616788229363523E-03
    0.28595393056093438471E-03
    0.24834569602490499680E-03
    0.23108631009278196729E-03
    0.25115675195822419544E-03
    0.23820525890892727048E-03
    0.28641032784684354899E-03
    0.29665689643550553854E-03
    0.20757209065818784982E-03
    0.22626339303238762637E-03
    0.26866527462080809887E-03
    0.27874212411618999076E-03
    0.24443775620156481775E-03
    0.25000043824554061102E-03
    0.21464549832967295268E-03
    0.19583189024532793852E-03
    0.16569703027433736785E-03
    0.15794732028608223992E-03
    0.17940977451303544220E-03
    0.17538563698970332312E-03
    0.20680572674900123890E-03
    0.21187316033270973742E-03
    0.36047363215342622007E-03
    0.39187543961692464841E-03
    0.46642163133896603596E-03
    0.48174730137888303882E-03
    0.41992398054142642634E-03
    0.42614888295038392228E-03
    0.36497285712341686692E-03
    0.33482348055195379618E-03
    0.28313080330857637746E-03
    0.27072853019083071950E-03
    0.30895766122261762417E-03
    0.30327333214364565750E-03
    0.35624802204034760993E-03
    0.36414423832800040318E-03
    0.10187640694001006217E-03
    0.10831611708220070312E-03
    0.12811929901269798163E-03
    0.13099695899946361207E-03
    0.11323375878713507175E-03
    0.11324770212170656811E-03
    0.95610221080066865691E-04
    0.89119998655411646581E-04
    0.75054480141985337465E-04
    0.73180920187206990901E-04
    0.84976547867800694734E-04
    0.85643249263796337057E-04
    0.97245850364884161838E-04
    0.98569766441711445808E-04
    0.16935060371865362440E-03
    0.18211676121701641162E-03
    0.21685265032521494730E-03
    0.22317127496020665702E-03
    0.19270875865574021123E-03
    0.19372578662187918538E-03
    0.16293585060253855694E-03
    0.15091288932627284223E-03
    0.12633423432789131968E-03
    0.12242784138150798897E-03
    0.14216583416649722078E-03
    0.14190342932413150265E-03
    0.16388464566654374079E-03
    0.16671491882071478772E-03
    0.15378472526668252973E-03
    0.16104420605519872674E-03
    0.19019232806329197053E-03
    0.19243216431822453066E-03
    0.16472296341770429652E-03
    0.16222023370083673362E-03
    0.13576912848292562721E-03
    0.12837769635989207981E-03
    0.10789350325238042025E-03
    0.10659369399137988042E-03
    0.12541296100283596811E-03
    0.12864467578507481483E-03
    0.14292407332456883123E-03
    0.14389579102002257225E-03
    0.24867954178581415121E-03
    0.26456661413858665243E-03
    0.31465658403778559932E-03
    0.32186525658754749652E-03
    0.27609685442241295580E-03
    0.27497540021148672877E-03
    0.22929407310172178263E-03
    0.21429154891323894420E-03
    0.17879681534318736199E-03
    0.17497428880401761568E-03
    0.20533563473220037819E-03
    0.20771065228638945464E-03
    0.23611082134417698468E-03
    0.23910925831553732639E-03
    0.29095353426071573653E-03
    0.31520032926162346379E-03
    0.37755625669137109560E-03
    0.38969105904587485840E-03
    0.33528574808309698696E-03
    0.33711639172814887675E-03
    0.28227080297629764246E-03
    0.26089870914458118635E-03
    0.21736614806134397972E-03
    0.21008677308963365866E-03
    0.24447921475936440060E-03
    0.24280850321913542570E-03
    0.28335232427618176022E-03
    0.28869643466933878669E-03
    0.51219147274251294443E-03
    0.55622809867313690972E-03
    0.66960684231047473171E-03
    0.69032256172428941958E-03
    0.59034498464786565493E-03
    0.59047740047907194740E-03
    0.49193621635870124660E-03
    0.45594861067898043942E-03
    0.37846821910740471428E-03
    0.36618610021734663553E-03
    0.42817816902903353292E-03
    0.42525126821550039919E-03
    0.49797319865869471654E-03
    0.50703556120417902098E-03
    0.41979437286285877905E-03
    0.45301681961510672841E-03
    0.54298646699797953417E-03
    0.56004168727401672321E-03
    0.47997763556928375525E-03
    0.48111058149487452964E-03
    0.39921664014168118002E-03
    0.37026278058255838880E-03
    0.30676246758157889880E-03
    0.29813058968040305171E-03
    0.34969395735273098606E-03
    0.34962583072662800458E-03
    0.40556473332643117697E-03
    0.41252496155288147619E-03
    0.73783260124902583319E-03
    0.80392859223129837631E-03
    0.97071340719656444562E-03
    0.10052013981488548688E-02
    0.85791088751727313799E-03
    0.86026739245999999956E-03
    0.70970719187876641579E-03
    0.65650742786129855002E-03
    0.54052341658378927607E-03
    0.52365400698308568403E-03
    0.61588502070999376781E-03
    0.61166618923534556845E-03
    0.71918395052511410563E-03
    0.73304335649477950568E-03
    0.74213769085517739986E-04
    0.69533278586204005055E-04
    0.75757480923540696373E-04
    0.71643067187965916434E-04
    0.61695879183824576782E-04
    0.55740740489458851751E-04
    0.48696717247937586247E-04
    0.51486067568039340443E-04
    0.47540050265708495012E-04
    0.51131292358667679602E-04
    0.58916173300450856427E-04
    0.66414016135667283593E-04
    0.60909600990435344410E-04
    0.58675042985102697014E-04
    0.85422669143511077597E-04
    0.83321621031503319710E-04
    0.94403560888329377042E-04
    0.91151774520079848299E-04
    0.77406306372155181698E-04
    0.71620987581790700790E-04
    0.60941221002484167394E-04
    0.61984806131263529925E-04
    0.54777900674317741539E-04
    0.57302811533943196452E-04
    0.67336046228476430578E-04
    0.73713680367395306844E-04
    0.72604047219498518760E-04
    0.70955199503938747117E-04
    0.12610794737161215248E-03
    0.11817493132190670343E-03
    0.12899134708930148560E-03
    0.12192342891301127306E-03
    0.10468562235002129459E-03
    0.94317408076842321933E-04
    0.82154711249347639381E-04
    0.87051434172122032465E-04
    0.80277015793161988957E-04
    0.86470312650630446025E-04
    0.99879453353742252706E-04
    0.11273375967107439788E-03
    0.10332908989335079215E-03
    0.99474508993796861649E-04
    0.14582779018292377085E-03
    0.14208766573875510866E-03
    0.16132384992642467727E-03
    0.15536337479620963495E-03
    0.13133110290345633851E-03
    0.12071678857204433432E-03
    0.10239126490095279279E-03
    0.10467959228901304691E-03
    0.92410136497309025051E-04
    0.96957477923768784151E-04
    0.11434817207093201698E-03
    0.12551778804035872801E-03
    0.12335113569914333371E-03
    0.12036186561208783534E-03
    0.11324770232199137096E-03
    0.11323375897400585427E-03
    0.13099695921781618333E-03
    0.12811929921134149212E-03
    0.10831611723198870847E-03
    0.10187640705612768116E-03
    0.85643249340914458516E-04
    0.84976547967149460168E-04
    0.73180920269821976717E-04
    0.75054480240711730194E-04
    0.89119998793571407448E-04
    0.95610221253128924081E-04
    0.98569766589306530291E-04
    0.97245850501535309593E-04
    0.16222023392941059376E-03
    0.16472296360470000624E-03
    0.19243216452229496092E-03
    0.19019232822387263930E-03
    0.16104420616879102203E-03
    0.15378472532406870020E-03
    0.12864467581070546261E-03
    0.12541296107642036298E-03
    0.10659369406363549066E-03
    0.10789350335951379794E-03
    0.12837769650810422440E-03
    0.13576912868755669841E-03
    0.14389579116035194364E-03
    0.14292407344293072162E-03
    0.19372578711204327417E-03
    0.19270875912662591145E-03
    0.22317127551690693209E-03
    0.21685265084336156232E-03
    0.18211676162452157730E-03
    0.16935060406066544366E-03
    0.14190342957440472060E-03
    0.14216583445087182256E-03
    0.12242784161796145103E-03
    0.12633423459305516000E-03
    0.15091288967851798500E-03
    0.16293585101957486260E-03
    0.16671491920548903143E-03
    0.16388464603176770514E-03
    0.27497540083824622377E-03
    0.27609685499187464281E-03
    0.32186525723075244112E-03
    0.31465658461448531161E-03
    0.26456661458217355142E-03
    0.24867954212667484591E-03
    0.20771065252719810262E-03
    0.20533563504787616773E-03
    0.17497428908315397597E-03
    0.17879681568295604827E-03
    0.21429154935448112046E-03
    0.22929407364806161148E-03
    0.23910925877191865126E-03
    0.23611082176405509265E-03
    0.21380669592745973548E-03
    0.20089775611291572520E-03
    0.21967253104432742897E-03
    0.20809949472024280017E-03
    0.17856825393546761258E-03
    0.16101147622036931194E-03
    0.13998444496132576723E-03
    0.14817718268953262452E-03
    0.13647252460496624247E-03
    0.14698026081672556299E-03
    0.16969740688395267632E-03
    0.19127798654883224256E-03
    0.17576577478517333743E-03
    0.16934436207489199735E-03
    0.25000043901124462597E-03
    0.24443775695128286797E-03
    0.27874212499909815791E-03
    0.26866527547059670857E-03
    0.22626339370787563934E-03
    0.20757209123856146249E-03
    0.17538563744024272275E-03
    0.17940977500103868895E-03
    0.15794732069877081356E-03
    0.16569703072766969938E-03
    0.19583189081643856150E-03
    0.21464549897753289220E-03
    0.21187316095919926607E-03
    0.20680572735221538637E-03
    0.35793728303596999887E-03
    0.33807591315798950909E-03
    0.37048941980014342846E-03
    0.35269952771331482440E-03
    0.30290649529839076479E-03
    0.27444476360256056741E-03
    0.23820525965609858402E-03
    0.25115675279989852766E-03
    0.23108631086270534473E-03
    0.24834569688572151469E-03
    0.28595393160599355195E-03
    0.32105616912822673367E-03
    0.29665689750117631065E-03
    0.28641032885607802016E-03
    0.42614888448141112617E-03
    0.41992398207247320007E-03
    0.48174730319389103515E-03
    0.46642163309252340471E-03
    0.39187544102097302120E-03
    0.36047363338731708499E-03
    0.30327333311022463365E-03
    0.30895766225059345146E-03
    0.27072853105991980839E-03
    0.28313080425173951403E-03
    0.33482348172303693767E-03
    0.36497285843302185214E-03
    0.36414423961819724794E-03
    0.35624802329110069176E-03
    0.33711639280171334541E-03
    0.33528574913751753523E-03
    0.38969106029021016811E-03
    0.37755625787701881275E-03
    0.31520033020561465976E-03
    0.29095353508540853539E-03
    0.24280850384097280546E-03
    0.24447921543476575871E-03
    0.21008677365087888213E-03
    0.21736614867457986866E-03
    0.26089870993643106195E-03
    0.28227080388912203753E-03
    0.28869643554361350615E-03
    0.28335232511733703066E-03
    0.48111058295731570040E-03
    0.47997763694574156800E-03
    0.56004168886278121644E-03
    0.54298646846148062098E-03
    0.45301682078043931578E-03
    0.41979437383254914438E-03
    0.34962583146218951862E-03
    0.34969395819990997535E-03
    0.29813059041597145043E-03
    0.30676246841559811317E-03
    0.37026278164528978040E-03
    0.39921664139296958668E-03