# vtk DataFile Version 3.0
LAPLACIEN  2D
ASCII
DATASET UNSTRUCTURED_GRID
 POINTS        7297  float
   1.5625000000000000E-002  0.96875000000000000        0.0000000000000000     
   3.1250000000000000E-002  0.96875000000000000        0.0000000000000000     
   3.1250000000000000E-002  0.98437500000000000        0.0000000000000000     
   9.3749999999999997E-003  0.97812500000000002        0.0000000000000000     
   2.0312500000000001E-002  0.97968750000000004        0.0000000000000000     
   2.1874999999999999E-002  0.99062499999999998        0.0000000000000000     
   1.0937499999999999E-002  0.98906249999999996        0.0000000000000000     
   4.6875000000000000E-002  0.96875000000000000        0.0000000000000000     
   6.2500000000000000E-002  0.96875000000000000        0.0000000000000000     
   6.2500000000000000E-002  0.98437500000000000        0.0000000000000000     
   4.0625000000000001E-002  0.97812500000000002        0.0000000000000000     
   5.1562499999999997E-002  0.97968750000000004        0.0000000000000000     
   5.3124999999999999E-002  0.99062499999999998        0.0000000000000000     
   4.2187500000000003E-002  0.98906249999999996        0.0000000000000000     
   1.5625000000000000E-002  0.93750000000000000        0.0000000000000000     
   3.1250000000000000E-002  0.93750000000000000        0.0000000000000000     
   3.1250000000000000E-002  0.95312500000000000        0.0000000000000000     
   9.3749999999999997E-003  0.94687500000000002        0.0000000000000000     
   2.0312500000000001E-002  0.94843750000000004        0.0000000000000000     
   2.1874999999999999E-002  0.95937499999999998        0.0000000000000000     
   1.0937499999999999E-002  0.95781249999999996        0.0000000000000000     
   4.6875000000000000E-002  0.93750000000000000        0.0000000000000000     
   6.2500000000000000E-002  0.93750000000000000        0.0000000000000000     
   6.2500000000000000E-002  0.95312500000000000        0.0000000000000000     
   4.0625000000000001E-002  0.94687500000000002        0.0000000000000000     
   5.1562499999999997E-002  0.94843750000000004        0.0000000000000000     
   5.3124999999999999E-002  0.95937499999999998        0.0000000000000000     
   4.2187500000000003E-002  0.95781249999999996        0.0000000000000000     
   7.8125000000000000E-002  0.96875000000000000        0.0000000000000000     
   9.3750000000000000E-002  0.96875000000000000        0.0000000000000000     
   9.3750000000000000E-002  0.98437500000000000        0.0000000000000000     
   7.1874999999999994E-002  0.97812500000000002        0.0000000000000000     
   8.2812499999999997E-002  0.97968750000000004        0.0000000000000000     
   8.4375000000000006E-002  0.99062499999999998        0.0000000000000000     
   7.3437500000000003E-002  0.98906249999999996        0.0000000000000000     
  0.10937500000000000       0.96875000000000000        0.0000000000000000     
  0.12500000000000000       0.96875000000000000        0.0000000000000000     
  0.12500000000000000       0.98437500000000000        0.0000000000000000     
  0.10312499999999999       0.97812500000000002        0.0000000000000000     
  0.11406250000000000       0.97968750000000004        0.0000000000000000     
  0.11562500000000001       0.99062499999999998        0.0000000000000000     
  0.10468750000000000       0.98906249999999996        0.0000000000000000     
   7.8125000000000000E-002  0.93750000000000000        0.0000000000000000     
   9.3750000000000000E-002  0.93750000000000000        0.0000000000000000     
   9.3750000000000000E-002  0.95312500000000000        0.0000000000000000     
   7.1874999999999994E-002  0.94687500000000002        0.0000000000000000     
   8.2812499999999997E-002  0.94843750000000004        0.0000000000000000     
   8.4375000000000006E-002  0.95937499999999998        0.0000000000000000     
   7.3437500000000003E-002  0.95781249999999996        0.0000000000000000     
  0.10937500000000000       0.93750000000000000        0.0000000000000000     
  0.12500000000000000       0.93750000000000000        0.0000000000000000     
  0.12500000000000000       0.95312500000000000        0.0000000000000000     
  0.10312499999999999       0.94687500000000002        0.0000000000000000     
  0.11406250000000000       0.94843750000000004        0.0000000000000000     
  0.11562500000000001       0.95937499999999998        0.0000000000000000     
  0.10468750000000000       0.95781249999999996        0.0000000000000000     
   1.5625000000000000E-002  0.90625000000000000        0.0000000000000000     
   3.1250000000000000E-002  0.90625000000000000        0.0000000000000000     
   3.1250000000000000E-002  0.92187500000000000        0.0000000000000000     
   9.3749999999999997E-003  0.91562500000000002        0.0000000000000000     
   2.0312500000000001E-002  0.91718750000000004        0.0000000000000000     
   2.1874999999999999E-002  0.92812499999999998        0.0000000000000000     
   1.0937499999999999E-002  0.92656249999999996        0.0000000000000000     
   4.6875000000000000E-002  0.90625000000000000        0.0000000000000000     
   6.2500000000000000E-002  0.90625000000000000        0.0000000000000000     
   6.2500000000000000E-002  0.92187500000000000        0.0000000000000000     
   4.0625000000000001E-002  0.91562500000000002        0.0000000000000000     
   5.1562499999999997E-002  0.91718750000000004        0.0000000000000000     
   5.3124999999999999E-002  0.92812499999999998        0.0000000000000000     
   4.2187500000000003E-002  0.92656249999999996        0.0000000000000000     
   1.5625000000000000E-002  0.87500000000000000        0.0000000000000000     
   3.1250000000000000E-002  0.87500000000000000        0.0000000000000000     
   3.1250000000000000E-002  0.89062500000000000        0.0000000000000000     
   9.3749999999999997E-003  0.88437500000000002        0.0000000000000000     
   2.0312500000000001E-002  0.88593750000000004        0.0000000000000000     
   2.1874999999999999E-002  0.89687499999999998        0.0000000000000000     
   1.0937499999999999E-002  0.89531249999999996        0.0000000000000000     
   4.6875000000000000E-002  0.87500000000000000        0.0000000000000000     
   6.2500000000000000E-002  0.87500000000000000        0.0000000000000000     
   6.2500000000000000E-002  0.89062500000000000        0.0000000000000000     
   4.0625000000000001E-002  0.88437500000000002        0.0000000000000000     
   5.1562499999999997E-002  0.88593750000000004        0.0000000000000000     
   5.3124999999999999E-002  0.89687499999999998        0.0000000000000000     
   4.2187500000000003E-002  0.89531249999999996        0.0000000000000000     
   7.8125000000000000E-002  0.90625000000000000        0.0000000000000000     
   9.3750000000000000E-002  0.90625000000000000        0.0000000000000000     
   9.3750000000000000E-002  0.92187500000000000        0.0000000000000000     
   7.1874999999999994E-002  0.91562500000000002        0.0000000000000000     
   8.2812499999999997E-002  0.91718750000000004        0.0000000000000000     
   8.4375000000000006E-002  0.92812499999999998        0.0000000000000000     
   7.3437500000000003E-002  0.92656249999999996        0.0000000000000000     
  0.10937500000000000       0.90625000000000000        0.0000000000000000     
  0.12500000000000000       0.90625000000000000        0.0000000000000000     
  0.12500000000000000       0.92187500000000000        0.0000000000000000     
  0.10312499999999999       0.91562500000000002        0.0000000000000000     
  0.11406250000000000       0.91718750000000004        0.0000000000000000     
  0.11562500000000001       0.92812499999999998        0.0000000000000000     
  0.10468750000000000       0.92656249999999996        0.0000000000000000     
   7.8125000000000000E-002  0.87500000000000000        0.0000000000000000     
   9.3750000000000000E-002  0.87500000000000000        0.0000000000000000     
   9.3750000000000000E-002  0.89062500000000000        0.0000000000000000     
   7.1874999999999994E-002  0.88437500000000002        0.0000000000000000     
   8.2812499999999997E-002  0.88593750000000004        0.0000000000000000     
   8.4375000000000006E-002  0.89687499999999998        0.0000000000000000     
   7.3437500000000003E-002  0.89531249999999996        0.0000000000000000     
  0.10937500000000000       0.87500000000000000        0.0000000000000000     
  0.12500000000000000       0.87500000000000000        0.0000000000000000     
  0.12500000000000000       0.89062500000000000        0.0000000000000000     
  0.10312499999999999       0.88437500000000002        0.0000000000000000     
  0.11406250000000000       0.88593750000000004        0.0000000000000000     
  0.11562500000000001       0.89687499999999998        0.0000000000000000     
  0.10468750000000000       0.89531249999999996        0.0000000000000000     
  0.14062500000000000       0.96875000000000000        0.0000000000000000     
  0.15625000000000000       0.96875000000000000        0.0000000000000000     
  0.15625000000000000       0.98437500000000000        0.0000000000000000     
  0.13437499999999999       0.97812500000000002        0.0000000000000000     
  0.14531250000000001       0.97968750000000004        0.0000000000000000     
  0.14687500000000001       0.99062499999999998        0.0000000000000000     
  0.13593749999999999       0.98906249999999996        0.0000000000000000     
  0.17187500000000000       0.96875000000000000        0.0000000000000000     
  0.18750000000000000       0.96875000000000000        0.0000000000000000     
  0.18750000000000000       0.98437500000000000        0.0000000000000000     
  0.16562499999999999       0.97812500000000002        0.0000000000000000     
  0.17656250000000001       0.97968750000000004        0.0000000000000000     
  0.17812500000000001       0.99062499999999998        0.0000000000000000     
[...]
 CELL_DATA       14336
 SCALARS Nutrients float
 LOOKUP_TABLE default
    0.11839120284989155933E-04
    0.11748022494572751473E-04
    0.12411001300317792685E-04
    0.12411001299578700534E-04
    0.11748022492967988262E-04
    0.11839120281163536709E-04
    0.11310029344369146976E-04
    0.11001031330776562495E-04
    0.10667452689414301333E-04
    0.10667452689836020403E-04
    0.11001031332572245238E-04
    0.11310029349257104758E-04
    0.11261592789126975201E-04
    0.11261592788623270118E-04
    0.14005898474346936428E-04
    0.14582838076178869649E-04
    0.16155519461095256399E-04
    0.16586006622666665523E-04
    0.15408862008824884105E-04
    0.15978848916506960444E-04
    0.14740171808205206581E-04
    0.13714262647425141776E-04
    0.12634153522820635855E-04
    0.12238469073925164698E-04
    0.12920332319041495103E-04
    0.12833799565598916521E-04
    0.13890475590826355180E-04
    0.14126880870570043502E-04
    0.15978848926126527278E-04
    0.15408862015271828050E-04
    0.16586006627152579117E-04
    0.16155519464588423661E-04
    0.14582838079407129051E-04
    0.14005898475732055526E-04
    0.12833799567050358298E-04
    0.12920332322504477499E-04
    0.12238469078077945316E-04
    0.12634153528083880055E-04
    0.13714262654591142154E-04
    0.14740171819349827439E-04
    0.14126880876161355421E-04
    0.13890475595372814689E-04
    0.18888023106423583393E-04
    0.19141263966541481015E-04
    0.21596320400650839477E-04
    0.21596320400796654505E-04
    0.19141263965507379147E-04
    0.18888023103262087127E-04
    0.16710707401357320851E-04
    0.16092751299383516135E-04
    0.14473699194757528937E-04
    0.14473699195422126234E-04
    0.16092751300610558555E-04
    0.16710707404267427902E-04
    0.17427111941361021102E-04
    0.17427111941039267166E-04
    0.19803294838062476200E-04
    0.21360204742681818861E-04
    0.24416561653302884429E-04
    0.25548835901339296594E-04
    0.23523857641589777359E-04
    0.24886767187523025036E-04
    0.22475665115764114770E-04
    0.20239053052667087853E-04
    0.17928227704233776278E-04
    0.16940706692721411601E-04
    0.18186325611048552453E-04
    0.17592009102806321647E-04
    0.20287826008897773050E-04
    0.20906209799960722047E-04
    0.31374509384865866088E-04
    0.34504342256787391772E-04
    0.39895076070595579423E-04
    0.42075552673263998701E-04
    0.38664833568436912463E-04
    0.41176642810882505680E-04
    0.36922399142689897719E-04
    0.32878262477599611339E-04
    0.28670348102535391703E-04
    0.26758615825683481086E-04
    0.28927136274987075938E-04
    0.27505660889611037532E-04
    0.32805144252231689314E-04
    0.33993033982041706499E-04
    0.26496874370386802188E-04
    0.27715120727029147568E-04
    0.32019593559216222160E-04
    0.32588366220808785440E-04
    0.28758096073981572740E-04
    0.28969089883329891388E-04
    0.25198093469660601962E-04
    0.23539193864291759286E-04
    0.20453464633515302504E-04
    0.19992351550500205156E-04
    0.22577427167630922662E-04
    0.22869758639041155184E-04
    0.25231507851542289505E-04
    0.25523638104516057398E-04
    0.40891456797427078705E-04
    0.43684268539547190728E-04
    0.51086867483453734671E-04
    0.52600715923326601140E-04
    0.46467942849597082989E-04
    0.47418931943007803348E-04
    0.41062172095545632956E-04
    0.37732664648334847467E-04
    0.32299309468537849095E-04
    0.31078722223612860627E-04
    0.35175058867737989848E-04
    0.34957212522443359881E-04
    0.39956952808759078270E-04
    0.40737908808224483029E-04
    0.24886767206578809953E-04
    0.23523857657109084525E-04
    0.25548835916244738654E-04
    0.24416561665673949702E-04
    0.21360204752801240167E-04
    0.19803294844504436203E-04
    0.17592009107214196401E-04
    0.18186325619875296449E-04
    0.16940706702910916413E-04
    0.17928227716122964507E-04
    0.20239053067757562567E-04
    0.22475665136865128501E-04
    0.20906209813111145722E-04
    0.20287826020367317440E-04
    0.28969089895744402674E-04
    0.28758096084795649154E-04
    0.32588366233227521727E-04
    0.32019593570356487573E-04
    0.27715120733634950848E-04
    0.26496874372259097367E-04
    0.22869758638293316571E-04
    0.22577427171117571159E-04
    0.19992351554656372212E-04
    0.20453464639509880032E-04
    0.23539193872667783498E-04
    0.25198093481073422249E-04
    0.25523638112448341378E-04
    0.25231507858160652589E-04
    0.41176642865982574881E-04
    0.38664833615331597322E-04
    0.42075552722693338175E-04
    0.39895076113879437366E-04
    0.34504342290365207593E-04
    0.31374509408666400928E-04
    0.27505660906471804329E-04
    0.28927136299878772173E-04
    0.26758615849024124469E-04
    0.28670348131574723677E-04
    0.32878262517267871877E-04
    0.36922399196769631032E-04
    0.33993034019954955429E-04
    0.32805144286072925605E-04
    0.47418931993824765749E-04
    0.46467942896370581149E-04
    0.52600715978896631325E-04
    0.51086867534756162147E-04
    0.43684268575457138974E-04
    0.40891456821144421356E-04
    0.34957212536733578195E-04
    0.35175058889594414666E-04
    0.31078722241420102040E-04
    0.32299309492132663349E-04
    0.37732664682010194049E-04
    0.41062172138147514180E-04
    0.40737908844127655012E-04
    0.39956952841353292327E-04
    0.39598334458311980279E-04
    0.40555684842154293181E-04
    0.46953395671271093057E-04
    0.46953395668765034274E-04
    0.40555684838114698188E-04
    0.39598334449196821564E-04
    0.33773286890151558277E-04
    0.32427771368245814142E-04
    0.27959304889426315457E-04
    0.27959304890743980239E-04
    0.32427771372814323612E-04
    0.33773286902085486786E-04
    0.36122266783427886354E-04
    0.36122266782171851690E-04
    0.59368837385128690807E-04
    0.62173850941300634132E-04
    0.72937630324464074682E-04
    0.73921597248349218815E-04
    0.63887621057203528604E-04
    0.63322613974505027380E-04
    0.53682144392609440020E-04
    0.50589911594885257260E-04
    0.42966346446534432789E-04
    0.42296627289780174355E-04
    0.49115284283932711536E-04
    0.50156517949624086848E-04
    0.55637795781968488315E-04
    0.56104491959539576687E-04
    0.63322614035351483292E-04
    0.63887621109387791917E-04
    0.73921597308073322191E-04
    0.72937630373471734049E-04
    0.62173850974561585092E-04
    0.59368837403163824741E-04
    0.50156517955031890772E-04
    0.49115284302271029055E-04
    0.42296627305371557249E-04
    0.42966346470313581741E-04
    0.50589911633178702010E-04
    0.53682144447663017277E-04
    0.56104491997603672020E-04
    0.55637795814383470200E-04
    0.92306591015758787297E-04
    0.95000965079380483673E-04
    0.11126759801467952778E-03
    0.11126759800412960367E-03
    0.95000965059728668775E-04
    0.92306590970878292578E-04
    0.77544081210823237612E-04
    0.74380740375469038225E-04
    0.63123151707061394742E-04
    0.63123151716265647770E-04
    0.74380740395366668860E-04
    0.77544081258770343966E-04
    0.83805563417853280641E-04
    0.83805563412157099267E-04
    0.52110051858979344419E-04
    0.57725640732887645637E-04
    0.67051862274089660309E-04
    0.70947678036554430079E-04
    0.65130383394244433784E-04
    0.69556570218709187770E-04
    0.62224784299944006370E-04
    0.55168974183456123738E-04
    0.47855058551866746326E-04
    0.44476839075457565002E-04
    0.48167003083786997858E-04
    0.45525753141899345431E-04
    0.54918071511348700523E-04
    0.57026640994911797827E-04
    0.88357818095391243377E-04
    0.98159317043959763509E-04
    0.11436272399798341878E-03
    0.12107273816007135228E-03
    0.11093511078574720154E-03
    0.11845523055156808809E-03
    0.10585329903385464888E-03
    0.93728030323203361039E-04
    0.81101485444408610674E-04
    0.75262988201980882716E-04
    0.81611261449382138211E-04
    0.76963563578472072788E-04
    0.93304380065853233044E-04
    0.96950288360983310435E-04
    0.66766349846433267019E-04
    0.72224427880789073410E-04
    0.85055102313255610087E-04
    0.88161879779265767544E-04
    0.77860413867561576460E-04
    0.79910119611399031388E-04
    0.68964371027643286754E-04
    0.62941062216753483746E-04
    0.53551691840842972404E-04
    0.51158803860851155153E-04
    0.57858704945036197251E-04
    0.56830852185581300551E-04
    0.66252715369312292011E-04
    0.67821311476408088119E-04
    0.11273596344926836048E-03
    0.12278993001947193582E-03
    0.14529012522060345803E-03
    0.15100311640453952184E-03
    0.13307388444765909071E-03
    0.13673163528794070494E-03
    0.11769220734529479391E-03
    0.10711436257713973061E-03
    0.90797596382638712980E-04
    0.86474622993061787111E-04
    0.97901406078415573252E-04
    0.95650655355101411501E-04
    0.11261853958705477744E-03
    0.11547183341769154136E-03
    0.15119151048192860237E-03
    0.16783086433083932009E-03
    0.19566644764368274845E-03
    0.20667960914148749947E-03
    0.18903147083176294113E-03
    0.20129785631294177281E-03
    0.18001562731296007181E-03
    0.15960923720499841012E-03
    0.13816398151318676473E-03
    0.12823398595067616776E-03
    0.13923276538951317332E-03
    0.13143757955459261242E-03
    0.15920761354977315733E-03
    0.16529612794542958504E-03
    0.25833675498018737748E-03
    0.28537581520134239514E-03
    0.33242383977096661742E-03
    0.34939392477839202773E-03
    0.31884151032853674541E-03
    0.33775527153826243694E-03
    0.30283845916250000342E-03
    0.26957297514303797323E-03
    0.23398912834068780740E-03
    0.21764084944445787149E-03
    0.23655196696892682420E-03
    0.22419814319157439883E-03
    0.26989907970929665707E-03
    0.27963596934442512369E-03
    0.19432956262200275417E-03
    0.21209054422616612358E-03
    0.25191486867806828047E-03
    0.26160531904440942168E-03
    0.22951878376772596622E-03
    0.23499714264997389156E-03
    0.20175594797021661597E-03
    0.18389214692565269537E-03
    0.15553747935211171345E-03
    0.14815020438778796750E-03
    0.16819887830446788321E-03
    0.16422923459436712819E-03
    0.19398588320594585847E-03
    0.19883721868769403240E-03
    0.33841972144794908381E-03
    0.36833967538101231769E-03
    0.43857191520775068916E-03
    0.45336512339577380356E-03
    0.39532785274733938047E-03
    0.40157652861831438307E-03
    0.34389747236501815768E-03
    0.31520230317199103348E-03
    0.26643285144217440132E-03
    0.25457696020755415760E-03
    0.29041182717320717602E-03
    0.28474569912857858236E-03
    0.33504926714459585656E-03
    0.34263279549250221477E-03
    0.94664680023965970990E-04
    0.10071681180459722115E-03
    0.11911422401917522444E-03
    0.12188223371247786076E-03
    0.10543803629314682155E-03
    0.10557708242734489313E-03
    0.89166667843404025348E-04
    0.83035713173135679874E-04
    0.69933258725128705983E-04
    0.68143519939313257653E-04
    0.79068758424692483383E-04
    0.79622935594231392217E-04
    0.90495379063525665337E-04
    0.91764769062327585739E-04
    0.15753033692602838199E-03
    0.16960136932411769327E-03
    0.20196862167249320292E-03
    0.20806900574727580006E-03
    0.17980994310246614350E-03
    0.18101532576524277142E-03
    0.15228373629685003376E-03
    0.14087863646053308238E-03
    0.11791591339459112108E-03
    0.11416863892984087413E-03
    0.13246924576355983429E-03
    0.13206054801673781669E-03
    0.15276443172675626303E-03
    0.15548919650430458321E-03
    0.14252960776657392868E-03
    0.14928419201333696848E-03
    0.17623228568796253375E-03
    0.17839389821196647234E-03
    0.15282873930193101569E-03
    0.15065683541089206388E-03
    0.12615577902675713905E-03
    0.11920455943955798504E-03
    0.10021134179756550420E-03
    0.98964190450118522048E-04
    0.11635440235083262792E-03
    0.11930380988965160556E-03
    0.13257738442053608159E-03
    0.13351263479666352252E-03
    0.23040474036116489706E-03
    0.24533881323045980813E-03
    0.29174861325668126214E-03
    0.29872191209997503089E-03
    0.25648593593637607083E-03
    0.25582450912959463956E-03
    0.21341238284588916890E-03
    0.19921179947608030902E-03
    0.16621716475748740888E-03
    0.16253009992950954977E-03
    0.19056370499237809939E-03
    0.19256730104003200155E-03
    0.21916395958984207773E-03
    0.22206124354439476186E-03
    0.27127414291333118521E-03
    0.29430267100298546350E-03
    0.35262124203133996762E-03
    0.36436793120469835585E-03
    0.31371885042033077502E-03
    0.31588507662806149636E-03
    0.26453040527972418536E-03
    0.24419130728087212745E-03
    0.20338687750751452150E-03
    0.19637993902362312548E-03
    0.22835648396771508610E-03
    0.22646522384016465963E-03
    0.26481236883564660683E-03
    0.26997299421042806515E-03
    0.47903526456513113863E-03
    0.52100135644703214968E-03
    0.62745355694543143536E-03
    0.64757471432953231036E-03
    0.55409422389158223283E-03
    0.55495033745662581195E-03
    0.46235116251794523314E-03
    0.42800584432852031369E-03
    0.35513664860384070322E-03
    0.34327604003633237434E-03
    0.40113330801484829670E-03
    0.39780788230275073835E-03
    0.46681995926862502764E-03
    0.47560078536301123725E-03
    0.38951770381401409947E-03
    0.42096222369809779135E-03
    0.50464626441753634815E-03
    0.52116893078039928325E-03
    0.44707642940918981963E-03
    0.44890726892996712536E-03
    0.37259399122862684990E-03
    0.34506235323522057136E-03
    0.28581995798119977457E-03
    0.27747098687442862388E-03
    0.32515222682921469249E-03
    0.32458683135733141850E-03
    0.37729123904785836141E-03
    0.38403093561107260606E-03
    0.68670846063316741837E-03
    0.74956480821853504765E-03
    0.90543383808900995083E-03
    0.93890192542293816544E-03
    0.80195216546649660590E-03
    0.80552857443815992482E-03
    0.66461739009012800201E-03
    0.61385705391519076752E-03
    0.50520366983670050506E-03
    0.48884654613296700358E-03
    0.57444827284911718739E-03
    0.56949867139353363855E-03
    0.67128034677463354132E-03
    0.68472824719640983365E-03
    0.69556570357157617465E-04
    0.65130383515992965179E-04
    0.70947678167637603366E-04
    0.67051862391852786491E-04
    0.57725640827300072461E-04
    0.52110051932591440655E-04
    0.45525753198071284005E-04
    0.48167003155258675717E-04
    0.44476839140823849707E-04
    0.47855058629674765956E-04
    0.55168974285167121760E-04
    0.62224784431351152819E-04
    0.57026641095476895797E-04
    0.54918071603467355350E-04
    0.79910119752940825407E-04
    0.77860414002273872574E-04
    0.88161879938251005713E-04
    0.85055102463689637301E-04
    0.72224427993922791840E-04
    0.66766349934886234300E-04
    0.56830852248495011521E-04
    0.57858705021342115757E-04
    0.51158803923902918941E-04
    0.53551691915897572526E-04
    0.62941062316474997887E-04
    0.68964371146763549453E-04
    0.67821311584653518425E-04
    0.66252715470948588504E-04
    0.11845523086094001449E-03
    0.11093511106329788905E-03
    0.12107273846151532135E-03
    0.11436272427279179308E-03
    0.98159317269243246242E-04
    0.88357818280012577440E-04
    0.76963563724673645771E-04
    0.81611261624087006838E-04
    0.75262988361705140191E-04
    0.81101485628889215295E-04
    0.93728030556087182316E-04
    0.10585329932401298136E-03
    0.96950288594475098080E-04
    0.93304380282983854253E-04
    0.13673163562022484546E-03
    0.13307388477021552540E-03
    0.15100311678285997081E-03
    0.14529012558445772267E-03
    0.12278993030190676439E-03
    0.11273596368466114756E-03
    0.95650655532491659174E-04
    0.97901406277890504182E-04
    0.86474623160390652176E-04
    0.90797596571931101709E-04
    0.10711436281996742053E-03
    0.11769220762678150123E-03
    0.11547183368289986108E-03
    0.11261853984021906114E-03
    0.10557708261351724617E-03
    0.10543803646675225497E-03
    0.12188223391536726959E-03
    0.11911422420365456868E-03
    0.10071681194367016485E-03
    0.94664680131744760681E-04
    0.79622935665709575290E-04
    0.79068758516927324024E-04
    0.68143520016025562239E-04
    0.69933258816858877619E-04
    0.83035713301529272832E-04
    0.89166668004285234961E-04
    0.91764769199427403457E-04
    0.90495379190445773333E-04
    0.15065683562310628902E-03
    0.15282873947548256425E-03
    0.17839389840127231873E-03
    0.17623228583699991883E-03
    0.14928419211873890241E-03
    0.14252960781981397452E-03
    0.11930380991342279240E-03
    0.11635440241911909598E-03
    0.98964190517212842057E-04
    0.10021134189701077718E-03
    0.11920455957712371153E-03
    0.12615577921679221982E-03
    0.13351263492684646919E-03
    0.13257738453036849928E-03
    0.18101532622136201752E-03
    0.17980994354052827347E-03
    0.20806900626496797175E-03
    0.20196862215437195423E-03
    0.16960136970291798302E-03
    0.15753033724384495583E-03
    0.13206054824929731244E-03
    0.13246924602791987423E-03
    0.11416863914971708827E-03
    0.11791591364121694740E-03
    0.14087863678823327033E-03
    0.15228373668497673901E-03
    0.15548919686214884416E-03
    0.15276443206636749605E-03
    0.25582450971235108465E-03
    0.25648593646541989347E-03
    0.29872191269734581654E-03
    0.29174861379186427116E-03
    0.24533881364226581409E-03
    0.23040474067740100228E-03
    0.19256730126356180082E-03
    0.19056370528547375239E-03
    0.16253010018874868600E-03
    0.16621716507306366867E-03
    0.19921179988606490955E-03
    0.21341238335371572423E-03
    0.22206124396831482975E-03
    0.21916395997974367615E-03
    0.20129785695397909911E-03
    0.18903147141569379402E-03
    0.20667960977653544903E-03
    0.19566644823248210278E-03
    0.16783086481775755152E-03
    0.15119151089355091738E-03
    0.13143757988650942524E-03
    0.13923276577297881212E-03
    0.12823398630148346872E-03
    0.13816398191096140565E-03
    0.15960923769627483612E-03
    0.18001562791100992039E-03
    0.16529612844184987273E-03
    0.15920761401622945800E-03
    0.23499714336403329127E-03
    0.22951878446659696744E-03
    0.26160531986715596922E-03
    0.25191486947012095609E-03
    0.21209054485541622070E-03
    0.19432956316249927540E-03
    0.16422923501377667110E-03
    0.16819887875901742141E-03
    0.14815020477219285064E-03
    0.15553747977462340272E-03
    0.18389214745802374474E-03
    0.20175594857443140072E-03
    0.19883721927146938359E-03
    0.19398588376796268152E-03
    0.33775527278762714368E-03
    0.31884151149187358763E-03
    0.34939392606303970893E-03
    0.33242384096237968805E-03
    0.28537581619345509139E-03
    0.25833675583268367370E-03
    0.22419814388901514765E-03
    0.23655196775524190192E-03
    0.21764085016363432599E-03
    0.23398912914534997112E-03
    0.26957297612035255666E-03
    0.30283846032848191947E-03
    0.27963597034072668925E-03
    0.26989908065252078001E-03
    0.40157653004876091036E-03
    0.39532785417723431990E-03
    0.45336512509082014209E-03
    0.43857191684468200231E-03
    0.36833967669133574948E-03
    0.33841972259853099220E-03
    0.28474570002977290335E-03
    0.29041182813226303593E-03
    0.25457696101849493610E-03
    0.26643285232261579168E-03
    0.31520230426567319871E-03
    0.34389747358859657942E-03
    0.34263279669712005471E-03
    0.33504926831212053810E-03
    0.31588507762841011757E-03
    0.31371885140227273332E-03
    0.36436793236335995568E-03
    0.35262124313482304944E-03
    0.29430267188163298717E-03
    0.27127414368057352042E-03
    0.22646522441870477801E-03
    0.22835648459636328838E-03
    0.19637993954608971695E-03
    0.20338687807849387471E-03
    0.24419130801848153677E-03
    0.26453040613027048976E-03
    0.26997299502451720414E-03
    0.26481236961875309665E-03
    0.44890727029023384234E-03
    0.44707643068877536089E-03
    0.52116893225609547610E-03
    0.50464626577659244498E-03
    0.42096222478033023954E-03
    0.38951770471424180002E-03
    0.32458683204033005228E-03
    0.32515222761652598938E-03
    0.27747098755827049590E-03
    0.28581995875709360943E-03
    0.34506235422367056162E-03
    0.37259399239308974450E-03