# vtk DataFile Version 3.0
LAPLACIEN  2D
ASCII
DATASET UNSTRUCTURED_GRID
FIELD FieldData 1
TIME 1 1 double
14.5000
 POINTS        7297  float
   1.5625000000000000E-002  0.96875000000000000        0.0000000000000000     
   3.1250000000000000E-002  0.96875000000000000        0.0000000000000000     
   3.1250000000000000E-002  0.98437500000000000        0.0000000000000000     
   9.3749999999999997E-003  0.97812500000000002        0.0000000000000000     
   2.0312500000000001E-002  0.97968750000000004        0.0000000000000000     
   2.1874999999999999E-002  0.99062499999999998        0.0000000000000000     
   1.0937499999999999E-002  0.98906249999999996        0.0000000000000000     
   4.6875000000000000E-002  0.96875000000000000        0.0000000000000000     
   6.2500000000000000E-002  0.96875000000000000        0.0000000000000000     
   6.2500000000000000E-002  0.98437500000000000        0.0000000000000000     
   4.0625000000000001E-002  0.97812500000000002        0.0000000000000000     
   5.1562499999999997E-002  0.97968750000000004        0.0000000000000000     
   5.3124999999999999E-002  0.99062499999999998        0.0000000000000000     
   4.2187500000000003E-002  0.98906249999999996        0.0000000000000000     
   1.5625000000000000E-002  0.93750000000000000        0.0000000000000000     
   3.1250000000000000E-002  0.93750000000000000        0.0000000000000000     
   3.1250000000000000E-002  0.95312500000000000        0.0000000000000000     
   9.3749999999999997E-003  0.94687500000000002        0.0000000000000000     
   2.0312500000000001E-002  0.94843750000000004        0.0000000000000000     
   2.1874999999999999E-002  0.95937499999999998        0.0000000000000000     
   1.0937499999999999E-002  0.95781249999999996        0.0000000000000000     
   4.6875000000000000E-002  0.93750000000000000        0.0000000000000000     
   6.2500000000000000E-002  0.93750000000000000        0.0000000000000000     
   6.2500000000000000E-002  0.95312500000000000        0.0000000000000000     
   4.0625000000000001E-002  0.94687500000000002        0.0000000000000000     
   5.1562499999999997E-002  0.94843750000000004        0.0000000000000000     
   5.3124999999999999E-002  0.95937499999999998        0.0000000000000000     
   4.2187500000000003E-002  0.95781249999999996        0.0000000000000000     
   7.8125000000000000E-002  0.96875000000000000        0.0000000000000000     
   9.3750000000000000E-002  0.96875000000000000        0.0000000000000000     
   9.3750000000000000E-002  0.98437500000000000        0.0000000000000000     
   7.1874999999999994E-002  0.97812500000000002        0.0000000000000000     
   8.2812499999999997E-002  0.97968750000000004        0.0000000000000000     
   8.4375000000000006E-002  0.99062499999999998        0.0000000000000000     
   7.3437500000000003E-002  0.98906249999999996        0.0000000000000000     
  0.10937500000000000       0.96875000000000000        0.0000000000000000     
  0.12500000000000000       0.96875000000000000        0.0000000000000000     
  0.12500000000000000       0.98437500000000000        0.0000000000000000     
  0.10312499999999999       0.97812500000000002        0.0000000000000000     
  0.11406250000000000       0.97968750000000004        0.0000000000000000     
  0.11562500000000001       0.99062499999999998        0.0000000000000000     
  0.10468750000000000       0.98906249999999996        0.0000000000000000     
   7.8125000000000000E-002  0.93750000000000000        0.0000000000000000     
   9.3750000000000000E-002  0.93750000000000000        0.0000000000000000     
   9.3750000000000000E-002  0.95312500000000000        0.0000000000000000     
   7.1874999999999994E-002  0.94687500000000002        0.0000000000000000     
   8.2812499999999997E-002  0.94843750000000004        0.0000000000000000     
   8.4375000000000006E-002  0.95937499999999998        0.0000000000000000     
   7.3437500000000003E-002  0.95781249999999996        0.0000000000000000     
  0.10937500000000000       0.93750000000000000        0.0000000000000000     
  0.12500000000000000       0.93750000000000000        0.0000000000000000     
  0.12500000000000000       0.95312500000000000        0.0000000000000000     
  0.10312499999999999       0.94687500000000002        0.0000000000000000     
  0.11406250000000000       0.94843750000000004        0.0000000000000000     
  0.11562500000000001       0.95937499999999998        0.0000000000000000     
  0.10468750000000000       0.95781249999999996        0.0000000000000000     
   1.5625000000000000E-002  0.90625000000000000        0.0000000000000000     
   3.1250000000000000E-002  0.90625000000000000        0.0000000000000000     
   3.1250000000000000E-002  0.92187500000000000        0.0000000000000000     
   9.3749999999999997E-003  0.91562500000000002        0.0000000000000000     
   2.0312500000000001E-002  0.91718750000000004        0.0000000000000000     
   2.1874999999999999E-002  0.92812499999999998        0.0000000000000000     
   1.0937499999999999E-002  0.92656249999999996        0.0000000000000000     
   4.6875000000000000E-002  0.90625000000000000        0.0000000000000000     
   6.2500000000000000E-002  0.90625000000000000        0.0000000000000000     
   6.2500000000000000E-002  0.92187500000000000        0.0000000000000000     
   4.0625000000000001E-002  0.91562500000000002        0.0000000000000000     
   5.1562499999999997E-002  0.91718750000000004        0.0000000000000000     
   5.3124999999999999E-002  0.92812499999999998        0.0000000000000000     
   4.2187500000000003E-002  0.92656249999999996        0.0000000000000000     
   1.5625000000000000E-002  0.87500000000000000        0.0000000000000000     
   3.1250000000000000E-002  0.87500000000000000        0.0000000000000000     
   3.1250000000000000E-002  0.89062500000000000        0.0000000000000000     
   9.3749999999999997E-003  0.88437500000000002        0.0000000000000000     
   2.0312500000000001E-002  0.88593750000000004        0.0000000000000000     
   2.1874999999999999E-002  0.89687499999999998        0.0000000000000000     
   1.0937499999999999E-002  0.89531249999999996        0.0000000000000000     
   4.6875000000000000E-002  0.87500000000000000        0.0000000000000000     
   6.2500000000000000E-002  0.87500000000000000        0.0000000000000000     
   6.2500000000000000E-002  0.89062500000000000        0.0000000000000000     
   4.0625000000000001E-002  0.88437500000000002        0.0000000000000000     
   5.1562499999999997E-002  0.88593750000000004        0.0000000000000000     
   5.3124999999999999E-002  0.89687499999999998        0.0000000000000000     
   4.2187500000000003E-002  0.89531249999999996        0.0000000000000000     
   7.8125000000000000E-002  0.90625000000000000        0.0000000000000000     
   9.3750000000000000E-002  0.90625000000000000        0.0000000000000000     
   9.3750000000000000E-002  0.92187500000000000        0.0000000000000000     
   7.1874999999999994E-002  0.91562500000000002        0.0000000000000000     
   8.2812499999999997E-002  0.91718750000000004        0.0000000000000000     
   8.4375000000000006E-002  0.92812499999999998        0.0000000000000000     
   7.3437500000000003E-002  0.92656249999999996        0.0000000000000000     
  0.10937500000000000       0.90625000000000000        0.0000000000000000     
  0.12500000000000000       0.90625000000000000        0.0000000000000000     
  0.12500000000000000       0.92187500000000000        0.0000000000000000     
  0.10312499999999999       0.91562500000000002        0.0000000000000000     
  0.11406250000000000       0.91718750000000004        0.0000000000000000     
  0.11562500000000001       0.92812499999999998        0.0000000000000000     
  0.10468750000000000       0.92656249999999996        0.0000000000000000     
   7.8125000000000000E-002  0.87500000000000000        0.0000000000000000     
   9.3750000000000000E-002  0.87500000000000000        0.0000000000000000     
   9.3750000000000000E-002  0.89062500000000000        0.0000000000000000     
   7.1874999999999994E-002  0.88437500000000002        0.0000000000000000     
   8.2812499999999997E-002  0.88593750000000004        0.0000000000000000     
   8.4375000000000006E-002  0.89687499999999998        0.0000000000000000     
   7.3437500000000003E-002  0.89531249999999996        0.0000000000000000     
  0.10937500000000000       0.87500000000000000        0.0000000000000000     
  0.12500000000000000       0.87500000000000000        0.0000000000000000     
  0.12500000000000000       0.89062500000000000        0.0000000000000000     
  0.10312499999999999       0.88437500000000002        0.0000000000000000     
  0.11406250000000000       0.88593750000000004        0.0000000000000000     
  0.11562500000000001       0.89687499999999998        0.0000000000000000     
  0.10468750000000000       0.89531249999999996        0.0000000000000000     
  0.14062500000000000       0.96875000000000000        0.0000000000000000     
  0.15625000000000000       0.96875000000000000        0.0000000000000000     
  0.15625000000000000       0.98437500000000000        0.0000000000000000     
  0.13437499999999999       0.97812500000000002        0.0000000000000000     
  0.14531250000000001       0.97968750000000004        0.0000000000000000     
  0.14687500000000001       0.99062499999999998        0.0000000000000000     
  0.13593749999999999       0.98906249999999996        0.0000000000000000     
  0.17187500000000000       0.96875000000000000        0.0000000000000000     
  0.18750000000000000       0.96875000000000000        0.0000000000000000     
  0.18750000000000000       0.98437500000000000        0.0000000000000000     
  0.16562499999999999       0.97812500000000002        0.0000000000000000     
  0.17656250000000001       0.97968750000000004        0.0000000000000000     
[...]
 CELL_DATA       14336
 SCALARS Nutrient float
 LOOKUP_TABLE default
    0.84369057710091607816E-02
    0.84368230993509488874E-02
    0.84374750785939939962E-02
    0.84374750784806471643E-02
    0.84368230998051445962E-02
    0.84369057706191238205E-02
    0.84363892983459008029E-02
    0.84360832267490002551E-02
    0.84357527655008583689E-02
    0.84357527628975432360E-02
    0.84360832280884756607E-02
    0.84363892977875019896E-02
    0.84363413217035717467E-02
    0.84363413212808109620E-02
    0.84390501177963352097E-02
    0.84396212976353291585E-02
    0.84411710472336014960E-02
    0.84416004881862939657E-02
    0.84404385204580757024E-02
    0.84409948418129043812E-02
    0.84397772061484549466E-02
    0.84387640824883109608E-02
    0.84376938554311196189E-02
    0.84373120158003581809E-02
    0.84379772727374690450E-02
    0.84378954473579952100E-02
    0.84389400485096240784E-02
    0.84391686978258790425E-02
    0.84409948418806661496E-02
    0.84404385203859424308E-02
    0.84416004882130052378E-02
    0.84411710472027928071E-02
    0.84396212977448127612E-02
    0.84390501176565893560E-02
    0.84378954476348969754E-02
    0.84379772724649908244E-02
    0.84373120161507740578E-02
    0.84376938550949995982E-02
    0.84387640826597432736E-02
    0.84397772060861367405E-02
    0.84391686979093070986E-02
    0.84389400484676368314E-02
    0.84438708173927793516E-02
    0.84441203675510272120E-02
    0.84465428950140503117E-02
    0.84465428950038588113E-02
    0.84441203675825748931E-02
    0.84438708173570908855E-02
    0.84417233171704981337E-02
    0.84411108727679672048E-02
    0.84395135595981187610E-02
    0.84395135594621546044E-02
    0.84411108728527327327E-02
    0.84417233171125947988E-02
    0.84424286827323325594E-02
    0.84424286827079770418E-02
    0.84447777386046744830E-02
    0.84463207189935263913E-02
    0.84493427201838694485E-02
    0.84504682038633767427E-02
    0.84484690994310503165E-02
    0.84498214821899734345E-02
    0.84474343869970110188E-02
    0.84452188718081074720E-02
    0.84429270780619312953E-02
    0.84419588402408016897E-02
    0.84431815240241601256E-02
    0.84425935333317225079E-02
    0.84452654730447131864E-02
    0.84458744061565380057E-02
    0.84562304969819750144E-02
    0.84593389257809521731E-02
    0.84646771764559734091E-02
    0.84668468409566273458E-02
    0.84634769951570671537E-02
    0.84659764673805770058E-02
    0.84617574384321034286E-02
    0.84577452830607285222E-02
    0.84535736300734160009E-02
    0.84516781509129269151E-02
    0.84538216410551727392E-02
    0.84524059405486490215E-02
    0.84576649140094689594E-02
    0.84588451750067673168E-02
    0.84513787104944903400E-02
    0.84525841829613795192E-02
    0.84568323203482401867E-02
    0.84573985297995632471E-02
    0.84536217549180461828E-02
    0.84538379238311856662E-02
    0.84501131368368773145E-02
    0.84484684426849240846E-02
    0.84454205782378815454E-02
    0.84449612836395172161E-02
    0.84475139945317297835E-02
    0.84477997167473929674E-02
    0.84501351366513752228E-02
    0.84504265498067700213E-02
    0.84655923369073640683E-02
    0.84683648162283287758E-02
    0.84756757655062037876E-02
    0.84771877883290398109E-02
    0.84711434294273690870E-02
    0.84721071847821335932E-02
    0.84658225321546532599E-02
    0.84625144941575750762E-02
    0.84571408742927164925E-02
    0.84559245227310182724E-02
    0.84599666321419249304E-02
    0.84597398292310180268E-02
    0.84646952654610120581E-02
    0.84654743466796734258E-02
    0.84498214822206103858E-02
    0.84484690994339195491E-02
    0.84504682038830086083E-02
    0.84493427201903833351E-02
    0.84463207190251885642E-02
    0.84447777385788774102E-02
    0.84425935333939487737E-02
    0.84431815239837896409E-02
    0.84419588403045527775E-02
    0.84429270780233545146E-02
    0.84452188718476001866E-02
    0.84474343870071487428E-02
    0.84458744061817608850E-02
    0.84452654730511767661E-02
    0.84538379238505642621E-02
    0.84536217549211860323E-02
    0.84573985298150803486E-02
    0.84568323203564228774E-02
    0.84525841829770909097E-02
    0.84513787104851766097E-02
    0.84477997167678522961E-02
    0.84475139945110536144E-02
    0.84449612836773029628E-02
    0.84454205782166710814E-02
    0.84484684427093212356E-02
    0.84501131368364020002E-02
    0.84504265498220425268E-02
    0.84501351366539616955E-02
    0.84659764674385185046E-02
    0.84634769952022306794E-02
    0.84668468410078780162E-02
    0.84646771764986666886E-02
    0.84593389258194907898E-02
    0.84562304969998808302E-02
    0.84524059405760559177E-02
    0.84538216410729692674E-02
    0.84516781509431284508E-02
    0.84535736300957280143E-02
    0.84577452831048251930E-02
    0.84617574384848945335E-02
    0.84588451750477969965E-02
    0.84576649140424130929E-02
    0.84721071848349732702E-02
    0.84711434294728136379E-02
    0.84771877883861781328E-02
    0.84756757655567466908E-02
    0.84683648162669055565E-02
    0.84655923369284270807E-02
    0.84597398292510853079E-02
    0.84599666321583406187E-02
    0.84559245227566019742E-02
    0.84571408743118071244E-02
    0.84625144941946599947E-02
    0.84658225321955320186E-02
    0.84654743467176985644E-02
    0.84646952654935277149E-02
    0.84642999575018917913E-02
    0.84652366352866766780E-02
    0.84715360770087066999E-02
    0.84715360770048087763E-02
    0.84652366352855317605E-02
    0.84642999574895214782E-02
    0.84585579671623122716E-02
    0.84572273727303148155E-02
    0.84528203859294340217E-02
    0.84528203859199745746E-02
    0.84572273727419253198E-02
    0.84585579671688747305E-02
    0.84608674857434475886E-02
    0.84608674857402105945E-02
    0.84837632329208319953E-02
    0.84865358053169831498E-02
    0.84971394332748577394E-02
    0.84981272765710363232E-02
    0.84882560343944972459E-02
    0.84877306869993122268E-02
    0.84782246437288058538E-02
    0.84751541313332727501E-02
    0.84676328819299137574E-02
    0.84669621146363244907E-02
    0.84736761759791889848E-02
    0.84746920560472595307E-02
    0.84801086737060476367E-02
    0.84805768810116075040E-02
    0.84877306870611464451E-02
    0.84882560344458016927E-02
    0.84981272766314844974E-02
    0.84971394333230188672E-02
    0.84865358053512647551E-02
    0.84837632329377767743E-02
    0.84746920560545991458E-02
    0.84736761759953999756E-02
    0.84669621146554203267E-02
    0.84676328819511502422E-02
    0.84751541313735564986E-02
    0.84782246437829396346E-02
    0.84805768810504531668E-02
    0.84801086737381209391E-02
    0.85161888823230818407E-02
    0.85188212130041292974E-02
    0.85348075514164734034E-02
    0.85348075514051855578E-02
    0.85188212129850351961E-02
    0.85161888822779217845E-02
    0.85016638751172178556E-02
    0.84985389169343547588E-02
    0.84874573416586912566E-02
    0.84874573416665911874E-02
    0.84985389169550083766E-02
    0.85016638751645133565E-02
    0.85078075429798703105E-02
    0.85078075429739566382E-02
    0.84767844416201929003E-02
    0.84823728754117571488E-02
    0.84916207067062578207E-02
    0.84955047096578195642E-02
    0.84897496988578444177E-02
    0.84941614151247367415E-02
    0.84868799005356522491E-02
    0.84798679138777637021E-02
    0.84726079138547072400E-02
    0.84692502820484204251E-02
    0.84729044604913497651E-02
    0.84702697209551210122E-02
    0.84796038329729289673E-02
    0.84817033781428435857E-02
    0.85127739748870490805E-02
    0.85225412506164006932E-02
    0.85386333556150030566E-02
    0.85453355788134340715E-02
    0.85352872806626848418E-02
    0.85427934444920004126E-02
    0.85302619469995802359E-02
    0.85181934474775292815E-02
    0.85056409512439933723E-02
    0.84998314141903653918E-02
    0.85061248269664435639E-02
    0.85014818974210228791E-02
    0.85177463468032958011E-02
    0.85213813862820945999E-02
    0.84911800907011194400E-02
    0.84966117311723356187E-02
    0.85093010990870236732E-02
    0.85124143970917044016E-02
    0.85022529625415604188E-02
    0.85043332235736814745E-02
    0.84934984336883546929E-02
    0.84874998833551918570E-02
    0.84782013061233136436E-02
    0.84758117311156434825E-02
    0.84824227285083802358E-02
    0.84813753139563342193E-02
    0.84907359987863324086E-02
    0.84923047457232947455E-02
    0.85367216584186656619E-02
    0.85467520287998630102E-02
    0.85690403436671207932E-02
    0.85747771611596711183E-02
    0.85570668693624504092E-02
    0.85607844801955136627E-02
    0.85419087352871080759E-02
    0.85313578882054205005E-02
    0.85151735037471663892E-02
    0.85108480070275570328E-02
    0.85221344787020023026E-02
    0.85198405488472964825E-02
    0.85367341170935941846E-02
    0.85395936204225014049E-02
    0.85752554375714724888E-02
    0.85918592236899401365E-02
    0.86195446971651466100E-02
    0.86305579938151105734E-02
    0.86130371962325185525E-02
    0.86252960762285054569E-02
    0.86041033206650258808E-02
    0.85837688379002390765E-02
    0.85624197844999319629E-02
    0.85525250925669021179E-02
    0.85634453342458352609E-02
    0.85556476785376388283E-02
    0.85833256412854823381E-02
    0.85894033379126429745E-02
    0.86819459497123139397E-02
    0.87089576832788759969E-02
    0.87558033150207503076E-02
    0.87727943593759911967E-02
    0.87424210454175466795E-02
    0.87613426767432448644E-02
    0.87265358419194253431E-02
    0.86933500290813977424E-02
    0.86578879812027314394E-02
    0.86415814034980081848E-02
    0.86603818821247603721E-02
    0.86480085032558055153E-02
    0.86936109741257393269E-02
    0.87033397427630342785E-02
    0.86177092880183828877E-02
    0.86354561895105787922E-02
    0.86749736056309697391E-02
    0.86847231017831288957E-02
    0.86529664728342611107E-02
    0.86585552814341347483E-02
    0.86255505796884613529E-02
    0.86077052414807019715E-02
    0.85795366319333654648E-02
    0.85721385943469102092E-02
    0.85919684968044467144E-02
    0.85879149311925608717E-02
    0.86175931317477826032E-02
    0.86224622251862229755E-02
    0.87609704592184981659E-02
    0.87909093147378169347E-02
    0.88607182153642265188E-02
    0.88756287762584949730E-02
    0.88180699816650578299E-02
    0.88245087811063271932E-02
    0.87671556078440203430E-02
    0.87384598700529884929E-02
    0.86899385156234878330E-02
    0.86780518077525566761E-02
    0.87135630038883121057E-02
    0.87077457104228206397E-02
    0.87579854331732535921E-02
    0.87656088662911094134E-02
    0.85185590750165279122E-02
    0.85245702576607022133E-02
    0.85427075709200665093E-02
    0.85454938230059701576E-02
    0.85293183098699258682E-02
    0.85295326852077059387E-02
    0.85133354465757923174E-02
    0.85072303868701480700E-02
    0.84942910911312737021E-02
    0.84924940760575263338E-02
    0.85032477363646379043E-02
    0.85037531735066493321E-02
    0.85145306748768065375E-02
    0.85158067478815612644E-02
    0.85806467289372464341E-02
    0.85926758715684590367E-02
    0.86246411761889772013E-02
    0.86307948084382093978E-02
    0.86029647482089646737E-02
    0.86043112066081697126E-02
    0.85759100422862569180E-02
    0.85645231668738750624E-02
    0.85418084221413337342E-02
    0.85380394892387821704E-02
    0.85560611320475536690E-02
    0.85555570009220056199E-02
    0.85761412769710596016E-02
    0.85788858199784077257E-02
    0.85655243817361666897E-02
    0.85721894231583443263E-02
    0.85986732854175552954E-02
    0.86008544902148806321E-02
    0.85757627995441901986E-02
    0.85737178282181830680E-02
    0.85496087582396344817E-02
    0.85427031418780479538E-02
    0.85240020287895099799E-02
    0.85227460611296771559E-02
    0.85398338017446447784E-02
    0.85427082052708797066E-02
    0.85557996609538985999E-02
    0.85567422350780568407E-02
    0.86519703190011156002E-02
    0.86667999994917317708E-02
    0.87124649801529896465E-02
    0.87195095455777586052E-02
    0.86780556747271583168E-02
    0.86776381542382728662E-02
    0.86358500932848542703E-02
    0.86216916485128587688E-02
    0.85891558822684694469E-02
    0.85854356685004067085E-02
    0.86129652730702593172E-02
    0.86148124228820083942E-02
    0.86411620886640699846E-02
    0.86440865684112664497E-02
    0.86932375324086496454E-02
    0.87162436619380237457E-02
    0.87739600972486612995E-02
    0.87858246719484649895E-02
    0.87358397386042598021E-02
    0.87382550623398610318E-02
    0.86873938396624557357E-02
    0.86670540456383216715E-02
    0.86266116236511265758E-02
    0.86195567461392723352E-02
    0.86510931744081115413E-02
    0.86490220119473174010E-02
    0.86872359142146724637E-02
    0.86924407309100209379E-02
    0.88993602750303251597E-02
    0.89413575987983811427E-02
    0.90469435057220146112E-02
    0.90672974322622904020E-02
    0.89748093772286010456E-02
    0.89760909023949026625E-02
    0.88841985072278563396E-02
    0.88498027820596084081E-02
    0.87774464787156846607E-02
    0.87654868759532902217E-02
    0.88226710936546680342E-02
    0.88190289834023053578E-02
    0.88879208922582730174E-02
    0.88967922305495956287E-02
    0.88088856555036190721E-02
    0.88402347059887542019E-02
    0.89227705184229660212E-02
    0.89394694187410073810E-02
    0.88666269289226773420E-02
    0.88689071404168887125E-02
    0.87935528600346403449E-02
    0.87660321829662896792E-02
    0.87074891549477635017E-02
    0.86990576915902256827E-02
    0.87459155362439068571E-02
    0.87450503408845019215E-02
    0.87974482611055029174E-02
    0.88042590040122263584E-02
    0.91028279034253631319E-02
    0.91656525249783297321E-02
    0.93198065238896087015E-02
    0.93536508475962967801E-02
    0.92186347931356941304E-02
    0.92229943308355048087E-02
    0.90835109995127082116E-02
    0.90326812445345391889E-02
    0.89250576945572764054E-02
    0.89085211087443737232E-02
    0.89928303371569970337E-02
    0.89873227367570727303E-02
    0.90887819127518140044E-02
    0.91023814142415226947E-02
    0.84941614152648295399E-02
    0.84897496989797694572E-02
    0.84955047097906247894E-02
    0.84916207068240403405E-02
    0.84823728755081140990E-02
    0.84767844416932559837E-02
    0.84702697210139333422E-02
    0.84729044605621785247E-02
    0.84692502821159289239E-02
    0.84726079139318521277E-02
    0.84798679139813752659E-02
    0.84868799006673108221E-02
    0.84817033782446614454E-02
    0.84796038330657279997E-02
    0.85043332237163017651E-02
    0.85022529626761888383E-02
    0.85124143972517482548E-02
    0.85093010992368846995E-02
    0.84966117312865376693E-02
    0.84911800907891514523E-02
    0.84813753140209526687E-02
    0.84824227285838736667E-02
    0.84758117311811657230E-02
    0.84782013061979726726E-02
    0.84874998834562967454E-02
    0.84934984338079153043E-02
    0.84923047458325042619E-02
    0.84907359988884295587E-02
    0.85427934448025107106E-02
    0.85352872809402718229E-02
    0.85453355791161901556E-02
    0.85386333558895039647E-02
    0.85225412508428289443E-02
    0.85127739750720451961E-02
    0.85014818975683806995E-02
    0.85061248271415586947E-02
    0.84998314143514795693E-02
    0.85056409514286893808E-02
    0.85181934477116076632E-02
    0.85302619472898324332E-02
    0.85213813865163932915E-02
    0.85177463470210851293E-02
    0.85607844805280566836E-02
    0.85570668696844549850E-02
    0.85747771615383404364E-02
    0.85690403440292651355E-02
    0.85467520290825257923E-02
    0.85367216586537189582E-02
    0.85198405490251975791E-02
    0.85221344789013706023E-02
    0.85108480071962276658E-02
    0.85151735039365183955E-02
    0.85313578884489756765E-02
    0.85419087355689572727E-02
    0.85395936206879956287E-02
    0.85367341173467337079E-02
    0.85295326853939597289E-02
    0.85293183100427771848E-02
    0.85454938232090663780E-02
    0.85427075711030659583E-02
    0.85245702577998894861E-02
    0.85185590751236037188E-02
    0.85037531735785640286E-02
    0.85032477364561584454E-02
    0.84924940761354726637E-02
    0.84942910912223328068E-02
    0.85072303869991143521E-02
    0.85133354467364762835E-02
    0.85158067480187605441E-02
    0.85145306750034031873E-02
    0.85737178284294272845E-02
    0.85757627997164482397E-02
    0.86008544904038041617E-02
    0.85986732855647968893E-02
    0.85721894232634390787E-02
    0.85655243817889560598E-02
    0.85427082052946419488E-02
    0.85398338018123232801E-02
    0.85227460611972238186E-02
    0.85240020288879798233E-02
    0.85427031420153252961E-02
    0.85496087584288650574E-02
    0.85567422352076996650E-02
    0.85557996610630612788E-02
    0.86043112070627557342E-02
    0.86029647486449822152E-02
    0.86307948089543659598E-02
    0.86246411766673219956E-02
    0.85926758719458463942E-02
    0.85806467292534431557E-02
    0.85555570011537924319E-02
    0.85560611323108708148E-02
    0.85380394894589671517E-02
    0.85418084223871353772E-02
    0.85645231672010005419E-02
    0.85759100426735391381E-02
    0.85788858203351674864E-02
    0.85761412773093497613E-02
    0.86776381548172940722E-02
    0.86780556752524811576E-02
    0.87195095461716533303E-02
    0.87124649806831766519E-02
    0.86667999999008437512E-02
    0.86519703193150328951E-02
    0.86148124231040044269E-02
    0.86129652733613667331E-02
    0.85854356687589186703E-02
    0.85891558825817466288E-02
    0.86216916489206246038E-02
    0.86358500937900265632E-02
    0.86440865688325683319E-02
    0.86411620890513591436E-02
    0.86252960768695013938E-02
    0.86130371968154914586E-02
    0.86305579944502639617E-02
    0.86195446977524979582E-02
    0.85918592241770262025E-02
    0.85752554379829367542E-02
    0.85556476788699598046E-02
    0.85634453346292958853E-02
    0.85525250929182564802E-02
    0.85624197848975097669E-02
    0.85837688383917972595E-02
    0.86041033212621888249E-02
    0.85894033384090167499E-02
    0.85833256417517204973E-02
    0.86585552821470280344E-02
    0.86529664735307629947E-02
    0.86847231026042776003E-02
    0.86749736064187961404E-02
    0.86354561901383110334E-02
    0.86177092885573163689E-02
    0.85879149316110611756E-02
    0.85919684972580283311E-02
    0.85721385947317221832E-02
    0.85795366323551773557E-02
    0.86077052420126237003E-02
    0.86255505802917773611E-02
    0.86224622257688957744E-02
    0.86175931323083879848E-02
    0.87613426779918363724E-02
    0.87424210465774278983E-02
    0.87727943606578269453E-02
    0.87558033162085813911E-02
    0.87089576842690301361E-02
    0.86819459505627829404E-02
    0.86480085039522744395E-02
    0.86603818829096221310E-02
    0.86415814042164525860E-02
    0.86578879820058268768E-02
    0.86933500300572404129E-02
    0.87265358430821792640E-02
    0.87033397437575130834E-02
    0.86936109750668788543E-02
    0.88245087825320756014E-02
    0.88180699830890593716E-02
    0.88756287779472448074E-02
    0.88607182169922731746E-02
    0.87909093160428615488E-02
    0.87609704603643333287E-02
    0.87077457113203162592E-02
    0.87135630048440961687E-02
    0.86780518085617010943E-02
    0.86899385165014313842E-02
    0.87384598711436924090E-02
    0.87671556090637391134E-02
    0.87656088674915658143E-02
    0.87579854343363648661E-02
    0.87382550633351464831E-02
    0.87358397395807148300E-02
    0.87858246731011991476E-02
    0.87739600983440472343E-02
    0.87162436628118178383E-02
    0.86932375331714249050E-02
    0.86490220125226488501E-02
    0.86510931750336216017E-02
    0.86195567466605567397E-02
    0.86266116242194133129E-02
    0.86670540463729857372E-02
    0.86873938405098109078E-02
    0.86924407317201211887E-02
    0.86872359149936535100E-02
    0.88689071417673379788E-02
    0.88666269301923318624E-02
    0.89394694202060073773E-02
    0.89227705197692224609E-02
    0.88402347070625497683E-02
    0.88088856563964101215E-02
    0.87450503415623069559E-02
    0.87459155370254570289E-02
    0.86990576922705876994E-02
    0.87074891557179876639E-02
    0.87660321839482299028E-02
    0.87935528611916558006E-02