# vtk DataFile Version 3.0
LAPLACIEN  2D
ASCII
DATASET UNSTRUCTURED_GRID
FIELD FieldData 1
TIME 1 1 double
0.4000
 POINTS        7297  float
   1.5625000000000000E-002  0.96875000000000000        0.0000000000000000     
   3.1250000000000000E-002  0.96875000000000000        0.0000000000000000     
   3.1250000000000000E-002  0.98437500000000000        0.0000000000000000     
   9.3749999999999997E-003  0.97812500000000002        0.0000000000000000     
   2.0312500000000001E-002  0.97968750000000004        0.0000000000000000     
   2.1874999999999999E-002  0.99062499999999998        0.0000000000000000     
   1.0937499999999999E-002  0.98906249999999996        0.0000000000000000     
   4.6875000000000000E-002  0.96875000000000000        0.0000000000000000     
   6.2500000000000000E-002  0.96875000000000000        0.0000000000000000     
   6.2500000000000000E-002  0.98437500000000000        0.0000000000000000     
   4.0625000000000001E-002  0.97812500000000002        0.0000000000000000     
   5.1562499999999997E-002  0.97968750000000004        0.0000000000000000     
   5.3124999999999999E-002  0.99062499999999998        0.0000000000000000     
   4.2187500000000003E-002  0.98906249999999996        0.0000000000000000     
   1.5625000000000000E-002  0.93750000000000000        0.0000000000000000     
   3.1250000000000000E-002  0.93750000000000000        0.0000000000000000     
   3.1250000000000000E-002  0.95312500000000000        0.0000000000000000     
   9.3749999999999997E-003  0.94687500000000002        0.0000000000000000     
   2.0312500000000001E-002  0.94843750000000004        0.0000000000000000     
   2.1874999999999999E-002  0.95937499999999998        0.0000000000000000     
   1.0937499999999999E-002  0.95781249999999996        0.0000000000000000     
   4.6875000000000000E-002  0.93750000000000000        0.0000000000000000     
   6.2500000000000000E-002  0.93750000000000000        0.0000000000000000     
   6.2500000000000000E-002  0.95312500000000000        0.0000000000000000     
   4.0625000000000001E-002  0.94687500000000002        0.0000000000000000     
   5.1562499999999997E-002  0.94843750000000004        0.0000000000000000     
   5.3124999999999999E-002  0.95937499999999998        0.0000000000000000     
   4.2187500000000003E-002  0.95781249999999996        0.0000000000000000     
   7.8125000000000000E-002  0.96875000000000000        0.0000000000000000     
   9.3750000000000000E-002  0.96875000000000000        0.0000000000000000     
   9.3750000000000000E-002  0.98437500000000000        0.0000000000000000     
   7.1874999999999994E-002  0.97812500000000002        0.0000000000000000     
   8.2812499999999997E-002  0.97968750000000004        0.0000000000000000     
   8.4375000000000006E-002  0.99062499999999998        0.0000000000000000     
   7.3437500000000003E-002  0.98906249999999996        0.0000000000000000     
  0.10937500000000000       0.96875000000000000        0.0000000000000000     
  0.12500000000000000       0.96875000000000000        0.0000000000000000     
  0.12500000000000000       0.98437500000000000        0.0000000000000000     
  0.10312499999999999       0.97812500000000002        0.0000000000000000     
  0.11406250000000000       0.97968750000000004        0.0000000000000000     
  0.11562500000000001       0.99062499999999998        0.0000000000000000     
  0.10468750000000000       0.98906249999999996        0.0000000000000000     
   7.8125000000000000E-002  0.93750000000000000        0.0000000000000000     
   9.3750000000000000E-002  0.93750000000000000        0.0000000000000000     
   9.3750000000000000E-002  0.95312500000000000        0.0000000000000000     
   7.1874999999999994E-002  0.94687500000000002        0.0000000000000000     
   8.2812499999999997E-002  0.94843750000000004        0.0000000000000000     
   8.4375000000000006E-002  0.95937499999999998        0.0000000000000000     
   7.3437500000000003E-002  0.95781249999999996        0.0000000000000000     
  0.10937500000000000       0.93750000000000000        0.0000000000000000     
  0.12500000000000000       0.93750000000000000        0.0000000000000000     
  0.12500000000000000       0.95312500000000000        0.0000000000000000     
  0.10312499999999999       0.94687500000000002        0.0000000000000000     
  0.11406250000000000       0.94843750000000004        0.0000000000000000     
  0.11562500000000001       0.95937499999999998        0.0000000000000000     
  0.10468750000000000       0.95781249999999996        0.0000000000000000     
   1.5625000000000000E-002  0.90625000000000000        0.0000000000000000     
   3.1250000000000000E-002  0.90625000000000000        0.0000000000000000     
   3.1250000000000000E-002  0.92187500000000000        0.0000000000000000     
   9.3749999999999997E-003  0.91562500000000002        0.0000000000000000     
   2.0312500000000001E-002  0.91718750000000004        0.0000000000000000     
   2.1874999999999999E-002  0.92812499999999998        0.0000000000000000     
   1.0937499999999999E-002  0.92656249999999996        0.0000000000000000     
   4.6875000000000000E-002  0.90625000000000000        0.0000000000000000     
   6.2500000000000000E-002  0.90625000000000000        0.0000000000000000     
   6.2500000000000000E-002  0.92187500000000000        0.0000000000000000     
   4.0625000000000001E-002  0.91562500000000002        0.0000000000000000     
   5.1562499999999997E-002  0.91718750000000004        0.0000000000000000     
   5.3124999999999999E-002  0.92812499999999998        0.0000000000000000     
   4.2187500000000003E-002  0.92656249999999996        0.0000000000000000     
   1.5625000000000000E-002  0.87500000000000000        0.0000000000000000     
   3.1250000000000000E-002  0.87500000000000000        0.0000000000000000     
   3.1250000000000000E-002  0.89062500000000000        0.0000000000000000     
   9.3749999999999997E-003  0.88437500000000002        0.0000000000000000     
   2.0312500000000001E-002  0.88593750000000004        0.0000000000000000     
   2.1874999999999999E-002  0.89687499999999998        0.0000000000000000     
   1.0937499999999999E-002  0.89531249999999996        0.0000000000000000     
   4.6875000000000000E-002  0.87500000000000000        0.0000000000000000     
   6.2500000000000000E-002  0.87500000000000000        0.0000000000000000     
   6.2500000000000000E-002  0.89062500000000000        0.0000000000000000     
   4.0625000000000001E-002  0.88437500000000002        0.0000000000000000     
   5.1562499999999997E-002  0.88593750000000004        0.0000000000000000     
   5.3124999999999999E-002  0.89687499999999998        0.0000000000000000     
   4.2187500000000003E-002  0.89531249999999996        0.0000000000000000     
   7.8125000000000000E-002  0.90625000000000000        0.0000000000000000     
   9.3750000000000000E-002  0.90625000000000000        0.0000000000000000     
   9.3750000000000000E-002  0.92187500000000000        0.0000000000000000     
   7.1874999999999994E-002  0.91562500000000002        0.0000000000000000     
   8.2812499999999997E-002  0.91718750000000004        0.0000000000000000     
   8.4375000000000006E-002  0.92812499999999998        0.0000000000000000     
   7.3437500000000003E-002  0.92656249999999996        0.0000000000000000     
  0.10937500000000000       0.90625000000000000        0.0000000000000000     
  0.12500000000000000       0.90625000000000000        0.0000000000000000     
  0.12500000000000000       0.92187500000000000        0.0000000000000000     
  0.10312499999999999       0.91562500000000002        0.0000000000000000     
  0.11406250000000000       0.91718750000000004        0.0000000000000000     
  0.11562500000000001       0.92812499999999998        0.0000000000000000     
  0.10468750000000000       0.92656249999999996        0.0000000000000000     
   7.8125000000000000E-002  0.87500000000000000        0.0000000000000000     
   9.3750000000000000E-002  0.87500000000000000        0.0000000000000000     
   9.3750000000000000E-002  0.89062500000000000        0.0000000000000000     
   7.1874999999999994E-002  0.88437500000000002        0.0000000000000000     
   8.2812499999999997E-002  0.88593750000000004        0.0000000000000000     
   8.4375000000000006E-002  0.89687499999999998        0.0000000000000000     
   7.3437500000000003E-002  0.89531249999999996        0.0000000000000000     
  0.10937500000000000       0.87500000000000000        0.0000000000000000     
  0.12500000000000000       0.87500000000000000        0.0000000000000000     
  0.12500000000000000       0.89062500000000000        0.0000000000000000     
  0.10312499999999999       0.88437500000000002        0.0000000000000000     
  0.11406250000000000       0.88593750000000004        0.0000000000000000     
  0.11562500000000001       0.89687499999999998        0.0000000000000000     
  0.10468750000000000       0.89531249999999996        0.0000000000000000     
  0.14062500000000000       0.96875000000000000        0.0000000000000000     
  0.15625000000000000       0.96875000000000000        0.0000000000000000     
  0.15625000000000000       0.98437500000000000        0.0000000000000000     
  0.13437499999999999       0.97812500000000002        0.0000000000000000     
  0.14531250000000001       0.97968750000000004        0.0000000000000000     
  0.14687500000000001       0.99062499999999998        0.0000000000000000     
  0.13593749999999999       0.98906249999999996        0.0000000000000000     
  0.17187500000000000       0.96875000000000000        0.0000000000000000     
  0.18750000000000000       0.96875000000000000        0.0000000000000000     
  0.18750000000000000       0.98437500000000000        0.0000000000000000     
  0.16562499999999999       0.97812500000000002        0.0000000000000000     
  0.17656250000000001       0.97968750000000004        0.0000000000000000     
[...]
 CELL_DATA       14336
 SCALARS Nutrient float
 LOOKUP_TABLE default
    0.13659923896156998466E-03
    0.13607528448483129568E-03
    0.13949658522696554205E-03
    0.13949658522386244701E-03
    0.13607528448312633355E-03
    0.13659923894349183500E-03
    0.13381363413263042670E-03
    0.13216647408567986071E-03
    0.13038750488852883622E-03
    0.13038750486669763943E-03
    0.13216647410589760204E-03
    0.13381363414931987600E-03
    0.13353481269028067129E-03
    0.13353481268437190498E-03
    0.14748264681303289796E-03
    0.15029999539508756838E-03
    0.15771885038750213894E-03
    0.15969679758460743292E-03
    0.15428697743746398133E-03
    0.15693491187385061087E-03
    0.15117983853559036696E-03
    0.14614876395235173426E-03
    0.14072188768131938387E-03
    0.13864863886333276470E-03
    0.14211655258228439295E-03
    0.14163610038308075117E-03
    0.14697289910383656364E-03
    0.14816005424389989010E-03
    0.15693491189583262018E-03
    0.15428697744968949924E-03
    0.15969679758882300070E-03
    0.15771885039076778299E-03
    0.15029999540212208892E-03
    0.14748264681465407836E-03
    0.14163610038959669780E-03
    0.14211655258965661536E-03
    0.13864863888015155932E-03
    0.14072188769465344429E-03
    0.14614876397415550073E-03
    0.15117983856780881687E-03
    0.14816005425819596310E-03
    0.14697289911426376962E-03
    0.16975871203641493333E-03
    0.17079993527183869712E-03
    0.18109357075071202806E-03
    0.18109357075344673831E-03
    0.17079993527241698345E-03
    0.16975871203410392929E-03
    0.16020101294708687708E-03
    0.15733644967715464265E-03
    0.14974559885205646873E-03
    0.14974559885187640985E-03
    0.15733644967924205710E-03
    0.16020101294947494078E-03
    0.16335666733287881576E-03
    0.16335666733253048871E-03
    0.17365166619422742287E-03
    0.17995888321508757366E-03
    0.19204894577178312979E-03
    0.19614225508769164491E-03
    0.18824067410926466565E-03
    0.19323268237645541264E-03
    0.18400107529151991503E-03
    0.17512700438264975277E-03
    0.16552722503366574950E-03
    0.16125367490028708734E-03
    0.16670214251413866435E-03
    0.16415309007929588191E-03
    0.17550790212166942467E-03
    0.17795949543313575479E-03
    0.21722084223038418691E-03
    0.22744116786909971740E-03
    0.24511903230645549351E-03
    0.25151222890145748115E-03
    0.24043425888596947431E-03
    0.24799336797782308046E-03
    0.23461725320972844663E-03
    0.22135731751915066305E-03
    0.20692656589249528863E-03
    0.20013298175530042870E-03
    0.20805234557104993138E-03
    0.20326908691826339358E-03
    0.22143966658404252621E-03
    0.22529815380814912935E-03
    0.20051095150598288079E-03
    0.20505816011084869303E-03
    0.22102277698066448539E-03
    0.22283835268168105661E-03
    0.20873070565412192947E-03
    0.20923337653131702444E-03
    0.19512832025181164799E-03
    0.18879227995158368849E-03
    0.17638372941695054110E-03
    0.17445888609743292531E-03
    0.18502852636239963463E-03
    0.18623056538980318304E-03
    0.19552178212501472392E-03
    0.19661062172085367640E-03
    0.25125251943351116328E-03
    0.25956592210272958019E-03
    0.28263053628823958836E-03
    0.28631278250245345085E-03
    0.26704035599958800837E-03
    0.26896871817123593111E-03
    0.24911338732459153327E-03
    0.23890577312700979015E-03
    0.22067802726758595222E-03
    0.21672770443060613210E-03
    0.23121519172945048681E-03
    0.23099908378463335375E-03
    0.24702191012956350264E-03
    0.24924506716174810346E-03
    0.19323268240603426395E-03
    0.18824067413124260920E-03
    0.19614225510536224296E-03
    0.19204894578520419744E-03
    0.17995888322719835587E-03
    0.17365166619894584362E-03
    0.16415309008021964927E-03
    0.16670214252649068155E-03
    0.16125367492211627836E-03
    0.16552722505617327160E-03
    0.17512700441105677127E-03
    0.18400107533359780134E-03
    0.17795949545357757360E-03
    0.17550790213869806662E-03
    0.20923337654053932944E-03
    0.20873070566381366690E-03
    0.22283835269533530904E-03
    0.22102277699581279551E-03
    0.20505816011790075053E-03
    0.20051095150592785753E-03
    0.18623056538225187754E-03
    0.18502852636251561715E-03
    0.17445888610021040733E-03
    0.17638372942141081331E-03
    0.18879227995906088878E-03
    0.19512832026259783330E-03
    0.19661062172771667615E-03
    0.19552178213029153589E-03
    0.24799336807936528176E-03
    0.24043425896985996977E-03
    0.25151222898797209824E-03
    0.24511903237986389526E-03
    0.22744116792461582886E-03
    0.21722084226455059576E-03
    0.20326908693748426521E-03
    0.20805234561013631416E-03
    0.20013298179287470182E-03
    0.20692656594311403177E-03
    0.22135731759223152733E-03
    0.23461725331525069989E-03
    0.22529815387538232210E-03
    0.22143966664176794354E-03
    0.26896871825521405722E-03
    0.26704035607681854804E-03
    0.28631278259572313536E-03
    0.28263053637517438800E-03
    0.25956592216067812633E-03
    0.25125251946842968318E-03
    0.23099908379907698667E-03
    0.23121519175883694644E-03
    0.21672770445164691840E-03
    0.22067802730089936501E-03
    0.23890577318050294298E-03
    0.24911338739589300494E-03
    0.24924506721910006735E-03
    0.24702191018057364277E-03
    0.24768406527128140372E-03
    0.25118438260448108269E-03
    0.27259398315500284107E-03
    0.27259398315232036226E-03
    0.25118438260019561098E-03
    0.24768406526191335485E-03
    0.22738027623393948506E-03
    0.22263856539855796080E-03
    0.20613658808678472041E-03
    0.20613658808769195368E-03
    0.22263856540558321141E-03
    0.22738027625340687717E-03
    0.23593071818380758958E-03
    0.23593071818214244478E-03
    0.31114067288858209947E-03
    0.31879588592026089763E-03
    0.34959643809681325340E-03
    0.35133522089296660706E-03
    0.32224108897888005705E-03
    0.31925793529177180210E-03
    0.29089336386909844800E-03
    0.28232888175661220850E-03
    0.25838666045954321879E-03
    0.25661696683080051622E-03
    0.27885090107264821988E-03
    0.28269945053766275820E-03
    0.29880248875695529422E-03
    0.29981753462979103281E-03
    0.31925793539246214575E-03
    0.32224108906549360758E-03
    0.35133522099222179230E-03
    0.34959643817951017780E-03
    0.31879588597673812721E-03
    0.31114067292076945988E-03
    0.28269945054336083692E-03
    0.27885090110055298172E-03
    0.25661696685246130354E-03
    0.25838666049550170541E-03
    0.28232888182027905373E-03
    0.29089336396411461958E-03
    0.29981753469297931121E-03
    0.29880248881049970271E-03
    0.40221518026843118814E-03
    0.41001270916782859080E-03
    0.45164588534384324421E-03
    0.45164588532705995721E-03
    0.41001270913621683332E-03
    0.40221518019580834507E-03
    0.36269715512591855361E-03
    0.35451123921722345767E-03
    0.32246865093848433789E-03
    0.32246865095478222758E-03
    0.35451123925141361055E-03
    0.36269715520790169350E-03
    0.38064382673347395107E-03
    0.38064382672389659697E-03
    0.28142318588263734534E-03
    0.29624608349975296547E-03
    0.32110913208883366376E-03
    0.33027075117329134177E-03
    0.31488475952000892760E-03
    0.32560190451313736522E-03
    0.30690650545204585129E-03
    0.28817041105990819907E-03
    0.26775566212378700557E-03
    0.25796396091772738363E-03
    0.26903903270357888266E-03
    0.26182503557161318150E-03
    0.28805139058211341567E-03
    0.29359075666550346053E-03
    0.37216481571162836686E-03
    0.39298050936434504978E-03
    0.42785453472804886805E-03
    0.44062504415815140950E-03
    0.41896609732482587843E-03
    0.43378078528368349542E-03
    0.40772430752749504786E-03
    0.38166491556803814299E-03
    0.35321427530755910868E-03
    0.33954321732736306725E-03
    0.35495441085080459359E-03
    0.34476413465465608572E-03
    0.38151610247694916524E-03
    0.38924486255046271107E-03
    0.32649419569975477676E-03
    0.33925949957221482583E-03
    0.37185321921250096737E-03
    0.37768553726745632704E-03
    0.35100740356100733385E-03
    0.35428587914057693350E-03
    0.32653550935625219381E-03
    0.31172269186066138037E-03
    0.28600914907226320611E-03
    0.27984941684691721012E-03
    0.29970746844402989953E-03
    0.29822997209829872839E-03
    0.32228862523000833878E-03
    0.32577229946699037388E-03
    0.43433745987091134256E-03
    0.45298953593139772633E-03
    0.49931534400851867832E-03
    0.50788754737133385772E-03
    0.47005773367661790162E-03
    0.47470845918853919829E-03
    0.43552945332227580542E-03
    0.41463268159842799109E-03
    0.37851611570617090105E-03
    0.36966330529424848731E-03
    0.39731844514431048426E-03
    0.39466762223534378358E-03
    0.42925675954454063686E-03
    0.43429525224610460729E-03
    0.49962887629816825959E-03
    0.52866310069291425587E-03
    0.57802872853778605039E-03
    0.59556344316288585376E-03
    0.56447691837205565650E-03
    0.58472031799799951361E-03
    0.54816266096558612445E-03
    0.51190979712871812965E-03
    0.47221078395056384188E-03
    0.45321222576345202449E-03
    0.47493122841880345414E-03
    0.46093286909516708715E-03
    0.51210717598069489549E-03
    0.52277929193651274161E-03
    0.68005648863050948989E-03
    0.72030613066111830265E-03
    0.79127627063251622548E-03
    0.81481771614697897331E-03
    0.76904869954265713157E-03
    0.79621104217157353568E-03
    0.74460947053423042017E-03
    0.69407885013409711603E-03
    0.63827523693176760507E-03
    0.61189603104333945959E-03
    0.64307797166180682372E-03
    0.62424912495406576374E-03
    0.69552373780937086500E-03
    0.71014386309415354105E-03
    0.58928067794944383965E-03
    0.61631393304684546717E-03
    0.68379721868680844784E-03
    0.69599179595465556370E-03
    0.64031965113932440455E-03
    0.64601056412719474933E-03
    0.58942134157125968680E-03
    0.56021045495810472322E-03
    0.50879399004882862410E-03
    0.49645266493946740242E-03
    0.53600733607361296905E-03
    0.53224322228715814209E-03
    0.58177505430189520742E-03
    0.58884050564116140799E-03
    0.81647857768821728835E-03
    0.85559893552075011718E-03
    0.95685617161058160885E-03
    0.97324778312804364252E-03
    0.88794551330992853560E-03
    0.89303189452084982998E-03
    0.80910929073959268754E-03
    0.76867706429503061642E-03
    0.69399607394785272491E-03
    0.67717127944746816157E-03
    0.73586791295241079335E-03
    0.73162298564202787095E-03
    0.80278752522752695395E-03
    0.81233352253953165344E-03
    0.40575314453934210011E-03
    0.41836632061975127404E-03
    0.46200901421084348110E-03
    0.46574891171063394994E-03
    0.42557040472873734717E-03
    0.42271782200649149139E-03
    0.38300804724321352171E-03
    0.36980299897848545841E-03
    0.33593883893198196993E-03
    0.33234450411643917320E-03
    0.36269698819349629549E-03
    0.36619415233458046726E-03
    0.39137767729392498178E-03
    0.39347241660302374223E-03
    0.54291695907892592761E-03
    0.56255946481076975381E-03
    0.62539230214163387452E-03
    0.63208379367816200974E-03
    0.57491177769488841214E-03
    0.57180749853237686133E-03
    0.51501785567313552918E-03
    0.49550969526917175954E-03
    0.44731988092867143100E-03
    0.44150648608474101853E-03
    0.48379412933615328820E-03
    0.48722995425759215490E-03
    0.52503766775587891978E-03
    0.52856212209093404123E-03
    0.52567331667969174024E-03
    0.53942258443514645022E-03
    0.59829149988156423746E-03
    0.60049481404980003564E-03
    0.54337471636797579546E-03
    0.53488239040880324656E-03
    0.47960135377971392992E-03
    0.46608197341352445306E-03
    0.42069107762207310405E-03
    0.41890855535881043378E-03
    0.46243508198546130717E-03
    0.47094506867515005099E-03
    0.50009908348391948155E-03
    0.50121106718208020738E-03
    0.70518310801385639119E-03
    0.72808390379230101055E-03
    0.81298368503606235902E-03
    0.81925946162801827934E-03
    0.73859598066697350165E-03
    0.72939013338700847775E-03
    0.64986889379794684791E-03
    0.62833810533157547981E-03
    0.56326506879517753042E-03
    0.55912622140481176101E-03
    0.61941843678373650992E-03
    0.62855376095527959370E-03
    0.67402978552159496187E-03
    0.67687304258259156902E-03
    0.74465507641195466306E-03
    0.77543390486661735884E-03
    0.86920180349313834467E-03
    0.88049642364121101339E-03
    0.79543413794799029855E-03
    0.79118804403316715570E-03
    0.70703587389302441444E-03
    0.67826259253313725319E-03
    0.60794082021898773749E-03
    0.59911161439743835198E-03
    0.66004900922800931618E-03
    0.66371773519349741826E-03
    0.72083486650666606533E-03
    0.72642901721654015799E-03
    0.10519741516526461781E-02
    0.11008977046494405633E-02
    0.12472379700214882622E-02
    0.12651521495125942190E-02
    0.11316819271202859746E-02
    0.11232228947427530877E-02
    0.99336360019809644660E-03
    0.95107861936315034324E-03
    0.84482865351465422608E-03
    0.83195755468031679092E-03
    0.92397287708961860827E-03
    0.92877165398544360084E-03
    0.10168340547206690654E-02
    0.10253082669543815090E-02
    0.97263986650179162004E-03
    0.10119465350376681458E-02
    0.11403773450273722682E-02
    0.11546147838087717809E-02
    0.10347980286278262059E-02
    0.10248295577089427174E-02
    0.90505141854142160535E-03
    0.87034869855837678886E-03
    0.77353665447969940060E-03
    0.76550342460744236553E-03
    0.85214600498742759487E-03
    0.86136023481374107604E-03
    0.93447206802647431265E-03
    0.94048052641853955875E-03
    0.13920923155538872124E-02
    0.14614672407378111272E-02
    0.16676114165624527676E-02
    0.16963151892422172716E-02
    0.15062779265652078992E-02
    0.14937865253300997188E-02
    0.13033855490053624423E-02
    0.12466717358673232163E-02
    0.10954768755122405721E-02
    0.10809472052068897462E-02
    0.12125214283493100566E-02
    0.12210883156847523751E-02
    0.13430278201922976524E-02
    0.13545886342315089940E-02
    0.32560190477523716888E-03
    0.31488475974924276871E-03
    0.33027075141644704351E-03
    0.32110913230547937555E-03
    0.29624608367423752421E-03
    0.28142318601491743716E-03
    0.26182503566975499952E-03
    0.26903903283575120479E-03
    0.25796396104002609342E-03
    0.26775566227167733185E-03
    0.28817041125465405697E-03
    0.30690650570553519236E-03
    0.29359075685570640291E-03
    0.28805139075503618119E-03
    0.35428587939287793478E-03
    0.35100740379833338892E-03
    0.37768553754239839702E-03
    0.37185321947147057095E-03
    0.33925949976839324005E-03
    0.32649419585066070297E-03
    0.29822997220315679940E-03
    0.29970746857588167729E-03
    0.27984941695584922500E-03
    0.28600914920555605119E-03
    0.31172269203967026057E-03
    0.32653550957322696096E-03
    0.32577229965845603231E-03
    0.32228862540850992079E-03
    0.43378078584128628749E-03
    0.41896609782652352019E-03
    0.44062504469365458342E-03
    0.42785453521682113940E-03
    0.39298050977215880650E-03
    0.37216481604606922945E-03
    0.34476413492377479741E-03
    0.35495441117523534279E-03
    0.33954321762819111461E-03
    0.35321427565332928766E-03
    0.38166491599785247598E-03
    0.40772430805639564740E-03
    0.38924486297861127584E-03
    0.38151610287566229155E-03
    0.47470845975720025621E-03
    0.47005773422118283730E-03
    0.50788754799256316270E-03
    0.49931534460161196114E-03
    0.45298953640381556685E-03
    0.43433746026461491274E-03
    0.39466762253917713095E-03
    0.39731844549064520731E-03
    0.36966330559229094825E-03
    0.37851611604523144067E-03
    0.41463268202498353762E-03
    0.43552945381697524743E-03
    0.43429525270182334912E-03
    0.42925675997803865516E-03
    0.42271782231557172675E-03
    0.42557040501421981383E-03
    0.46574891203718805487E-03
    0.46200901450706692184E-03
    0.41836632084788540889E-03
    0.40575314471708831847E-03
    0.36619415245169332964E-03
    0.36269698834708161053E-03
    0.33234450424519419850E-03
    0.33593883908779076678E-03
    0.36980299919611464999E-03
    0.38300804751826661399E-03
    0.39347241683165850743E-03
    0.39137767750488811893E-03
    0.53488239073688618498E-03
    0.54337471663482342886E-03
    0.60049481433264041003E-03
    0.59829150010497862341E-03
    0.53942258459647692611E-03
    0.52567331676189280477E-03
    0.47094506871120302583E-03
    0.46243508209350709520E-03
    0.41890855546763814841E-03
    0.42069107778441779686E-03
    0.46608197363324973270E-03
    0.47960135408296869280E-03
    0.50121106738585980041E-03
    0.50009908365561482179E-03
    0.57180749924429057074E-03
    0.57491177837169619731E-03
    0.63208379445416204220E-03
    0.62539230286350814929E-03
    0.56255946539270193420E-03
    0.54291695956986611542E-03
    0.48722995462656463984E-03
    0.48379412975947070231E-03
    0.44150648644712442740E-03
    0.44731988133626487784E-03
    0.49550969579697536332E-03
    0.51501785629797750422E-03
    0.52856212265452108719E-03
    0.52503766828992069760E-03
    0.72939013422599621120E-03
    0.73859598142240665258E-03
    0.81925946245931034577E-03
    0.81298368577840723816E-03
    0.72808390437871007856E-03
    0.70518310846556277183E-03
    0.62855376128576122101E-03
    0.61941843721910862589E-03
    0.55912622180187142480E-03
    0.56326506927697214764E-03
    0.62833810594110732755E-03
    0.64986889454855107078E-03
    0.67687304320015269279E-03
    0.67402978608907797992E-03
    0.58472031906655426350E-03
    0.56447691935041866343E-03
    0.59556344420883975885E-03
    0.57802872950936260224E-03
    0.52866310151654827710E-03
    0.49962887700065222903E-03
    0.46093286967922246066E-03
    0.47493122909030884016E-03
    0.45321222638766819803E-03
    0.47221078465040132802E-03
    0.51190979797228618360E-03
    0.54816266197227749100E-03
    0.52277929278451485719E-03
    0.51210717678059952587E-03
    0.64601056525906105140E-03
    0.64031965223433173588E-03
    0.69599179720298989891E-03
    0.68379721988393699864E-03
    0.61631393402588935306E-03
    0.58928067879560291995E-03
    0.53224322296699833230E-03
    0.53600733681672123494E-03
    0.49645266558849120587E-03
    0.50879399076275970849E-03
    0.56021045583087272692E-03
    0.58942134255795261902E-03
    0.58884050657559004922E-03
    0.58177505520007170587E-03
    0.79621104408758092748E-03
    0.76904870133155515434E-03
    0.81481771808509238005E-03
    0.79127627243894037637E-03
    0.72030613220376126914E-03
    0.68005648997271535023E-03
    0.62424912608868984246E-03
    0.64307797293131139897E-03
    0.61189603222386562253E-03
    0.63827523823576455455E-03
    0.69407885167694326201E-03
    0.74460947233634020535E-03
    0.71014386465813382314E-03
    0.69552373929661728044E-03
    0.89303189660995736278E-03
    0.88794551537246845310E-03
    0.97324778549787963229E-03
    0.95685617389109473528E-03
    0.85559893740118114942E-03
    0.81647857935022646880E-03
    0.73162298699474702292E-03
    0.73586791439973374060E-03
    0.67717128071364033302E-03
    0.69399607531927534013E-03
    0.76867706594578133310E-03
    0.80910929257586123794E-03
    0.81233352431532481613E-03
    0.80278752694701836518E-03
    0.79118804547890857724E-03
    0.79543413935124931795E-03
    0.88049642524962244260E-03
    0.86920180502063468155E-03
    0.77543390611682855643E-03
    0.74465507750861973952E-03
    0.66371773605084069449E-03
    0.66004901016527184505E-03
    0.59911161520385101432E-03
    0.60794082109932932705E-03
    0.67826259363537653828E-03
    0.70703587515779709773E-03
    0.72642901840472360719E-03
    0.72083486764829755953E-03
    0.10248295595227836785E-02
    0.10347980303233262830E-02
    0.11546147857154371447E-02
    0.11403773467828150646E-02
    0.10119465364684971254E-02
    0.97263986769868262215E-03
    0.86136023575183822375E-03
    0.85214600607352928956E-03
    0.76550342557809821289E-03
    0.77353665557881293082E-03
    0.87034869991874726398E-03
    0.90505142013436960108E-03