# vtk DataFile Version 3.0
LAPLACIEN  2D
ASCII
DATASET UNSTRUCTURED_GRID
 POINTS        7297  float
   1.5625000000000000E-002  0.96875000000000000        0.0000000000000000     
   3.1250000000000000E-002  0.96875000000000000        0.0000000000000000     
   3.1250000000000000E-002  0.98437500000000000        0.0000000000000000     
   9.3749999999999997E-003  0.97812500000000002        0.0000000000000000     
   2.0312500000000001E-002  0.97968750000000004        0.0000000000000000     
   2.1874999999999999E-002  0.99062499999999998        0.0000000000000000     
   1.0937499999999999E-002  0.98906249999999996        0.0000000000000000     
   4.6875000000000000E-002  0.96875000000000000        0.0000000000000000     
   6.2500000000000000E-002  0.96875000000000000        0.0000000000000000     
   6.2500000000000000E-002  0.98437500000000000        0.0000000000000000     
   4.0625000000000001E-002  0.97812500000000002        0.0000000000000000     
   5.1562499999999997E-002  0.97968750000000004        0.0000000000000000     
   5.3124999999999999E-002  0.99062499999999998        0.0000000000000000     
   4.2187500000000003E-002  0.98906249999999996        0.0000000000000000     
   1.5625000000000000E-002  0.93750000000000000        0.0000000000000000     
   3.1250000000000000E-002  0.93750000000000000        0.0000000000000000     
   3.1250000000000000E-002  0.95312500000000000        0.0000000000000000     
   9.3749999999999997E-003  0.94687500000000002        0.0000000000000000     
   2.0312500000000001E-002  0.94843750000000004        0.0000000000000000     
   2.1874999999999999E-002  0.95937499999999998        0.0000000000000000     
   1.0937499999999999E-002  0.95781249999999996        0.0000000000000000     
   4.6875000000000000E-002  0.93750000000000000        0.0000000000000000     
   6.2500000000000000E-002  0.93750000000000000        0.0000000000000000     
   6.2500000000000000E-002  0.95312500000000000        0.0000000000000000     
   4.0625000000000001E-002  0.94687500000000002        0.0000000000000000     
   5.1562499999999997E-002  0.94843750000000004        0.0000000000000000     
   5.3124999999999999E-002  0.95937499999999998        0.0000000000000000     
   4.2187500000000003E-002  0.95781249999999996        0.0000000000000000     
   7.8125000000000000E-002  0.96875000000000000        0.0000000000000000     
   9.3750000000000000E-002  0.96875000000000000        0.0000000000000000     
   9.3750000000000000E-002  0.98437500000000000        0.0000000000000000     
   7.1874999999999994E-002  0.97812500000000002        0.0000000000000000     
   8.2812499999999997E-002  0.97968750000000004        0.0000000000000000     
   8.4375000000000006E-002  0.99062499999999998        0.0000000000000000     
   7.3437500000000003E-002  0.98906249999999996        0.0000000000000000     
  0.10937500000000000       0.96875000000000000        0.0000000000000000     
  0.12500000000000000       0.96875000000000000        0.0000000000000000     
  0.12500000000000000       0.98437500000000000        0.0000000000000000     
  0.10312499999999999       0.97812500000000002        0.0000000000000000     
  0.11406250000000000       0.97968750000000004        0.0000000000000000     
  0.11562500000000001       0.99062499999999998        0.0000000000000000     
  0.10468750000000000       0.98906249999999996        0.0000000000000000     
   7.8125000000000000E-002  0.93750000000000000        0.0000000000000000     
   9.3750000000000000E-002  0.93750000000000000        0.0000000000000000     
   9.3750000000000000E-002  0.95312500000000000        0.0000000000000000     
   7.1874999999999994E-002  0.94687500000000002        0.0000000000000000     
   8.2812499999999997E-002  0.94843750000000004        0.0000000000000000     
   8.4375000000000006E-002  0.95937499999999998        0.0000000000000000     
   7.3437500000000003E-002  0.95781249999999996        0.0000000000000000     
  0.10937500000000000       0.93750000000000000        0.0000000000000000     
  0.12500000000000000       0.93750000000000000        0.0000000000000000     
  0.12500000000000000       0.95312500000000000        0.0000000000000000     
  0.10312499999999999       0.94687500000000002        0.0000000000000000     
  0.11406250000000000       0.94843750000000004        0.0000000000000000     
  0.11562500000000001       0.95937499999999998        0.0000000000000000     
  0.10468750000000000       0.95781249999999996        0.0000000000000000     
   1.5625000000000000E-002  0.90625000000000000        0.0000000000000000     
   3.1250000000000000E-002  0.90625000000000000        0.0000000000000000     
   3.1250000000000000E-002  0.92187500000000000        0.0000000000000000     
   9.3749999999999997E-003  0.91562500000000002        0.0000000000000000     
   2.0312500000000001E-002  0.91718750000000004        0.0000000000000000     
   2.1874999999999999E-002  0.92812499999999998        0.0000000000000000     
   1.0937499999999999E-002  0.92656249999999996        0.0000000000000000     
   4.6875000000000000E-002  0.90625000000000000        0.0000000000000000     
   6.2500000000000000E-002  0.90625000000000000        0.0000000000000000     
   6.2500000000000000E-002  0.92187500000000000        0.0000000000000000     
   4.0625000000000001E-002  0.91562500000000002        0.0000000000000000     
   5.1562499999999997E-002  0.91718750000000004        0.0000000000000000     
   5.3124999999999999E-002  0.92812499999999998        0.0000000000000000     
   4.2187500000000003E-002  0.92656249999999996        0.0000000000000000     
   1.5625000000000000E-002  0.87500000000000000        0.0000000000000000     
   3.1250000000000000E-002  0.87500000000000000        0.0000000000000000     
   3.1250000000000000E-002  0.89062500000000000        0.0000000000000000     
   9.3749999999999997E-003  0.88437500000000002        0.0000000000000000     
   2.0312500000000001E-002  0.88593750000000004        0.0000000000000000     
   2.1874999999999999E-002  0.89687499999999998        0.0000000000000000     
   1.0937499999999999E-002  0.89531249999999996        0.0000000000000000     
   4.6875000000000000E-002  0.87500000000000000        0.0000000000000000     
   6.2500000000000000E-002  0.87500000000000000        0.0000000000000000     
   6.2500000000000000E-002  0.89062500000000000        0.0000000000000000     
   4.0625000000000001E-002  0.88437500000000002        0.0000000000000000     
   5.1562499999999997E-002  0.88593750000000004        0.0000000000000000     
   5.3124999999999999E-002  0.89687499999999998        0.0000000000000000     
   4.2187500000000003E-002  0.89531249999999996        0.0000000000000000     
   7.8125000000000000E-002  0.90625000000000000        0.0000000000000000     
   9.3750000000000000E-002  0.90625000000000000        0.0000000000000000     
   9.3750000000000000E-002  0.92187500000000000        0.0000000000000000     
   7.1874999999999994E-002  0.91562500000000002        0.0000000000000000     
   8.2812499999999997E-002  0.91718750000000004        0.0000000000000000     
   8.4375000000000006E-002  0.92812499999999998        0.0000000000000000     
   7.3437500000000003E-002  0.92656249999999996        0.0000000000000000     
  0.10937500000000000       0.90625000000000000        0.0000000000000000     
  0.12500000000000000       0.90625000000000000        0.0000000000000000     
  0.12500000000000000       0.92187500000000000        0.0000000000000000     
  0.10312499999999999       0.91562500000000002        0.0000000000000000     
  0.11406250000000000       0.91718750000000004        0.0000000000000000     
  0.11562500000000001       0.92812499999999998        0.0000000000000000     
  0.10468750000000000       0.92656249999999996        0.0000000000000000     
   7.8125000000000000E-002  0.87500000000000000        0.0000000000000000     
   9.3750000000000000E-002  0.87500000000000000        0.0000000000000000     
   9.3750000000000000E-002  0.89062500000000000        0.0000000000000000     
   7.1874999999999994E-002  0.88437500000000002        0.0000000000000000     
   8.2812499999999997E-002  0.88593750000000004        0.0000000000000000     
   8.4375000000000006E-002  0.89687499999999998        0.0000000000000000     
   7.3437500000000003E-002  0.89531249999999996        0.0000000000000000     
  0.10937500000000000       0.87500000000000000        0.0000000000000000     
  0.12500000000000000       0.87500000000000000        0.0000000000000000     
  0.12500000000000000       0.89062500000000000        0.0000000000000000     
  0.10312499999999999       0.88437500000000002        0.0000000000000000     
  0.11406250000000000       0.88593750000000004        0.0000000000000000     
  0.11562500000000001       0.89687499999999998        0.0000000000000000     
  0.10468750000000000       0.89531249999999996        0.0000000000000000     
  0.14062500000000000       0.96875000000000000        0.0000000000000000     
  0.15625000000000000       0.96875000000000000        0.0000000000000000     
  0.15625000000000000       0.98437500000000000        0.0000000000000000     
  0.13437499999999999       0.97812500000000002        0.0000000000000000     
  0.14531250000000001       0.97968750000000004        0.0000000000000000     
  0.14687500000000001       0.99062499999999998        0.0000000000000000     
  0.13593749999999999       0.98906249999999996        0.0000000000000000     
  0.17187500000000000       0.96875000000000000        0.0000000000000000     
  0.18750000000000000       0.96875000000000000        0.0000000000000000     
  0.18750000000000000       0.98437500000000000        0.0000000000000000     
  0.16562499999999999       0.97812500000000002        0.0000000000000000     
  0.17656250000000001       0.97968750000000004        0.0000000000000000     
  0.17812500000000001       0.99062499999999998        0.0000000000000000     
[...]
 CELL_DATA       14336
 SCALARS Nutrients float
 LOOKUP_TABLE default
    0.53608344435697027550E-02
    0.53607501390148821346E-02
    0.53614016681664995734E-02
    0.53614016680956430583E-02
    0.53607501392981824276E-02
    0.53608344433234526860E-02
    0.53603172838640692627E-02
    0.53600119036966188679E-02
    0.53596820851228828622E-02
    0.53596820834955491777E-02
    0.53600119045347617910E-02
    0.53603172835168643590E-02
    0.53602694521028299707E-02
    0.53602694518382282621E-02
    0.53629738623033407566E-02
    0.53635439062747237993E-02
    0.53650914607296269765E-02
    0.53655197156493410204E-02
    0.53643595960616895571E-02
    0.53649159067713008894E-02
    0.53636996115308047117E-02
    0.53626879659505032744E-02
    0.53616204062022438173E-02
    0.53612370256758169751E-02
    0.53619032448972972146E-02
    0.53618206774570286235E-02
    0.53628632110024401780E-02
    0.53630925789814485813E-02
    0.53649159068180889837E-02
    0.53643595960200492548E-02
    0.53655197156688427818E-02
    0.53650914607123144362E-02
    0.53635439063449861716E-02
    0.53629738622167832593E-02
    0.53618206776310482764E-02
    0.53619032447288677082E-02
    0.53612370258959516495E-02
    0.53616204059949140043E-02
    0.53626879660609826084E-02
    0.53636996114971684235E-02
    0.53630925790366761052E-02
    0.53628632109782442550E-02
    0.53677866532847980444E-02
    0.53680356959703310130E-02
    0.53704544961220134630E-02
    0.53704544961154900354E-02
    0.53680356959893071531E-02
    0.53677866532604928337E-02
    0.53656422805088439115E-02
    0.53650310471547385874E-02
    0.53634361887713154909E-02
    0.53634361886864727678E-02
    0.53650310472085280256E-02
    0.53656422804744998561E-02
    0.53663465763443586598E-02
    0.53663465763289959487E-02
    0.53686921067571374139E-02
    0.53702325205901074376E-02
    0.53732499483268043178E-02
    0.53743736171519484665E-02
    0.53723773956657625353E-02
    0.53737280125220167684E-02
    0.53713444315228410161E-02
    0.53691322785187293315E-02
    0.53668445440797924589E-02
    0.53658770179377136139E-02
    0.53670984985902722014E-02
    0.53665114284810544812E-02
    0.53691786808577430731E-02
    0.53697870233025612671E-02
    0.53801274563596160685E-02
    0.53832312983825613209E-02
    0.53885620002539508927E-02
    0.53907284016732866586E-02
    0.53873631798656953021E-02
    0.53898591407690226232E-02
    0.53856461136511414589E-02
    0.53816397562706282803E-02
    0.53774742828060695041E-02
    0.53755816456737097464E-02
    0.53777219423125693573E-02
    0.53763085190614750067E-02
    0.53815595700137872082E-02
    0.53827380372847514339E-02
    0.53752830653092057572E-02
    0.53764866115684857226E-02
    0.53807285498705045845E-02
    0.53812939045159531234E-02
    0.53775225972120159826E-02
    0.53777385055732941296E-02
    0.53740191057545880909E-02
    0.53723770419773870730E-02
    0.53693337246747139049E-02
    0.53688755139176744247E-02
    0.53714240464239433256E-02
    0.53717094509320587395E-02
    0.53740412292529165378E-02
    0.53743320162816781566E-02
    0.53894761463391697640E-02
    0.53922445779261288581E-02
    0.53995457487312050263E-02
    0.54010554891549796344E-02
    0.53950192863567378310E-02
    0.53959818061491719374E-02
    0.53897057053510786032E-02
    0.53864024391543016690E-02
    0.53810364125585780776E-02
    0.53798221148453730447E-02
    0.53838581923699698265E-02
    0.53836318342630491013E-02
    0.53885801033691626410E-02
    0.53893579608228622466E-02
    0.53737280125517317142E-02
    0.53723773956759644441E-02
    0.53743736171725595835E-02
    0.53732499483379672633E-02
    0.53702325206155948623E-02
    0.53686921067448373571E-02
    0.53665114285228803989E-02
    0.53670984985697764436E-02
    0.53658770179835328651E-02
    0.53668445440616593944E-02
    0.53691322785513707558E-02
    0.53713444315396279352E-02
    0.53697870233252661953E-02
    0.53691786808682936613E-02
    0.53777385055925937957E-02
    0.53775225972199445362E-02
    0.53812939045321571754E-02
    0.53807285498811332353E-02
    0.53764866115818309503E-02
    0.53752830653045098608E-02
    0.53717094509449772252E-02
    0.53714240464132496228E-02
    0.53688755139438019623E-02
    0.53693337246651078737E-02
    0.53723770419974612930E-02
    0.53740191057607532982E-02
    0.53743320162957432945E-02
    0.53740412292582690271E-02
    0.53898591408312749099E-02
    0.53873631799163266762E-02
    0.53907284017288906175E-02
    0.53885620003014372131E-02
    0.53832312984232778830E-02
    0.53801274563831285105E-02
    0.53763085190879798467E-02
    0.53777219423366698706E-02
    0.53755816457041775622E-02
    0.53774742828347375442E-02
    0.53816397563172498411E-02
    0.53856461137092226030E-02
    0.53827380373290580062E-02
    0.53815595700509328420E-02
    0.53959818062060639285E-02
    0.53950192864068080220E-02
    0.54010554892156576595E-02
    0.53995457487854810544E-02
    0.53922445779667673577E-02
    0.53894761463635391593E-02
    0.53836318342831241887E-02
    0.53838581923911837598E-02
    0.53798221148708353159E-02
    0.53810364125825831810E-02
    0.53864024391938672420E-02
    0.53897057053970270912E-02
    0.53893579608636594733E-02
    0.53885801034049959565E-02
    0.53881857172778874557E-02
    0.53891210090196645446E-02
    0.53954119402153909169E-02
    0.53954119402117028947E-02
    0.53891210090168794461E-02
    0.53881857172654668356E-02
    0.53824517714011269054E-02
    0.53811231244794404532E-02
    0.53767226366811110561E-02
    0.53767226366759242329E-02
    0.53811231244889103087E-02
    0.53824517714108300812E-02
    0.53847579481217716299E-02
    0.53847579481191227072E-02
    0.54076226731027653150E-02
    0.54103915733388239714E-02
    0.54209815043408096299E-02
    0.54219679042681679162E-02
    0.54121094544582661751E-02
    0.54115847341432753506E-02
    0.54020910477708492664E-02
    0.53990248636427342482E-02
    0.53915138631631430791E-02
    0.53908442037073466685E-02
    0.53975490773234538130E-02
    0.53985636206409287272E-02
    0.54039728758150098673E-02
    0.54044403374725160163E-02
    0.54115847342081947746E-02
    0.54121094545125118455E-02
    0.54219679043307524025E-02
    0.54209815043910021190E-02
    0.54103915733741203900E-02
    0.54076226731206676612E-02
    0.53985636206481495136E-02
    0.53975490773417985138E-02
    0.53908442037266914373E-02
    0.53915138631874118605E-02
    0.53990248636847449140E-02
    0.54020910478286077519E-02
    0.54044403375132013534E-02
    0.54039728758489887633E-02
    0.54400067657733811727E-02
    0.54426355289413433369E-02
    0.54586024398830344101E-02
    0.54586024398716416137E-02
    0.54426355289213792718E-02
    0.54400067657267483362E-02
    0.54254999569172124296E-02
    0.54223789015630831367E-02
    0.54113117942505483890E-02
    0.54113117942592263432E-02
    0.54223789015840611477E-02
    0.54254999569661836734E-02
    0.54316355880192554451E-02
    0.54316355880132264136E-02
    0.54006524940019388914E-02
    0.54062331120575705598E-02
    0.54154690388269243265E-02
    0.54193474218078852012E-02
    0.54135998556495311049E-02
    0.54180057079142151383E-02
    0.54107338107020836251E-02
    0.54037313747091796426E-02
    0.53964811423422767017E-02
    0.53931285233281582234E-02
    0.53967773480187303248E-02
    0.53941466924856563275E-02
    0.54034677468338902090E-02
    0.54055641769552038173E-02
    0.54365951021462599960E-02
    0.54463501636983031526E-02
    0.54624230251873158795E-02
    0.54691164522755950084E-02
    0.54590801782061224370E-02
    0.54665771118289352426E-02
    0.54540605489807533757E-02
    0.54420072438608937254E-02
    0.54294703501007535520E-02
    0.54236686249194915668E-02
    0.54299537603224833082E-02
    0.54253174323076608365E-02
    0.54415609451737741165E-02
    0.54451911123497972675E-02
    0.54150295337755376818E-02
    0.54204541423260935162E-02
    0.54331278318613162107E-02
    0.54362366379799185664E-02
    0.54260880708331985997E-02
    0.54281655471260254614E-02
    0.54173440840566888452E-02
    0.54113538755265087540E-02
    0.54020674690147497607E-02
    0.53996814346495948869E-02
    0.54062834204257198545E-02
    0.54052376586639560782E-02
    0.54145858576124987829E-02
    0.54161523594599787421E-02
    0.54605149136155136172E-02
    0.54705331372811071347E-02
    0.54927960798118440761E-02
    0.54985258031823060210E-02
    0.54808355718235944251E-02
    0.54845485010413998900E-02
    0.54656943675784296077E-02
    0.54551566855040858547E-02
    0.54389918335497663276E-02
    0.54346722054904768318E-02
    0.54459447271882933939E-02
    0.54436542020370277603E-02
    0.54605269277717347065E-02
    0.54633827170046528332E-02
    0.54990019758060929359E-02
    0.55155865228034813355E-02
    0.55432410379990257679E-02
    0.55542418697403133157E-02
    0.55367397683858485952E-02
    0.55489846227973899095E-02
    0.55278153864615738391E-02
    0.55075043127296033699E-02
    0.54861797903658837336E-02
    0.54762973707714974678E-02
    0.54872046185228916249E-02
    0.54794169550182727710E-02
    0.55070622069762053402E-02
    0.55131325900291067513E-02
    0.56055751596773960993E-02
    0.56325578869930344184E-02
    0.56793557727892627837E-02
    0.56963289070795074948E-02
    0.56659848378294089266E-02
    0.56848860797527392408E-02
    0.56501148351533201156E-02
    0.56169647509398444932E-02
    0.55815402564265478164E-02
    0.55652520428920515885E-02
    0.55840324969822531520E-02
    0.55716735760568490005E-02
    0.56172262731586887138E-02
    0.56269443895097985900E-02
    0.55414107516771164696E-02
    0.55591384303905009429E-02
    0.55986142154003139260E-02
    0.56083534634619137613E-02
    0.55766289093423229359E-02
    0.55822108565515560219E-02
    0.55492408067253006995E-02
    0.55314160063621867561E-02
    0.55032784892101666366E-02
    0.54958895228728885454E-02
    0.55156974771959424442E-02
    0.55116492531990463402E-02
    0.55412938404673763373E-02
    0.55461573211362490132E-02
    0.56845246295574745551E-02
    0.57144334185120475994E-02
    0.57841755246769458940E-02
    0.57990714386381451637E-02
    0.57415652645235503229E-02
    0.57479958931306533026E-02
    0.56906977012464044635E-02
    0.56620321860763487762E-02
    0.56135601420989932400E-02
    0.56016869119699221405E-02
    0.56371625057416736154E-02
    0.56313522865683324908E-02
    0.56815401107623069929E-02
    0.56891554260598076534E-02
    0.54423743398787699163E-02
    0.54483781245758481498E-02
    0.54664941356920692533E-02
    0.54692767246947195103E-02
    0.54531205642139538720E-02
    0.54533347185457643411E-02
    0.54371568597642860876E-02
    0.54310596305904368722E-02
    0.54181364760853053392E-02
    0.54163420331191040186E-02
    0.54270819178345187234E-02
    0.54275869188763004383E-02
    0.54383509447085073840E-02
    0.54396252647519235252E-02
    0.55043894331611841614E-02
    0.55164053614721007823E-02
    0.55483357258408125268E-02
    0.55544826067529546459E-02
    0.55266828771510434146E-02
    0.55280277526252230222E-02
    0.54996577064973248619E-02
    0.54882843278160828304E-02
    0.54655956572787454950E-02
    0.54618314531811925500E-02
    0.54798319683257512916E-02
    0.54793286752007714854E-02
    0.54998891831384106796E-02
    0.55026304553249640386E-02
    0.54892829581995698784E-02
    0.54959404981662568837E-02
    0.55223943279843652754E-02
    0.55245731125992481383E-02
    0.54995103215297255761E-02
    0.54974680659122393545E-02
    0.54733866709877655732E-02
    0.54664893060413300221E-02
    0.54478105004623876562E-02
    0.54465559535939031197E-02
    0.54636228356145337404E-02
    0.54664936567008597101E-02
    0.54795698571393318399E-02
    0.54805113836635813498E-02
    0.55756330813481877126E-02
    0.55904473999176963056E-02
    0.56360651061658998545E-02
    0.56431028380986500426E-02
    0.56016925786660934708E-02
    0.56012763254964896553E-02
    0.55595323329708816115E-02
    0.55453888375934191554E-02
    0.55128889256793990950E-02
    0.55091726977353327327E-02
    0.55366710631892636710E-02
    0.55385160059546320252E-02
    0.55648374656262758128E-02
    0.55677590284102631071E-02
    0.56168603659785334981E-02
    0.56398432369223787039E-02
    0.56975025568329297140E-02
    0.57093558558036459905E-02
    0.56594197655769886909E-02
    0.56618325610710154919E-02
    0.56110223034103951303E-02
    0.55907036730315972858E-02
    0.55503037815540267122E-02
    0.55432568358200181094E-02
    0.55747595805901214300E-02
    0.55726908655798828782E-02
    0.56108648639765570931E-02
    0.56160643240128925099E-02
    0.58227845273438752841E-02
    0.58647439078945793473E-02
    0.59702355441106566558E-02
    0.59905719897200291127E-02
    0.58981650311050442398E-02
    0.58994446992478577485E-02
    0.58076350781045178728E-02
    0.57732724220407455329E-02
    0.57009848212231529346E-02
    0.56890375296384226161E-02
    0.57461670374522573826E-02
    0.57425283894778321458E-02
    0.58113556996212270903E-02
    0.58202186886041383865E-02
    0.57323898931892656658E-02
    0.57637101576380285126E-02
    0.58461680491593750325E-02
    0.58628531029596272703E-02
    0.57900794544752769155E-02
    0.57923587822098377559E-02
    0.57170762152466345074E-02
    0.56895819111548685473E-02
    0.56310970298411120588E-02
    0.56226739106734020465E-02
    0.56694838251469788573E-02
    0.56686182358240454551E-02
    0.57209660227765159884E-02
    0.57277705486709707197E-02
    0.60260652576799344018E-02
    0.60888386730822731396E-02
    0.62428626545145268420E-02
    0.62766818890519007756E-02
    0.61417787595324591435E-02
    0.61461365893181072947E-02
    0.60067715653577902560E-02
    0.59559857249922073391E-02
    0.58484583235638423412E-02
    0.58319361778312751171E-02
    0.59161682165562281058E-02
    0.59106638402086023737E-02
    0.60120354984409063795E-02
    0.60256240055534928193E-02
    0.54180057080618184220E-02
    0.54135998557789380067E-02
    0.54193474219479615198E-02
    0.54154690389518244167E-02
    0.54062331121598299066E-02
    0.54006524940810275368E-02
    0.53941466925489381726E-02
    0.53967773480957598534E-02
    0.53931285234005742549E-02
    0.53964811424258261885E-02
    0.54037313748189061066E-02
    0.54107338108411529368E-02
    0.54055641770634479601E-02
    0.54034677469330331251E-02
    0.54281655472757485772E-02
    0.54260880709746167269E-02
    0.54362366381463444673E-02
    0.54331278320173467811E-02
    0.54204541424454225421E-02
    0.54150295338683783475E-02
    0.54052376587324021950E-02
    0.54062834205066915422E-02
    0.53996814347193836797E-02
    0.54020674690952270522E-02
    0.54113538756333798632E-02
    0.54173440841832924339E-02
    0.54161523595749579488E-02
    0.54145858577202034267E-02
    0.54665771121502398575E-02
    0.54590801784942348529E-02
    0.54691164525888635167E-02
    0.54624230254719805325E-02
    0.54463501639338326304E-02
    0.54365951023398013595E-02
    0.54253174324627607278E-02
    0.54299537605062607806E-02
    0.54236686250886496571E-02
    0.54294703502943391510E-02
    0.54420072441042823680E-02
    0.54540605492814364652E-02
    0.54451911125936369382E-02
    0.54415609454008173271E-02
    0.54845485013842940059E-02
    0.54808355721554348830E-02
    0.54985258035705171856E-02
    0.54927960801832561785E-02
    0.54705331375719855672E-02
    0.54605149138580470411E-02
    0.54436542022218720877E-02
    0.54459447273956370847E-02
    0.54346722056666588174E-02
    0.54389918337475811824E-02
    0.54551566857565366928E-02
    0.54656943678703497416E-02
    0.54633827172790123614E-02
    0.54605269280334411616E-02
    0.54533347187380072640E-02
    0.54531205643921767598E-02
    0.54692767249026321905E-02
    0.54664941358796449028E-02
    0.54483781247187026281E-02
    0.54423743399888476618E-02
    0.54275869189508267609E-02
    0.54270819179298972895E-02
    0.54163420332003905586E-02
    0.54181364761810403910E-02
    0.54310596307240470090E-02
    0.54371568599308412253E-02
    0.54396252648935983914E-02
    0.54383509448393315550E-02
    0.54974680661277267046E-02
    0.54995103217053628586E-02
    0.55245731127909853894E-02
    0.55223943281339565523E-02
    0.54959404982730013581E-02
    0.54892829582530713525E-02
    0.54664936567253340563E-02
    0.54636228356839998746E-02
    0.54465559536631428725E-02
    0.54478105005637197933E-02
    0.54664893061815416492E-02
    0.54733866711810571365E-02
    0.54805113837958514128E-02
    0.54795698572507349142E-02
    0.55280277530890386400E-02
    0.55266828775954179864E-02
    0.55544826072771360387E-02
    0.55483357263266573980E-02
    0.55164053618561685599E-02
    0.55043894334830716433E-02
    0.54793286754380573708E-02
    0.54798319685955979366E-02
    0.54618314534076936595E-02
    0.54655956575319101717E-02
    0.54882843281509200231E-02
    0.54996577068934507024E-02
    0.55026304556892438255E-02
    0.54998891834838132056E-02
    0.56012763260827966999E-02
    0.56016925791977853488E-02
    0.56431028386982259870E-02
    0.56360651067015434326E-02
    0.55904474003313020872E-02
    0.55756330816656282309E-02
    0.55385160061800324527E-02
    0.55366710634849065215E-02
    0.55091726979982873214E-02
    0.55128889259983063220E-02
    0.55453888380070570294E-02
    0.55595323334831411172E-02
    0.55677590288370935531E-02
    0.55648374660186798041E-02
    0.55489846234528161437E-02
    0.55367397689828849044E-02
    0.55542418703895500565E-02
    0.55432410386001117891E-02
    0.55155865233031241973E-02
    0.54990019762294105668E-02
    0.54794169553616369969E-02
    0.54872046189182932183E-02
    0.54762973711342446265E-02
    0.54861797907756384290E-02
    0.55075043132339412608E-02
    0.55278153870726683475E-02
    0.55131325905385022285E-02
    0.55070622074551347364E-02
    0.55822108572784337813E-02
    0.55766289100521344857E-02
    0.56083534642962550379E-02
    0.55986142162007318177E-02
    0.55591384310298913932E-02
    0.55414107522267358474E-02
    0.55116492536278075334E-02
    0.55156974776607364461E-02
    0.54958895232686067259E-02
    0.55032784896436965846E-02
    0.55314160069064527772E-02
    0.55492408073421596940E-02
    0.55461573217312444203E-02
    0.55412938410399114122E-02
    0.56848860810195514168E-02
    0.56659848390072176452E-02
    0.56963289083793522752E-02
    0.56793557739945590632E-02
    0.56325578879995539389E-02
    0.56055751605433743953E-02
    0.55716735767680465943E-02
    0.55840324977827334937E-02
    0.55652520436255559916E-02
    0.55815402572455315861E-02
    0.56169647519322355583E-02
    0.56501148363338896466E-02
    0.56269443905210712528E-02
    0.56172262741162864302E-02
    0.57479958945742112494E-02
    0.57415652659646440950E-02
    0.57990714403437044686E-02
    0.57841755263213952276E-02
    0.57144334198323950766E-02
    0.56845246307176680242E-02
    0.56313522874795992126E-02
    0.56371625067123242586E-02
    0.56016869127935480302E-02
    0.56135601429923966468E-02
    0.56620321871831327115E-02
    0.56906977024835450618E-02
    0.56891554272763024402E-02
    0.56815401119410594011E-02
    0.56618325620789167196E-02
    0.56594197665652268281E-02
    0.57093558569676758005E-02
    0.56975025579393189998E-02
    0.56398432378061136294E-02
    0.56168603667502573287E-02
    0.55726908661638497808E-02
    0.55747595812253771669E-02
    0.55432568363507983902E-02
    0.55503037821329950091E-02
    0.55907036737773236831E-02
    0.56110223042701188809E-02
    0.56160643248338677422E-02
    0.56108648647659725012E-02
    0.57923587835710527161E-02
    0.57900794557545331304E-02
    0.58628531044338481892E-02
    0.58461680505140682998E-02
    0.57637101587195678845E-02
    0.57323898940885307032E-02
    0.56686182365084641227E-02
    0.56694838259361609450E-02
    0.56226739113614419494E-02
    0.56310970306200462676E-02
    0.56895819121459663761E-02
    0.57170762164139672309E-02