# vtk DataFile Version 3.0
LAPLACIEN  2D
ASCII
DATASET UNSTRUCTURED_GRID
 POINTS        7297  float
   1.5625000000000000E-002  0.96875000000000000        0.0000000000000000     
   3.1250000000000000E-002  0.96875000000000000        0.0000000000000000     
   3.1250000000000000E-002  0.98437500000000000        0.0000000000000000     
   9.3749999999999997E-003  0.97812500000000002        0.0000000000000000     
   2.0312500000000001E-002  0.97968750000000004        0.0000000000000000     
   2.1874999999999999E-002  0.99062499999999998        0.0000000000000000     
   1.0937499999999999E-002  0.98906249999999996        0.0000000000000000     
   4.6875000000000000E-002  0.96875000000000000        0.0000000000000000     
   6.2500000000000000E-002  0.96875000000000000        0.0000000000000000     
   6.2500000000000000E-002  0.98437500000000000        0.0000000000000000     
   4.0625000000000001E-002  0.97812500000000002        0.0000000000000000     
   5.1562499999999997E-002  0.97968750000000004        0.0000000000000000     
   5.3124999999999999E-002  0.99062499999999998        0.0000000000000000     
   4.2187500000000003E-002  0.98906249999999996        0.0000000000000000     
   1.5625000000000000E-002  0.93750000000000000        0.0000000000000000     
   3.1250000000000000E-002  0.93750000000000000        0.0000000000000000     
   3.1250000000000000E-002  0.95312500000000000        0.0000000000000000     
   9.3749999999999997E-003  0.94687500000000002        0.0000000000000000     
   2.0312500000000001E-002  0.94843750000000004        0.0000000000000000     
   2.1874999999999999E-002  0.95937499999999998        0.0000000000000000     
   1.0937499999999999E-002  0.95781249999999996        0.0000000000000000     
   4.6875000000000000E-002  0.93750000000000000        0.0000000000000000     
   6.2500000000000000E-002  0.93750000000000000        0.0000000000000000     
   6.2500000000000000E-002  0.95312500000000000        0.0000000000000000     
   4.0625000000000001E-002  0.94687500000000002        0.0000000000000000     
   5.1562499999999997E-002  0.94843750000000004        0.0000000000000000     
   5.3124999999999999E-002  0.95937499999999998        0.0000000000000000     
   4.2187500000000003E-002  0.95781249999999996        0.0000000000000000     
   7.8125000000000000E-002  0.96875000000000000        0.0000000000000000     
   9.3750000000000000E-002  0.96875000000000000        0.0000000000000000     
   9.3750000000000000E-002  0.98437500000000000        0.0000000000000000     
   7.1874999999999994E-002  0.97812500000000002        0.0000000000000000     
   8.2812499999999997E-002  0.97968750000000004        0.0000000000000000     
   8.4375000000000006E-002  0.99062499999999998        0.0000000000000000     
   7.3437500000000003E-002  0.98906249999999996        0.0000000000000000     
  0.10937500000000000       0.96875000000000000        0.0000000000000000     
  0.12500000000000000       0.96875000000000000        0.0000000000000000     
  0.12500000000000000       0.98437500000000000        0.0000000000000000     
  0.10312499999999999       0.97812500000000002        0.0000000000000000     
  0.11406250000000000       0.97968750000000004        0.0000000000000000     
  0.11562500000000001       0.99062499999999998        0.0000000000000000     
  0.10468750000000000       0.98906249999999996        0.0000000000000000     
   7.8125000000000000E-002  0.93750000000000000        0.0000000000000000     
   9.3750000000000000E-002  0.93750000000000000        0.0000000000000000     
   9.3750000000000000E-002  0.95312500000000000        0.0000000000000000     
   7.1874999999999994E-002  0.94687500000000002        0.0000000000000000     
   8.2812499999999997E-002  0.94843750000000004        0.0000000000000000     
   8.4375000000000006E-002  0.95937499999999998        0.0000000000000000     
   7.3437500000000003E-002  0.95781249999999996        0.0000000000000000     
  0.10937500000000000       0.93750000000000000        0.0000000000000000     
  0.12500000000000000       0.93750000000000000        0.0000000000000000     
  0.12500000000000000       0.95312500000000000        0.0000000000000000     
  0.10312499999999999       0.94687500000000002        0.0000000000000000     
  0.11406250000000000       0.94843750000000004        0.0000000000000000     
  0.11562500000000001       0.95937499999999998        0.0000000000000000     
  0.10468750000000000       0.95781249999999996        0.0000000000000000     
   1.5625000000000000E-002  0.90625000000000000        0.0000000000000000     
   3.1250000000000000E-002  0.90625000000000000        0.0000000000000000     
   3.1250000000000000E-002  0.92187500000000000        0.0000000000000000     
   9.3749999999999997E-003  0.91562500000000002        0.0000000000000000     
   2.0312500000000001E-002  0.91718750000000004        0.0000000000000000     
   2.1874999999999999E-002  0.92812499999999998        0.0000000000000000     
   1.0937499999999999E-002  0.92656249999999996        0.0000000000000000     
   4.6875000000000000E-002  0.90625000000000000        0.0000000000000000     
   6.2500000000000000E-002  0.90625000000000000        0.0000000000000000     
   6.2500000000000000E-002  0.92187500000000000        0.0000000000000000     
   4.0625000000000001E-002  0.91562500000000002        0.0000000000000000     
   5.1562499999999997E-002  0.91718750000000004        0.0000000000000000     
   5.3124999999999999E-002  0.92812499999999998        0.0000000000000000     
   4.2187500000000003E-002  0.92656249999999996        0.0000000000000000     
   1.5625000000000000E-002  0.87500000000000000        0.0000000000000000     
   3.1250000000000000E-002  0.87500000000000000        0.0000000000000000     
   3.1250000000000000E-002  0.89062500000000000        0.0000000000000000     
   9.3749999999999997E-003  0.88437500000000002        0.0000000000000000     
   2.0312500000000001E-002  0.88593750000000004        0.0000000000000000     
   2.1874999999999999E-002  0.89687499999999998        0.0000000000000000     
   1.0937499999999999E-002  0.89531249999999996        0.0000000000000000     
   4.6875000000000000E-002  0.87500000000000000        0.0000000000000000     
   6.2500000000000000E-002  0.87500000000000000        0.0000000000000000     
   6.2500000000000000E-002  0.89062500000000000        0.0000000000000000     
   4.0625000000000001E-002  0.88437500000000002        0.0000000000000000     
   5.1562499999999997E-002  0.88593750000000004        0.0000000000000000     
   5.3124999999999999E-002  0.89687499999999998        0.0000000000000000     
   4.2187500000000003E-002  0.89531249999999996        0.0000000000000000     
   7.8125000000000000E-002  0.90625000000000000        0.0000000000000000     
   9.3750000000000000E-002  0.90625000000000000        0.0000000000000000     
   9.3750000000000000E-002  0.92187500000000000        0.0000000000000000     
   7.1874999999999994E-002  0.91562500000000002        0.0000000000000000     
   8.2812499999999997E-002  0.91718750000000004        0.0000000000000000     
   8.4375000000000006E-002  0.92812499999999998        0.0000000000000000     
   7.3437500000000003E-002  0.92656249999999996        0.0000000000000000     
  0.10937500000000000       0.90625000000000000        0.0000000000000000     
  0.12500000000000000       0.90625000000000000        0.0000000000000000     
  0.12500000000000000       0.92187500000000000        0.0000000000000000     
  0.10312499999999999       0.91562500000000002        0.0000000000000000     
  0.11406250000000000       0.91718750000000004        0.0000000000000000     
  0.11562500000000001       0.92812499999999998        0.0000000000000000     
  0.10468750000000000       0.92656249999999996        0.0000000000000000     
   7.8125000000000000E-002  0.87500000000000000        0.0000000000000000     
   9.3750000000000000E-002  0.87500000000000000        0.0000000000000000     
   9.3750000000000000E-002  0.89062500000000000        0.0000000000000000     
   7.1874999999999994E-002  0.88437500000000002        0.0000000000000000     
   8.2812499999999997E-002  0.88593750000000004        0.0000000000000000     
   8.4375000000000006E-002  0.89687499999999998        0.0000000000000000     
   7.3437500000000003E-002  0.89531249999999996        0.0000000000000000     
  0.10937500000000000       0.87500000000000000        0.0000000000000000     
  0.12500000000000000       0.87500000000000000        0.0000000000000000     
  0.12500000000000000       0.89062500000000000        0.0000000000000000     
  0.10312499999999999       0.88437500000000002        0.0000000000000000     
  0.11406250000000000       0.88593750000000004        0.0000000000000000     
  0.11562500000000001       0.89687499999999998        0.0000000000000000     
  0.10468750000000000       0.89531249999999996        0.0000000000000000     
  0.14062500000000000       0.96875000000000000        0.0000000000000000     
  0.15625000000000000       0.96875000000000000        0.0000000000000000     
  0.15625000000000000       0.98437500000000000        0.0000000000000000     
  0.13437499999999999       0.97812500000000002        0.0000000000000000     
  0.14531250000000001       0.97968750000000004        0.0000000000000000     
  0.14687500000000001       0.99062499999999998        0.0000000000000000     
  0.13593749999999999       0.98906249999999996        0.0000000000000000     
  0.17187500000000000       0.96875000000000000        0.0000000000000000     
  0.18750000000000000       0.96875000000000000        0.0000000000000000     
  0.18750000000000000       0.98437500000000000        0.0000000000000000     
  0.16562499999999999       0.97812500000000002        0.0000000000000000     
  0.17656250000000001       0.97968750000000004        0.0000000000000000     
  0.17812500000000001       0.99062499999999998        0.0000000000000000     
[...]
 CELL_DATA       14336
 SCALARS Nutrients float
 LOOKUP_TABLE default
    0.33244451133506189126E-02
    0.33243572599059700162E-02
    0.33250127027868517371E-02
    0.33250127027427533316E-02
    0.33243572600778811127E-02
    0.33244451131959522686E-02
    0.33239227388045626543E-02
    0.33236163715258198147E-02
    0.33232850192921811749E-02
    0.33232850182962651517E-02
    0.33236163720401601211E-02
    0.33239227385952539555E-02
    0.33238750235088888527E-02
    0.33238750233464489127E-02
    0.33265910036861297966E-02
    0.33271629710117573732E-02
    0.33287167662659380811E-02
    0.33291456883245019310E-02
    0.33279816898022607057E-02
    0.33285419074582573741E-02
    0.33273197977163123003E-02
    0.33263037456642357247E-02
    0.33252332133873710625E-02
    0.33248439987163635849E-02
    0.33255169318859435605E-02
    0.33254322214005100321E-02
    0.33264787757147232586E-02
    0.33267112164566564093E-02
    0.33285419074996483099E-02
    0.33279816897865874790E-02
    0.33291456883457479568E-02
    0.33287167662621867416E-02
    0.33271629710600165129E-02
    0.33265910036353275522E-02
    0.33254322215090343327E-02
    0.33255169317872434326E-02
    0.33248439988551575092E-02
    0.33252332132664777498E-02
    0.33263037457401164326E-02
    0.33273197977076686069E-02
    0.33267112164981167341E-02
    0.33264787757060440034E-02
    0.33314193996382430313E-02
    0.33316687200990869992E-02
    0.33340938686566489943E-02
    0.33340938686513498478E-02
    0.33316687201078889861E-02
    0.33314193996165650594E-02
    0.33292680399000617979E-02
    0.33286551452646920106E-02
    0.33270543786144187587E-02
    0.33270543785634989868E-02
    0.33286551453001393501E-02
    0.33292680398850529704E-02
    0.33299745723749784448E-02
    0.33299745723648372514E-02
    0.33323281891695561742E-02
    0.33338730429942537749E-02
    0.33368982457247183850E-02
    0.33380246999468181530E-02
    0.33360237851660194675E-02
    0.33373783650366820909E-02
    0.33349886251891774393E-02
    0.33327700643232846360E-02
    0.33304763049805613875E-02
    0.33295036016701084168E-02
    0.33307306168235744845E-02
    0.33301411445572312066E-02
    0.33328161368152073307E-02
    0.33334271517987080699E-02
    0.33437904774429932572E-02
    0.33469004795767384394E-02
    0.33522400024729873472E-02
    0.33544101766322504364E-02
    0.33510401357897084788E-02
    0.33535404850969052597E-02
    0.33493208433029476867E-02
    0.33453068843191289226E-02
    0.33411331413792121937E-02
    0.33392360818359978145E-02
    0.33413808355833764935E-02
    0.33399640507426348740E-02
    0.33452261631619129890E-02
    0.33464069799542571840E-02
    0.33389334429462695988E-02
    0.33401396537104371259E-02
    0.33443897870686642784E-02
    0.33449566163190423002E-02
    0.33411786263139930594E-02
    0.33413958335941256264E-02
    0.33376686022875247731E-02
    0.33360222794661274423E-02
    0.33329708713028070172E-02
    0.33325116223731220295E-02
    0.33350660228360497032E-02
    0.33353519384834526967E-02
    0.33376896268812010493E-02
    0.33379810035538107389E-02
    0.33531514629736684785E-02
    0.33559241466044340343E-02
    0.33632342842159247687E-02
    0.33647462457769192722E-02
    0.33587038664503890764E-02
    0.33596689248819298391E-02
    0.33533848809807185500E-02
    0.33500756865975501834E-02
    0.33447006139263632356E-02
    0.33434837668346582308E-02
    0.33475260126326444703E-02
    0.33472985334952101016E-02
    0.33522554564157694933E-02
    0.33530347416875559523E-02
    0.33373783650838245024E-02
    0.33360237851968706571E-02
    0.33380246999845952262E-02
    0.33368982457530837159E-02
    0.33338730430275791139E-02
    0.33323281891747902686E-02
    0.33301411445935615203E-02
    0.33307306168257953642E-02
    0.33295036017131876722E-02
    0.33304763049864438348E-02
    0.33327700643646426121E-02
    0.33349886252262658272E-02
    0.33334271518331015649E-02
    0.33328161368404028882E-02
    0.33413958336284011602E-02
    0.33411786263367153349E-02
    0.33449566163469531335E-02
    0.33443897870892099096E-02
    0.33401396537285944766E-02
    0.33389334429472210947E-02
    0.33353519384939009362E-02
    0.33350660228373052094E-02
    0.33325116223977603071E-02
    0.33329708713088252066E-02
    0.33360222794935985233E-02
    0.33376686023116300568E-02
    0.33379810035762385451E-02
    0.33376896268960394402E-02
    0.33535404851945302927E-02
    0.33510401358735108016E-02
    0.33544101767214000442E-02
    0.33522400025513760316E-02
    0.33469004796431666392E-02
    0.33437904774904110561E-02
    0.33399640507869652988E-02
    0.33413808356326127162E-02
    0.33392360818869969499E-02
    0.33411331414341092529E-02
    0.33453068843931959772E-02
    0.33493208433939885768E-02
    0.33464069800265548206E-02
    0.33452261632263501599E-02
    0.33596689249708825559E-02
    0.33587038665288922526E-02
    0.33647462458653550413E-02
    0.33632342842945675901E-02
    0.33559241466653141547E-02
    0.33531514630143815711E-02
    0.33472985335284213826E-02
    0.33475260126738523928E-02
    0.33434837668769863510E-02
    0.33447006139732285250E-02
    0.33500756866615077033E-02
    0.33533848810571669462E-02
    0.33530347417520759562E-02
    0.33522554564738289533E-02
    0.33518584812759610186E-02
    0.33527946707572801009E-02
    0.33590937517123204900E-02
    0.33590937517069931542E-02
    0.33527946707501412801E-02
    0.33518584812558455989E-02
    0.33461157648048199358E-02
    0.33447844744544899705E-02
    0.33403759470293620769E-02
    0.33403759470283086661E-02
    0.33447844744655288833E-02
    0.33461157648236317108E-02
    0.33484251801821273906E-02
    0.33484251801789333310E-02
    0.33713165082922039693E-02
    0.33740877841680495114E-02
    0.33846855259152732603E-02
    0.33856727106838378945E-02
    0.33758076844164000563E-02
    0.33752834344359708939E-02
    0.33657815097060434124E-02
    0.33627113760349904709E-02
    0.33551916371399371532E-02
    0.33545207761379097419E-02
    0.33612333327222711048E-02
    0.33622488367549886214E-02
    0.33676637907604401075E-02
    0.33681318417778474163E-02
    0.33752834345249726165E-02
    0.33758076844896353109E-02
    0.33856727107638168867E-02
    0.33846855259786431426E-02
    0.33740877842132616093E-02
    0.33713165083146391481E-02
    0.33622488367657851066E-02
    0.33612333327504287026E-02
    0.33545207761669815390E-02
    0.33551916371791306280E-02
    0.33627113760937177994E-02
    0.33657815097868286174E-02
    0.33681318418334288238E-02
    0.33676637908071544759E-02
    0.34037199320301591426E-02
    0.34063492470005167501E-02
    0.34223214305163524723E-02
    0.34223214305025059095E-02
    0.34063492469754721136E-02
    0.34037199319720298600E-02
    0.33892062399609053890E-02
    0.33860830172821598794E-02
    0.33750085726456484359E-02
    0.33750085726568252592E-02
    0.33860830173075597005E-02
    0.33892062400209129434E-02
    0.33953446291389048281E-02
    0.33953446291315209776E-02
    0.33643466743390661872E-02
    0.33699338869590820048E-02
    0.33791783903402935509E-02
    0.33830604289725786128E-02
    0.33773088520471241346E-02
    0.33817190945011734240E-02
    0.33744410294365380018E-02
    0.33674310732244418579E-02
    0.33601720999595959677E-02
    0.33568151852488106214E-02
    0.33604679338432642301E-02
    0.33578333728350598722E-02
    0.33671665820388780276E-02
    0.33692652591700844589E-02
    0.34003183220608040709E-02
    0.34100790835825448531E-02
    0.34261576638316532627E-02
    0.34328537199882500422E-02
    0.34228156900810617971E-02
    0.34303159400578277748E-02
    0.34177953042153182486E-02
    0.34057363346699500925E-02
    0.33931924497662725726E-02
    0.33873869089113685209E-02
    0.33936750377743917645E-02
    0.33890350232971245235E-02
    0.34052889704007777670E-02
    0.34089209524345103451E-02
    0.33787323944197288246E-02
    0.33841618286105414060E-02
    0.33968431926245930101E-02
    0.33999541870164437345E-02
    0.33898015182965545583E-02
    0.33918820608186055036E-02
    0.33810539153437818571E-02
    0.33750576765510758963E-02
    0.33657626174200656020E-02
    0.33633732609294727037E-02
    0.33699806957803203622E-02
    0.33689328307916223924E-02
    0.33782905297649163355E-02
    0.33798587347764383858E-02
    0.34242405951912359766E-02
    0.34342622409594728526E-02
    0.34565284123314783671E-02
    0.34622596948422892579E-02
    0.34445693666834225309E-02
    0.34482852766081193742E-02
    0.34294285672595080199E-02
    0.34188861601545492315E-02
    0.34027154164301244912E-02
    0.33983926771312370115E-02
    0.34096683205897932410E-02
    0.34073754146420674564E-02
    0.34242555993709367437E-02
    0.34271128260034730388E-02
    0.34627432653092406201E-02
    0.34793302213203800878E-02
    0.35069839694848027427E-02
    0.35179856980494784123E-02
    0.35004857910110489909E-02
    0.35127314965164063883E-02
    0.34915630258483660274E-02
    0.34712505066444398864E-02
    0.34499234678772522714E-02
    0.34400392535153716603E-02
    0.34509470320772525284E-02
    0.34431568975481106551E-02
    0.34708072363511515562E-02
    0.34768782887299302421E-02
    0.35693107300576276501E-02
    0.35962900589476161362E-02
    0.36430765531352471073E-02
    0.36600472121593660701E-02
    0.36297122211419855821E-02
    0.36486103303544053372E-02
    0.36138476125959478197E-02
    0.35807037630229310472E-02
    0.35452847144942676791E-02
    0.35289982241659208391E-02
    0.35477748907711556883E-02
    0.35354158694804243765E-02
    0.35809636179474340495E-02
    0.35906804128787907920E-02
    0.35051428882445587881E-02
    0.35228706731195665904E-02
    0.35623401272849839795E-02
    0.35720795415356853576E-02
    0.35403624514166935448E-02
    0.35459466762782555251E-02
    0.35129819020754357063E-02
    0.34951560290630038705E-02
    0.34670188718409367806E-02
    0.34596279608510209849E-02
    0.34794343693583178016E-02
    0.34753840012155591023E-02
    0.35050300145507053834E-02
    0.35098941547229475096E-02
    0.36482308078468468453E-02
    0.36781331490657446538E-02
    0.37478526131567721849E-02
    0.37627460266939465050E-02
    0.37052609791939595738E-02
    0.37116933206538548808E-02
    0.36544137589696605757E-02
    0.36257530572477263131E-02
    0.35772928564242172794E-02
    0.35654200678915046185E-02
    0.36008853144117816160E-02
    0.35950734731694409738E-02
    0.36452518553910348738E-02
    0.36528664010510784703E-02
    0.34060891306251718687E-02
    0.34120953525046985796E-02
    0.34302167366611988758E-02
    0.34330000841795251833E-02
    0.34168406616914936795E-02
    0.34170562858624460405E-02
    0.34008729585495961305E-02
    0.33947716646176738162E-02
    0.33818409448689410075E-02
    0.33800446485049589519E-02
    0.33907903420684801753E-02
    0.33912951207191038838E-02
    0.34020651947499988034E-02
    0.34033403276732192115E-02
    0.34681160169223019217E-02
    0.34801325154172921099E-02
    0.35120611273516200504E-02
    0.35182078019551032110E-02
    0.34904113835880832932E-02
    0.34917579942613905138E-02
    0.34633889220674406000E-02
    0.34520133622396565430E-02
    0.34293216205674992292E-02
    0.34255556680573215345E-02
    0.34435580331975568918E-02
    0.34430539154278912151E-02
    0.34636171162214495628E-02
    0.34663588996141298307E-02
    0.34530069022432312992E-02
    0.34596649288203928756E-02
    0.34861195532294277435E-02
    0.34882981720270045400E-02
    0.34632354056662326483E-02
    0.34611935836800417944E-02
    0.34371097354063315753E-02
    0.34302106545933239330E-02
    0.34115270150535245350E-02
    0.34102717605296382734E-02
    0.34273429094007373287E-02
    0.34302143096298313291E-02
    0.34432928723664752053E-02
    0.34442346102980005151E-02
    0.35393531532322535654E-02
    0.35541646981913210118E-02
    0.35997736544193378525E-02
    0.36068093506388303540E-02
    0.35654082062087253877E-02
    0.35649925938944790685E-02
    0.35232557409567884232E-02
    0.35091131047279644842E-02
    0.34766153090127439526E-02
    0.34728987510492153115E-02
    0.35003953754269177476E-02
    0.35022403754612287281E-02
    0.35285590374625687600E-02
    0.35314802746412386064E-02
    0.35805744603355188320E-02
    0.36035525526205204085E-02
    0.36611965636108162458E-02
    0.36730473249750482043E-02
    0.36231265098588304532E-02
    0.36255411768958837118E-02
    0.35747443519029867103E-02
    0.35544273850678007563E-02
    0.35140339992052391227E-02
    0.35069864718110382862E-02
    0.35384833100996116069E-02
    0.35364137925803880089E-02
    0.35745821674167282435E-02
    0.35797812359270528293E-02
    0.37864379706543408941E-02
    0.38283834156905061953E-02
    0.39338353001619344798E-02
    0.39541653120923510312E-02
    0.38617952300141751391E-02
    0.38630775375332964371E-02
    0.37713024872849704346E-02
    0.37369488944073042148E-02
    0.36646846666693695324E-02
    0.36527391647741234981E-02
    0.37098489781210125353E-02
    0.37062095637891566587E-02
    0.37750160389208235572E-02
    0.37838768719177036555E-02
    0.36960713813917506383E-02
    0.37273812356574537175E-02
    0.38098110659997765776E-02
    0.38264900663198269000E-02
    0.37537420495340890862E-02
    0.37560213194699327253E-02
    0.36807636361872965100E-02
    0.36532765961706202551E-02
    0.35948073519692196054E-02
    0.35863858610987869868E-02
    0.36331834929771277681E-02
    0.36323181126841140413E-02
    0.36846508623958355508E-02
    0.36914533286409351338E-02
    0.39896398899519945960E-02
    0.40523884918742736003E-02
    0.42063498337182635492E-02
    0.42401557014836426668E-02
    0.41053078167668085804E-02
    0.41096653463722435801E-02
    0.39703563685188304408E-02
    0.39195890127858455318E-02
    0.38121021415560710568E-02
    0.37955851594809104400E-02
    0.38797855481614361255E-02
    0.38742832006276903094E-02
    0.39756159849586329355E-02
    0.39891994575583867091E-02
    0.33817190947047115653E-02
    0.33773088522287973874E-02
    0.33830604291663229390E-02
    0.33791783905152889857E-02
    0.33699338871060590533E-02
    0.33643466744579797467E-02
    0.33578333729344183277E-02
    0.33604679339608893238E-02
    0.33568151853595028927E-02
    0.33601721000850845629E-02
    0.33674310733805994968E-02
    0.33744410296275674857E-02
    0.33692652593252641474E-02
    0.33671665821830652071E-02
    0.33918820610208261224E-02
    0.33898015184856212026E-02
    0.33999541872307085383E-02
    0.33968431928242059058E-02
    0.33841618287686913748E-02
    0.33787323945455405121E-02
    0.33689328308905068347E-02
    0.33699806958971938869E-02
    0.33633732610339741806E-02
    0.33657626175396283819E-02
    0.33750576767011546304E-02
    0.33810539155197825642E-02
    0.33798587349338944652E-02
    0.33782905299128006445E-02
    0.34303159404594778421E-02
    0.34228156904451130342E-02
    0.34328537203794115377E-02
    0.34261576641899083549E-02
    0.34100790838854492561E-02
    0.34003183223154449973E-02
    0.33890350235092981182E-02
    0.33936750380198646773E-02
    0.33873869091398706339E-02
    0.33931924500230905770E-02
    0.34057363349824618277E-02
    0.34177953045914904323E-02
    0.34089209527480685523E-02
    0.34052889706951911322E-02
    0.34482852770278855925E-02
    0.34445693670865575216E-02
    0.34622596953024697627E-02
    0.34565284127700077882E-02
    0.34342622413117002145E-02
    0.34242405954880645105E-02
    0.34073754148781936792E-02
    0.34096683208541238991E-02
    0.33983926773632623479E-02
    0.34027154166883441522E-02
    0.34188861604728462695E-02
    0.34294285676243351120E-02
    0.34271128263430616391E-02
    0.34242555996951448520E-02
    0.34170562860990814046E-02
    0.34168406619080639308E-02
    0.34330000844248168175E-02
    0.34302167368812654623E-02
    0.34120953526758169075E-02
    0.34060891307567545475E-02
    0.33912951208138241224E-02
    0.33907903421902859525E-02
    0.33800446486130231172E-02
    0.33818409449962649402E-02
    0.33947716647865890452E-02
    0.34008729587582707879E-02
    0.34033403278483291381E-02
    0.34020651949115414577E-02
    0.34611935839272719821E-02
    0.34632354058663798388E-02
    0.34882981722412107969E-02
    0.34861195533958241541E-02
    0.34596649289403238504E-02
    0.34530069023023224860E-02
    0.34302143096596616340E-02
    0.34273429094826700532E-02
    0.34102717606130312014E-02
    0.34115270151743666734E-02
    0.34302106547563415359E-02
    0.34371097356298749813E-02
    0.34442346104500936969E-02
    0.34432928724945411660E-02
    0.34917579947939653660E-02
    0.34904113840944117793E-02
    0.35182078025407987655E-02
    0.35120611278933316912E-02
    0.34801325158520949113E-02
    0.34681160172870383746E-02
    0.34430539157060831811E-02
    0.34435580335150125890E-02
    0.34255556683315340448E-02
    0.34293216208736189421E-02
    0.34520133626323645445E-02
    0.34633889225291342173E-02
    0.34663589000345266210E-02
    0.34636171166198305438E-02
    0.35649925945367396188E-02
    0.35654082067885432654E-02
    0.36068093512848075494E-02
    0.35997736549953085472E-02
    0.35541646986404925278E-02
    0.35393531535767041619E-02
    0.35022403757125558990E-02
    0.35003953757562580353E-02
    0.34728987513471293487E-02
    0.34766153093725793780E-02
    0.35091131051869107332E-02
    0.35232557415227831570E-02
    0.35314802751105116643E-02
    0.35285590378938865019E-02
    0.35127314972804540676E-02
    0.35004857917116647716E-02
    0.35179856988046299959E-02
    0.35069839701870118669E-02
    0.34793302219139074852E-02
    0.34627432658191907751E-02
    0.34431568979733351808E-02
    0.34509470325597250973E-02
    0.34400392539624975036E-02
    0.34499234683757727671E-02
    0.34712505072444976503E-02
    0.34915630265624367570E-02
    0.34768782893357546605E-02
    0.34708072369238314805E-02
    0.35459466771102319399E-02
    0.35403624522253613477E-02
    0.35720795424700581625E-02
    0.35623401281798246047E-02
    0.35228706738467964986E-02
    0.35051428888739221031E-02
    0.34753840017204126397E-02
    0.34794343699054352745E-02
    0.34596279613276072033E-02
    0.34670188723603750057E-02
    0.34951560296996764428E-02
    0.35129819027926410813E-02
    0.35098941554098620106E-02
    0.35050300152120695760E-02
    0.36486103317612886276E-02
    0.36297122224546152745E-02
    0.36600472135967748559E-02
    0.36430765544725645169E-02
    0.35962900600782243300E-02
    0.35693107310395327456E-02
    0.35354158703021399020E-02
    0.35477748916878941617E-02
    0.35289982250126094437E-02
    0.35452847154313618314E-02
    0.35807037641413051038E-02
    0.36138476139106136438E-02
    0.35906804140168513580E-02
    0.35809636190288489550E-02
    0.37116933222342100851E-02
    0.37052609807650491863E-02
    0.37627460285309232563E-02
    0.37478526149266775877E-02
    0.36781331505039904436E-02
    0.36482308091160659501E-02
    0.35950734741852720562E-02
    0.36008853154938769668E-02
    0.35654200688247715371E-02
    0.35772928574328566320E-02
    0.36257530584771014218E-02
    0.36544137603382867083E-02
    0.36528664023897988375E-02
    0.36452518566886041307E-02
    0.36255411780006015915E-02
    0.36231265109365412905E-02
    0.36730473262283772420E-02
    0.36611965648004822331E-02
    0.36035525535813269296E-02
    0.35805744611755439301E-02
    0.35364137932298997033E-02
    0.35384833108077690979E-02
    0.35069864724144128414E-02
    0.35140339998626884781E-02
    0.35544273858978620365E-02
    0.35747443528557302367E-02
    0.35797812368307336053E-02
    0.35745821682853702074E-02
    0.37560213209151985074E-02
    0.37537420508888261553E-02
    0.38264900678683885261E-02
    0.38098110674218504078E-02
    0.37273812368008810841E-02
    0.36960713823432885319E-02
    0.36323181134191632156E-02
    0.36331834938252219325E-02
    0.35863858618466930642E-02
    0.35948073528144215520E-02
    0.36532765972334319861E-02
    0.36807636374355696962E-02