# vtk DataFile Version 3.0
LAPLACIEN  2D
ASCII
DATASET UNSTRUCTURED_GRID
FIELD FieldData 1
TIME 1 1 double
14.1000
 POINTS        7297  float
   1.5625000000000000E-002  0.96875000000000000        0.0000000000000000     
   3.1250000000000000E-002  0.96875000000000000        0.0000000000000000     
   3.1250000000000000E-002  0.98437500000000000        0.0000000000000000     
   9.3749999999999997E-003  0.97812500000000002        0.0000000000000000     
   2.0312500000000001E-002  0.97968750000000004        0.0000000000000000     
   2.1874999999999999E-002  0.99062499999999998        0.0000000000000000     
   1.0937499999999999E-002  0.98906249999999996        0.0000000000000000     
   4.6875000000000000E-002  0.96875000000000000        0.0000000000000000     
   6.2500000000000000E-002  0.96875000000000000        0.0000000000000000     
   6.2500000000000000E-002  0.98437500000000000        0.0000000000000000     
   4.0625000000000001E-002  0.97812500000000002        0.0000000000000000     
   5.1562499999999997E-002  0.97968750000000004        0.0000000000000000     
   5.3124999999999999E-002  0.99062499999999998        0.0000000000000000     
   4.2187500000000003E-002  0.98906249999999996        0.0000000000000000     
   1.5625000000000000E-002  0.93750000000000000        0.0000000000000000     
   3.1250000000000000E-002  0.93750000000000000        0.0000000000000000     
   3.1250000000000000E-002  0.95312500000000000        0.0000000000000000     
   9.3749999999999997E-003  0.94687500000000002        0.0000000000000000     
   2.0312500000000001E-002  0.94843750000000004        0.0000000000000000     
   2.1874999999999999E-002  0.95937499999999998        0.0000000000000000     
   1.0937499999999999E-002  0.95781249999999996        0.0000000000000000     
   4.6875000000000000E-002  0.93750000000000000        0.0000000000000000     
   6.2500000000000000E-002  0.93750000000000000        0.0000000000000000     
   6.2500000000000000E-002  0.95312500000000000        0.0000000000000000     
   4.0625000000000001E-002  0.94687500000000002        0.0000000000000000     
   5.1562499999999997E-002  0.94843750000000004        0.0000000000000000     
   5.3124999999999999E-002  0.95937499999999998        0.0000000000000000     
   4.2187500000000003E-002  0.95781249999999996        0.0000000000000000     
   7.8125000000000000E-002  0.96875000000000000        0.0000000000000000     
   9.3750000000000000E-002  0.96875000000000000        0.0000000000000000     
   9.3750000000000000E-002  0.98437500000000000        0.0000000000000000     
   7.1874999999999994E-002  0.97812500000000002        0.0000000000000000     
   8.2812499999999997E-002  0.97968750000000004        0.0000000000000000     
   8.4375000000000006E-002  0.99062499999999998        0.0000000000000000     
   7.3437500000000003E-002  0.98906249999999996        0.0000000000000000     
  0.10937500000000000       0.96875000000000000        0.0000000000000000     
  0.12500000000000000       0.96875000000000000        0.0000000000000000     
  0.12500000000000000       0.98437500000000000        0.0000000000000000     
  0.10312499999999999       0.97812500000000002        0.0000000000000000     
  0.11406250000000000       0.97968750000000004        0.0000000000000000     
  0.11562500000000001       0.99062499999999998        0.0000000000000000     
  0.10468750000000000       0.98906249999999996        0.0000000000000000     
   7.8125000000000000E-002  0.93750000000000000        0.0000000000000000     
   9.3750000000000000E-002  0.93750000000000000        0.0000000000000000     
   9.3750000000000000E-002  0.95312500000000000        0.0000000000000000     
   7.1874999999999994E-002  0.94687500000000002        0.0000000000000000     
   8.2812499999999997E-002  0.94843750000000004        0.0000000000000000     
   8.4375000000000006E-002  0.95937499999999998        0.0000000000000000     
   7.3437500000000003E-002  0.95781249999999996        0.0000000000000000     
  0.10937500000000000       0.93750000000000000        0.0000000000000000     
  0.12500000000000000       0.93750000000000000        0.0000000000000000     
  0.12500000000000000       0.95312500000000000        0.0000000000000000     
  0.10312499999999999       0.94687500000000002        0.0000000000000000     
  0.11406250000000000       0.94843750000000004        0.0000000000000000     
  0.11562500000000001       0.95937499999999998        0.0000000000000000     
  0.10468750000000000       0.95781249999999996        0.0000000000000000     
   1.5625000000000000E-002  0.90625000000000000        0.0000000000000000     
   3.1250000000000000E-002  0.90625000000000000        0.0000000000000000     
   3.1250000000000000E-002  0.92187500000000000        0.0000000000000000     
   9.3749999999999997E-003  0.91562500000000002        0.0000000000000000     
   2.0312500000000001E-002  0.91718750000000004        0.0000000000000000     
   2.1874999999999999E-002  0.92812499999999998        0.0000000000000000     
   1.0937499999999999E-002  0.92656249999999996        0.0000000000000000     
   4.6875000000000000E-002  0.90625000000000000        0.0000000000000000     
   6.2500000000000000E-002  0.90625000000000000        0.0000000000000000     
   6.2500000000000000E-002  0.92187500000000000        0.0000000000000000     
   4.0625000000000001E-002  0.91562500000000002        0.0000000000000000     
   5.1562499999999997E-002  0.91718750000000004        0.0000000000000000     
   5.3124999999999999E-002  0.92812499999999998        0.0000000000000000     
   4.2187500000000003E-002  0.92656249999999996        0.0000000000000000     
   1.5625000000000000E-002  0.87500000000000000        0.0000000000000000     
   3.1250000000000000E-002  0.87500000000000000        0.0000000000000000     
   3.1250000000000000E-002  0.89062500000000000        0.0000000000000000     
   9.3749999999999997E-003  0.88437500000000002        0.0000000000000000     
   2.0312500000000001E-002  0.88593750000000004        0.0000000000000000     
   2.1874999999999999E-002  0.89687499999999998        0.0000000000000000     
   1.0937499999999999E-002  0.89531249999999996        0.0000000000000000     
   4.6875000000000000E-002  0.87500000000000000        0.0000000000000000     
   6.2500000000000000E-002  0.87500000000000000        0.0000000000000000     
   6.2500000000000000E-002  0.89062500000000000        0.0000000000000000     
   4.0625000000000001E-002  0.88437500000000002        0.0000000000000000     
   5.1562499999999997E-002  0.88593750000000004        0.0000000000000000     
   5.3124999999999999E-002  0.89687499999999998        0.0000000000000000     
   4.2187500000000003E-002  0.89531249999999996        0.0000000000000000     
   7.8125000000000000E-002  0.90625000000000000        0.0000000000000000     
   9.3750000000000000E-002  0.90625000000000000        0.0000000000000000     
   9.3750000000000000E-002  0.92187500000000000        0.0000000000000000     
   7.1874999999999994E-002  0.91562500000000002        0.0000000000000000     
   8.2812499999999997E-002  0.91718750000000004        0.0000000000000000     
   8.4375000000000006E-002  0.92812499999999998        0.0000000000000000     
   7.3437500000000003E-002  0.92656249999999996        0.0000000000000000     
  0.10937500000000000       0.90625000000000000        0.0000000000000000     
  0.12500000000000000       0.90625000000000000        0.0000000000000000     
  0.12500000000000000       0.92187500000000000        0.0000000000000000     
  0.10312499999999999       0.91562500000000002        0.0000000000000000     
  0.11406250000000000       0.91718750000000004        0.0000000000000000     
  0.11562500000000001       0.92812499999999998        0.0000000000000000     
  0.10468750000000000       0.92656249999999996        0.0000000000000000     
   7.8125000000000000E-002  0.87500000000000000        0.0000000000000000     
   9.3750000000000000E-002  0.87500000000000000        0.0000000000000000     
   9.3750000000000000E-002  0.89062500000000000        0.0000000000000000     
   7.1874999999999994E-002  0.88437500000000002        0.0000000000000000     
   8.2812499999999997E-002  0.88593750000000004        0.0000000000000000     
   8.4375000000000006E-002  0.89687499999999998        0.0000000000000000     
   7.3437500000000003E-002  0.89531249999999996        0.0000000000000000     
  0.10937500000000000       0.87500000000000000        0.0000000000000000     
  0.12500000000000000       0.87500000000000000        0.0000000000000000     
  0.12500000000000000       0.89062500000000000        0.0000000000000000     
  0.10312499999999999       0.88437500000000002        0.0000000000000000     
  0.11406250000000000       0.88593750000000004        0.0000000000000000     
  0.11562500000000001       0.89687499999999998        0.0000000000000000     
  0.10468750000000000       0.89531249999999996        0.0000000000000000     
  0.14062500000000000       0.96875000000000000        0.0000000000000000     
  0.15625000000000000       0.96875000000000000        0.0000000000000000     
  0.15625000000000000       0.98437500000000000        0.0000000000000000     
  0.13437499999999999       0.97812500000000002        0.0000000000000000     
  0.14531250000000001       0.97968750000000004        0.0000000000000000     
  0.14687500000000001       0.99062499999999998        0.0000000000000000     
  0.13593749999999999       0.98906249999999996        0.0000000000000000     
  0.17187500000000000       0.96875000000000000        0.0000000000000000     
  0.18750000000000000       0.96875000000000000        0.0000000000000000     
  0.18750000000000000       0.98437500000000000        0.0000000000000000     
  0.16562499999999999       0.97812500000000002        0.0000000000000000     
  0.17656250000000001       0.97968750000000004        0.0000000000000000     
[...]
 CELL_DATA       14336
 SCALARS Nutrient float
 LOOKUP_TABLE default
    0.84005484868444162128E-02
    0.84004657881547057513E-02
    0.84011178833568265351E-02
    0.84011178832439723646E-02
    0.84004657886068753031E-02
    0.84005484864560862196E-02
    0.84000319156341818339E-02
    0.83997257902622118192E-02
    0.83993952728193058133E-02
    0.83993952702275612859E-02
    0.83997257915957371233E-02
    0.84000319150782844918E-02
    0.83999839280493263788E-02
    0.83999839276284442996E-02
    0.84026931899238745116E-02
    0.84032644681199340081E-02
    0.84048144773788205364E-02
    0.84052439913210163364E-02
    0.84040818343694839720E-02
    0.84046382559486501607E-02
    0.84034204154975634254E-02
    0.84024071142922689831E-02
    0.84013367059169487272E-02
    0.84009547868023632528E-02
    0.84016201679667952551E-02
    0.84015383213173183002E-02
    0.84025831036829094073E-02
    0.84028117995034699861E-02
    0.84046382560161864150E-02
    0.84040818342977288702E-02
    0.84052439913476582195E-02
    0.84048144773482026670E-02
    0.84032644682289683175E-02
    0.84026931897847514236E-02
    0.84015383215930057592E-02
    0.84016201676955729744E-02
    0.84009547871512491035E-02
    0.84013367055823743451E-02
    0.84024071144629865898E-02
    0.84034204154356355321E-02
    0.84028117995865840573E-02
    0.84025831036411424702E-02
    0.84075146748413664283E-02
    0.84077642569412910228E-02
    0.84101871582992690501E-02
    0.84101871582891226525E-02
    0.84077642569726843136E-02
    0.84075146748058011276E-02
    0.84053668322432474602E-02
    0.84047542843217679098E-02
    0.84031567072272057850E-02
    0.84031567070918505163E-02
    0.84047542844061760847E-02
    0.84053668321856459672E-02
    0.84060723039613947927E-02
    0.84060723039371346849E-02
    0.84084217493681310401E-02
    0.84099649752142902059E-02
    0.84129874427614041721E-02
    0.84141130989622437558E-02
    0.84121136871842649291E-02
    0.84134662782029672606E-02
    0.84110788149935247077E-02
    0.84088629565541583855E-02
    0.84065708036043275408E-02
    0.84056024082181969581E-02
    0.84068252886761798970E-02
    0.84062371997815805991E-02
    0.84089095659945767292E-02
    0.84095185946823358680E-02
    0.84198762574876854364E-02
    0.84229851484254984750E-02
    0.84283241850200280032E-02
    0.84304941668461742116E-02
    0.84271238281702180728E-02
    0.84296236710551340071E-02
    0.84254040223688680955E-02
    0.84213912700694202457E-02
    0.84172189927096772305E-02
    0.84153232277276151380E-02
    0.84174670408671044969E-02
    0.84160511289471506141E-02
    0.84213108888273983943E-02
    0.84224913248550376671E-02
    0.84150237108244728412E-02
    0.84162293687267270004E-02
    0.84204781443943527153E-02
    0.84210444426063794238E-02
    0.84172671095725983686E-02
    0.84174833216823317233E-02
    0.84137579739991634475E-02
    0.84121130216809301972E-02
    0.84090646856138130671E-02
    0.84086053150127151173E-02
    0.84111584135717672867E-02
    0.84114441735796737637E-02
    0.84137799585962333437E-02
    0.84140714192759407525E-02
    0.84292394532047912326E-02
    0.84320123358916400369E-02
    0.84393243349477724269E-02
    0.84408365745735746549E-02
    0.84347913587129244584E-02
    0.84357552623409385456E-02
    0.84294697037051672522E-02
    0.84261611787852051109E-02
    0.84207867677638589821E-02
    0.84195702340286449061E-02
    0.84236129330415871613E-02
    0.84233860894981586048E-02
    0.84283422595486916923E-02
    0.84291214559289572711E-02
    0.84134662782337065606E-02
    0.84121136871872937563E-02
    0.84141130989819710312E-02
    0.84129874427680533672E-02
    0.84099649752459437052E-02
    0.84084217493425456036E-02
    0.84062371998435726772E-02
    0.84068252886360973763E-02
    0.84056024082817901860E-02
    0.84065708035660543368E-02
    0.84088629565936545696E-02
    0.84110788150038376387E-02
    0.84095185947076055849E-02
    0.84089095660011426575E-02
    0.84174833217017935860E-02
    0.84172671095758457710E-02
    0.84210444426219485670E-02
    0.84204781444025909171E-02
    0.84162293687424505340E-02
    0.84150237108152319693E-02
    0.84114441736000463562E-02
    0.84111584135512524468E-02
    0.84086053150503933112E-02
    0.84090646855927916881E-02
    0.84121130217053169398E-02
    0.84137579739988425237E-02
    0.84140714192912600955E-02
    0.84137799585988944095E-02
    0.84296236711132784686E-02
    0.84271238282155984389E-02
    0.84304941668976365182E-02
    0.84283241850628982245E-02
    0.84229851484641793391E-02
    0.84198762575057681939E-02
    0.84160511289746511854E-02
    0.84174670408850849057E-02
    0.84153232277579172876E-02
    0.84172189927321783287E-02
    0.84213912701136886541E-02
    0.84254040224218673671E-02
    0.84224913248962373497E-02
    0.84213108888605125307E-02
    0.84357552623939967978E-02
    0.84347913587585476858E-02
    0.84408365746308847144E-02
    0.84393243349984714552E-02
    0.84320123359303278399E-02
    0.84292394532259548590E-02
    0.84233860895182883360E-02
    0.84236129330581624441E-02
    0.84195702340542910580E-02
    0.84207867677831005349E-02
    0.84261611788224236030E-02
    0.84294697037462403000E-02
    0.84291214559671402695E-02
    0.84283422595813513312E-02
    0.84279468820432964365E-02
    0.84288836947514766962E-02
    0.84351840540346952058E-02
    0.84351840540307920779E-02
    0.84288836947502849412E-02
    0.84279468820308914290E-02
    0.84222040452048754083E-02
    0.84208732499180156961E-02
    0.84164656033593101409E-02
    0.84164656033499148785E-02
    0.84208732499296209961E-02
    0.84222040452114968478E-02
    0.84245139023754606056E-02
    0.84245139023722253463E-02
    0.84474129435672101057E-02
    0.84501858969691211881E-02
    0.84607909889361770234E-02
    0.84617789593012752297E-02
    0.84519063580466968072E-02
    0.84513809390800234689E-02
    0.84418735680001112665E-02
    0.84388026178364838187E-02
    0.84312802922681118201E-02
    0.84306094281729349743E-02
    0.84373244542265551926E-02
    0.84383404833105399301E-02
    0.84437578631959761544E-02
    0.84442261340233991385E-02
    0.84513809391420328943E-02
    0.84519063580981053374E-02
    0.84617789593618344263E-02
    0.84607909889844092749E-02
    0.84501858970034739171E-02
    0.84474129435841843749E-02
    0.84383404833178951576E-02
    0.84373244542428303683E-02
    0.84306094281920811173E-02
    0.84312802922894194285E-02
    0.84388026178768716506E-02
    0.84418735680543890293E-02
    0.84442261340623436805E-02
    0.84437578632281344582E-02
    0.84798430050232794647E-02
    0.84824756873179054523E-02
    0.84984641316445865694E-02
    0.84984641316332848460E-02
    0.84824756872987697176E-02
    0.84798430049780378764E-02
    0.84653160463686941140E-02
    0.84621906672045638098E-02
    0.84511075685905594213E-02
    0.84511075685984905770E-02
    0.84621906672252365095E-02
    0.84653160464160642079E-02
    0.84714605510303742086E-02
    0.84714605510244605363E-02
    0.84404331963026275887E-02
    0.84460224233638310498E-02
    0.84552715487329673655E-02
    0.84591560914129004800E-02
    0.84534002883590586563E-02
    0.84578126251075858022E-02
    0.84505300946734751566E-02
    0.84435171165923219444E-02
    0.84362560782192032999E-02
    0.84328979628414939967E-02
    0.84365526641858243351E-02
    0.84339175446484313664E-02
    0.84432529959977374590E-02
    0.84453528383020594339E-02
    0.84764276856753913852E-02
    0.84861962741449633446E-02
    0.85022904786618679757E-02
    0.85089935807458102340E-02
    0.84989440040219785266E-02
    0.85064511662181832574E-02
    0.84939180297437851669E-02
    0.84818479241789007661E-02
    0.84692937402159849947E-02
    0.84634834090650343935E-02
    0.84697776684141013598E-02
    0.84651341006687936402E-02
    0.84814007533354773827E-02
    0.84850362789772298261E-02
    0.84548308235339545563E-02
    0.84602632095795334000E-02
    0.84729542892676389110E-02
    0.84760680011520782295E-02
    0.84659052192218517408E-02
    0.84679857789544954461E-02
    0.84571495215910071075E-02
    0.84511501335423379333E-02
    0.84418502571528865330E-02
    0.84394603403167966355E-02
    0.84460722567731225108E-02
    0.84450246907357227194E-02
    0.84543866815008951454E-02
    0.84559556461155042234E-02
    0.85003784233643360502E-02
    0.85104100755613188573E-02
    0.85327011837872147881E-02
    0.85384387210283817227E-02
    0.85207262530975179382E-02
    0.85244443718261505433E-02
    0.85055662542472335041E-02
    0.84950140205188925252E-02
    0.84788275215191694079E-02
    0.84745014391302414536E-02
    0.84857893761792670823E-02
    0.84834951344414238905E-02
    0.85003909110163648061E-02
    0.85032507888157665699E-02
    0.85389171980412188756E-02
    0.85555230719306912118E-02
    0.85832118998644506280E-02
    0.85942265668501657133E-02
    0.85767037041361484512E-02
    0.85889641222869732295E-02
    0.85677687881876435361E-02
    0.85474317694649304400E-02
    0.85260800318871284714E-02
    0.85161840731827510853E-02
    0.85271056781262236784E-02
    0.85193070032946686260E-02
    0.85469884840678744808E-02
    0.85530669482715027813E-02
    0.86456204931791586638E-02
    0.86726354108413346300E-02
    0.87194863026111776860E-02
    0.87364793478467671350E-02
    0.87061027366321444565E-02
    0.87250266147510975590E-02
    0.86902158362695981070E-02
    0.86570261584185993764E-02
    0.86215599545290035749E-02
    0.86052514154511504374E-02
    0.86240540679896112580E-02
    0.86116791521128905479E-02
    0.86572870458043928860E-02
    0.86670169734370215708E-02
    0.85813759965009655389E-02
    0.85991250105733312709E-02
    0.86386469759121408546E-02
    0.86483976252498852288E-02
    0.86166374232553057111E-02
    0.86222269795706001777E-02
    0.85892184498834039941E-02
    0.85713709154183036903E-02
    0.85431988928867386157E-02
    0.85357999087970169716E-02
    0.85556321909295088290E-02
    0.85515780964539756664E-02
    0.85812599038580482380E-02
    0.85861295989980938176E-02
    0.87246533642202847569E-02
    0.87545955190512086963E-02
    0.88244117704141689790E-02
    0.88393239989216759039E-02
    0.87817593094297492773E-02
    0.87881990207459206171E-02
    0.87308397421794713134E-02
    0.87021406873851684521E-02
    0.86536139127103353652E-02
    0.86417257701067607539E-02
    0.86772408644800076705E-02
    0.86714228167471419512E-02
    0.87216682080011806444E-02
    0.87292925330890412672E-02
    0.84822134973458526014E-02
    0.84882254535323942157E-02
    0.85063651219032861833E-02
    0.85091517119259812291E-02
    0.84929741135627533077E-02
    0.84931885169794735929E-02
    0.84769891627551417074E-02
    0.84708832885764286103E-02
    0.84579422469193785844E-02
    0.84561449863057164267E-02
    0.84669001026716535913E-02
    0.84674056162901360084E-02
    0.84781845486164575387E-02
    0.84794607869735673378E-02
    0.85443090072541329899E-02
    0.85563395828903206913E-02
    0.85883087161319308922E-02
    0.85944630410234174045E-02
    0.85666296733730856738E-02
    0.85679762965771566474E-02
    0.85395717072076424148E-02
    0.85281834190414958913E-02
    0.85054658304401613289E-02
    0.85016964164503737444E-02
    0.85197203306639941733E-02
    0.85192161568809383898E-02
    0.85398029608991371520E-02
    0.85425478342536116660E-02
    0.85291848905166035844E-02
    0.85358507565493398767E-02
    0.85623379058056905966E-02
    0.85645193526942883094E-02
    0.85394245508327876887E-02
    0.85373792977379535374E-02
    0.85132671906597203598E-02
    0.85063607090291835922E-02
    0.84876571741910444152E-02
    0.84864010501571902206E-02
    0.85034910174080734213E-02
    0.85063658034994701906E-02
    0.85194589181651261128E-02
    0.85204016039587045922E-02
    0.86156413075533823387E-02
    0.86304726525921245800E-02
    0.86761428896483094170E-02
    0.86831881642509267660E-02
    0.86417295207982525174E-02
    0.86413118736586424368E-02
    0.85995189646801851319E-02
    0.85853588897021881898E-02
    0.85528192191307306214E-02
    0.85490985782332006709E-02
    0.85766315400850126616E-02
    0.85784789663255686665E-02
    0.86048317010000534288E-02
    0.86077564971698689034E-02
    0.86569129240961790323E-02
    0.86799215629589608623E-02
    0.87376443116583754622E-02
    0.87495101238322242621E-02
    0.86995197819534787059E-02
    0.87019354030480177559E-02
    0.86510685755129129726E-02
    0.86307264386378014509E-02
    0.85902793642844109401E-02
    0.85832236480742826745E-02
    0.86147637266982771825E-02
    0.86126923509917269195E-02
    0.86509105753013910978E-02
    0.86561159754436779040E-02
    0.88630575440681660937E-02
    0.89050590527472578417E-02
    0.90106554043771994872E-02
    0.90310112892067959112E-02
    0.89385142117769308956E-02
    0.89397959817210347067E-02
    0.88478943892486561218E-02
    0.88134950071372640534E-02
    0.87411311094386361792E-02
    0.87291701793553722055E-02
    0.87863604133413368558E-02
    0.87827179253648808566E-02
    0.88516169650370551264E-02
    0.88604892247533505178E-02
    0.87725741063784980212E-02
    0.88039263296378015428E-02
    0.88864707671751398677E-02
    0.89031712103181288864E-02
    0.88303210964150707224E-02
    0.88326014094908707197E-02
    0.87572391902014431325E-02
    0.87297156184001842294E-02
    0.86711661723224472270E-02
    0.86627338224811653578E-02
    0.87095969281672219048E-02
    0.87087317681395180757E-02
    0.87611352203907054415E-02
    0.87679466343522638461E-02
    0.90665459132230237504E-02
    0.91293762686243153104E-02
    0.92835447059837466338E-02
    0.93173918771729240945E-02
    0.91823631887759677578E-02
    0.91867229760881144451E-02
    0.90472264348140738616E-02
    0.89963918170659611800E-02
    0.88887576112291321467E-02
    0.88722194241519242858E-02
    0.89565372040823071353E-02
    0.89510292825577021658E-02
    0.90524981276607005554E-02
    0.90660988553957731761E-02
    0.84578126252480463620E-02
    0.84534002884813167628E-02
    0.84591560915460838749E-02
    0.84552715488510621356E-02
    0.84460224234604690252E-02
    0.84404331963759317986E-02
    0.84339175447074553327E-02
    0.84365526642569098337E-02
    0.84328979629092557652E-02
    0.84362560782966326822E-02
    0.84435171166962006556E-02
    0.84505300948054650617E-02
    0.84453528384041756660E-02
    0.84432529960908209860E-02
    0.84679857790974522730E-02
    0.84659052193567941452E-02
    0.84760680013124256593E-02
    0.84729542894177792278E-02
    0.84602632096939661688E-02
    0.84548308236221895312E-02
    0.84450246908005493357E-02
    0.84460722568488501294E-02
    0.84394603403825218385E-02
    0.84418502572277918927E-02
    0.84511501336437238469E-02
    0.84571495217108990511E-02
    0.84559556462249999692E-02
    0.84543866816032577083E-02
    0.85064511665292209114E-02
    0.84989440043000668429E-02
    0.85089935810490641838E-02
    0.85022904789368580758E-02
    0.84861962743718270114E-02
    0.84764276858607778137E-02
    0.84651341008165383040E-02
    0.84697776685896189464E-02
    0.84634834092265232713E-02
    0.84692937404010747854E-02
    0.84818479244134440537E-02
    0.84939180300345525770E-02
    0.84850362792119812805E-02
    0.84814007535536969223E-02
    0.85244443721591983687E-02
    0.85207262534199926240E-02
    0.85384387214075350286E-02
    0.85327011841498223016E-02
    0.85104100758443719521E-02
    0.85003784235997380259E-02
    0.84834951346196597888E-02
    0.84857893763790152863E-02
    0.84745014392992625007E-02
    0.84788275217089308089E-02
    0.84950140207628952599E-02
    0.85055662545295632193E-02
    0.85032507890816805968E-02
    0.85003909112699189282E-02
    0.84931885171660240208E-02
    0.84929741137358769759E-02
    0.85091517121293220455E-02
    0.85063651220864990032E-02
    0.84882254536717601651E-02
    0.84822134974530654511E-02
    0.84674056163621721355E-02
    0.84669001027633267881E-02
    0.84561449863838344942E-02
    0.84579422470106579990E-02
    0.84708832887056013244E-02
    0.84769891629161066987E-02
    0.84794607871109782538E-02
    0.84781845487432467429E-02
    0.85373792979494093902E-02
    0.85394245510052313453E-02
    0.85645193528833575558E-02
    0.85623379059530518864E-02
    0.85358507566545248346E-02
    0.85291848905694276489E-02
    0.85063658035232688620E-02
    0.85034910174758195772E-02
    0.84864010502248201501E-02
    0.84876571742896530365E-02
    0.85063607091665979776E-02
    0.85132671908491591023E-02
    0.85204016040884775207E-02
    0.85194589182744015488E-02
    0.85679762970322231874E-02
    0.85666296738095230184E-02
    0.85944630415400007084E-02
    0.85883087166106694688E-02
    0.85563395832680654018E-02
    0.85443090075706228798E-02
    0.85192161571129923492E-02
    0.85197203309276183653E-02
    0.85016964166708883233E-02
    0.85054658306863133860E-02
    0.85281834193690151530E-02
    0.85395717075953826020E-02
    0.85425478346107617394E-02
    0.85398029612377863995E-02
    0.86413118742380799764E-02
    0.86417295213239066903E-02
    0.86831881648451337413E-02
    0.86761428901787999990E-02
    0.86304726530014828911E-02
    0.86156413078674921879E-02
    0.85784789665477312326E-02
    0.85766315403763559999E-02
    0.85490985784919641677E-02
    0.85528192194442870938E-02
    0.85853588901102888264E-02
    0.85995189651857303903E-02
    0.86077564975914552803E-02
    0.86048317013876149395E-02
    0.85889641229287168323E-02
    0.85767037047198204508E-02
    0.85942265674860442159E-02
    0.85832119004524976003E-02
    0.85555230724184121865E-02
    0.85389171984532555998E-02
    0.85193070036275273665E-02
    0.85271056785102827824E-02
    0.85161840735346640285E-02
    0.85260800322852995509E-02
    0.85474317699571113888E-02
    0.85677687887854916959E-02
    0.85530669487685444252E-02
    0.85469884845347319363E-02
    0.86222269802842220476E-02
    0.86166374239524858719E-02
    0.86483976260717295576E-02
    0.86386469767006229814E-02
    0.85991250112016741347E-02
    0.85813759970404523969E-02
    0.85515780968729773054E-02
    0.85556321913836646392E-02
    0.85357999091823736487E-02
    0.85431988933091247002E-02
    0.85713709159508464502E-02
    0.85892184504874052181E-02
    0.85861295995813980558E-02
    0.85812599044192573033E-02
    0.87250266160006900024E-02
    0.87061027377929676302E-02
    0.87364793491295656552E-02
    0.87194863037999385813E-02
    0.86726354118323665393E-02
    0.86456204940304360457E-02
    0.86116791528101262199E-02
    0.86240540687752866023E-02
    0.86052514161703615864E-02
    0.86215599553329178018E-02
    0.86570261593952972656E-02
    0.86902158374332922480E-02
    0.86670169744323746763E-02
    0.86572870467463997751E-02
    0.87881990221726352663E-02
    0.87817593108546962433E-02
    0.88393240006113867752E-02
    0.88244117720431419771E-02
    0.87545955203571258763E-02
    0.87246533653668866676E-02
    0.86714228176453644198E-02
    0.86772408654365931757E-02
    0.86417257709166563073E-02
    0.86536139135890977059E-02
    0.87021406884767379952E-02
    0.87308397434001060178E-02
    0.87292925342903632951E-02
    0.87216682091651488717E-02
    0.87019354040440005660E-02
    0.86995197829305478260E-02
    0.87495101249856228193E-02
    0.87376443127543789585E-02
    0.86799215638333170053E-02
    0.86569129248594452186E-02
    0.86126923515675267440E-02
    0.86147637273242920475E-02
    0.85832236485960684141E-02
    0.85902793648532614623E-02
    0.86307264393730605267E-02
    0.86510685763609394827E-02
    0.86561159762543696955E-02
    0.86509105760809446029E-02
    0.88326014108419600990E-02
    0.88303210976853011710E-02
    0.89031712117837273623E-02
    0.88864707685219392758E-02
    0.88039263307120568108E-02
    0.87725741072716967306E-02
    0.87087317688176995450E-02
    0.87095969289492300436E-02
    0.86627338231619506470E-02
    0.86711661730931536424E-02
    0.87297156193826466047E-02
    0.87572391913590588025E-02