# vtk DataFile Version 3.0
LAPLACIEN  2D
ASCII
DATASET UNSTRUCTURED_GRID
FIELD FieldData 1
TIME 1 1 double
2.6000
 POINTS        7297  float
   1.5625000000000000E-002  0.96875000000000000        0.0000000000000000     
   3.1250000000000000E-002  0.96875000000000000        0.0000000000000000     
   3.1250000000000000E-002  0.98437500000000000        0.0000000000000000     
   9.3749999999999997E-003  0.97812500000000002        0.0000000000000000     
   2.0312500000000001E-002  0.97968750000000004        0.0000000000000000     
   2.1874999999999999E-002  0.99062499999999998        0.0000000000000000     
   1.0937499999999999E-002  0.98906249999999996        0.0000000000000000     
   4.6875000000000000E-002  0.96875000000000000        0.0000000000000000     
   6.2500000000000000E-002  0.96875000000000000        0.0000000000000000     
   6.2500000000000000E-002  0.98437500000000000        0.0000000000000000     
   4.0625000000000001E-002  0.97812500000000002        0.0000000000000000     
   5.1562499999999997E-002  0.97968750000000004        0.0000000000000000     
   5.3124999999999999E-002  0.99062499999999998        0.0000000000000000     
   4.2187500000000003E-002  0.98906249999999996        0.0000000000000000     
   1.5625000000000000E-002  0.93750000000000000        0.0000000000000000     
   3.1250000000000000E-002  0.93750000000000000        0.0000000000000000     
   3.1250000000000000E-002  0.95312500000000000        0.0000000000000000     
   9.3749999999999997E-003  0.94687500000000002        0.0000000000000000     
   2.0312500000000001E-002  0.94843750000000004        0.0000000000000000     
   2.1874999999999999E-002  0.95937499999999998        0.0000000000000000     
   1.0937499999999999E-002  0.95781249999999996        0.0000000000000000     
   4.6875000000000000E-002  0.93750000000000000        0.0000000000000000     
   6.2500000000000000E-002  0.93750000000000000        0.0000000000000000     
   6.2500000000000000E-002  0.95312500000000000        0.0000000000000000     
   4.0625000000000001E-002  0.94687500000000002        0.0000000000000000     
   5.1562499999999997E-002  0.94843750000000004        0.0000000000000000     
   5.3124999999999999E-002  0.95937499999999998        0.0000000000000000     
   4.2187500000000003E-002  0.95781249999999996        0.0000000000000000     
   7.8125000000000000E-002  0.96875000000000000        0.0000000000000000     
   9.3750000000000000E-002  0.96875000000000000        0.0000000000000000     
   9.3750000000000000E-002  0.98437500000000000        0.0000000000000000     
   7.1874999999999994E-002  0.97812500000000002        0.0000000000000000     
   8.2812499999999997E-002  0.97968750000000004        0.0000000000000000     
   8.4375000000000006E-002  0.99062499999999998        0.0000000000000000     
   7.3437500000000003E-002  0.98906249999999996        0.0000000000000000     
  0.10937500000000000       0.96875000000000000        0.0000000000000000     
  0.12500000000000000       0.96875000000000000        0.0000000000000000     
  0.12500000000000000       0.98437500000000000        0.0000000000000000     
  0.10312499999999999       0.97812500000000002        0.0000000000000000     
  0.11406250000000000       0.97968750000000004        0.0000000000000000     
  0.11562500000000001       0.99062499999999998        0.0000000000000000     
  0.10468750000000000       0.98906249999999996        0.0000000000000000     
   7.8125000000000000E-002  0.93750000000000000        0.0000000000000000     
   9.3750000000000000E-002  0.93750000000000000        0.0000000000000000     
   9.3750000000000000E-002  0.95312500000000000        0.0000000000000000     
   7.1874999999999994E-002  0.94687500000000002        0.0000000000000000     
   8.2812499999999997E-002  0.94843750000000004        0.0000000000000000     
   8.4375000000000006E-002  0.95937499999999998        0.0000000000000000     
   7.3437500000000003E-002  0.95781249999999996        0.0000000000000000     
  0.10937500000000000       0.93750000000000000        0.0000000000000000     
  0.12500000000000000       0.93750000000000000        0.0000000000000000     
  0.12500000000000000       0.95312500000000000        0.0000000000000000     
  0.10312499999999999       0.94687500000000002        0.0000000000000000     
  0.11406250000000000       0.94843750000000004        0.0000000000000000     
  0.11562500000000001       0.95937499999999998        0.0000000000000000     
  0.10468750000000000       0.95781249999999996        0.0000000000000000     
   1.5625000000000000E-002  0.90625000000000000        0.0000000000000000     
   3.1250000000000000E-002  0.90625000000000000        0.0000000000000000     
   3.1250000000000000E-002  0.92187500000000000        0.0000000000000000     
   9.3749999999999997E-003  0.91562500000000002        0.0000000000000000     
   2.0312500000000001E-002  0.91718750000000004        0.0000000000000000     
   2.1874999999999999E-002  0.92812499999999998        0.0000000000000000     
   1.0937499999999999E-002  0.92656249999999996        0.0000000000000000     
   4.6875000000000000E-002  0.90625000000000000        0.0000000000000000     
   6.2500000000000000E-002  0.90625000000000000        0.0000000000000000     
   6.2500000000000000E-002  0.92187500000000000        0.0000000000000000     
   4.0625000000000001E-002  0.91562500000000002        0.0000000000000000     
   5.1562499999999997E-002  0.91718750000000004        0.0000000000000000     
   5.3124999999999999E-002  0.92812499999999998        0.0000000000000000     
   4.2187500000000003E-002  0.92656249999999996        0.0000000000000000     
   1.5625000000000000E-002  0.87500000000000000        0.0000000000000000     
   3.1250000000000000E-002  0.87500000000000000        0.0000000000000000     
   3.1250000000000000E-002  0.89062500000000000        0.0000000000000000     
   9.3749999999999997E-003  0.88437500000000002        0.0000000000000000     
   2.0312500000000001E-002  0.88593750000000004        0.0000000000000000     
   2.1874999999999999E-002  0.89687499999999998        0.0000000000000000     
   1.0937499999999999E-002  0.89531249999999996        0.0000000000000000     
   4.6875000000000000E-002  0.87500000000000000        0.0000000000000000     
   6.2500000000000000E-002  0.87500000000000000        0.0000000000000000     
   6.2500000000000000E-002  0.89062500000000000        0.0000000000000000     
   4.0625000000000001E-002  0.88437500000000002        0.0000000000000000     
   5.1562499999999997E-002  0.88593750000000004        0.0000000000000000     
   5.3124999999999999E-002  0.89687499999999998        0.0000000000000000     
   4.2187500000000003E-002  0.89531249999999996        0.0000000000000000     
   7.8125000000000000E-002  0.90625000000000000        0.0000000000000000     
   9.3750000000000000E-002  0.90625000000000000        0.0000000000000000     
   9.3750000000000000E-002  0.92187500000000000        0.0000000000000000     
   7.1874999999999994E-002  0.91562500000000002        0.0000000000000000     
   8.2812499999999997E-002  0.91718750000000004        0.0000000000000000     
   8.4375000000000006E-002  0.92812499999999998        0.0000000000000000     
   7.3437500000000003E-002  0.92656249999999996        0.0000000000000000     
  0.10937500000000000       0.90625000000000000        0.0000000000000000     
  0.12500000000000000       0.90625000000000000        0.0000000000000000     
  0.12500000000000000       0.92187500000000000        0.0000000000000000     
  0.10312499999999999       0.91562500000000002        0.0000000000000000     
  0.11406250000000000       0.91718750000000004        0.0000000000000000     
  0.11562500000000001       0.92812499999999998        0.0000000000000000     
  0.10468750000000000       0.92656249999999996        0.0000000000000000     
   7.8125000000000000E-002  0.87500000000000000        0.0000000000000000     
   9.3750000000000000E-002  0.87500000000000000        0.0000000000000000     
   9.3750000000000000E-002  0.89062500000000000        0.0000000000000000     
   7.1874999999999994E-002  0.88437500000000002        0.0000000000000000     
   8.2812499999999997E-002  0.88593750000000004        0.0000000000000000     
   8.4375000000000006E-002  0.89687499999999998        0.0000000000000000     
   7.3437500000000003E-002  0.89531249999999996        0.0000000000000000     
  0.10937500000000000       0.87500000000000000        0.0000000000000000     
  0.12500000000000000       0.87500000000000000        0.0000000000000000     
  0.12500000000000000       0.89062500000000000        0.0000000000000000     
  0.10312499999999999       0.88437500000000002        0.0000000000000000     
  0.11406250000000000       0.88593750000000004        0.0000000000000000     
  0.11562500000000001       0.89687499999999998        0.0000000000000000     
  0.10468750000000000       0.89531249999999996        0.0000000000000000     
  0.14062500000000000       0.96875000000000000        0.0000000000000000     
  0.15625000000000000       0.96875000000000000        0.0000000000000000     
  0.15625000000000000       0.98437500000000000        0.0000000000000000     
  0.13437499999999999       0.97812500000000002        0.0000000000000000     
  0.14531250000000001       0.97968750000000004        0.0000000000000000     
  0.14687500000000001       0.99062499999999998        0.0000000000000000     
  0.13593749999999999       0.98906249999999996        0.0000000000000000     
  0.17187500000000000       0.96875000000000000        0.0000000000000000     
  0.18750000000000000       0.96875000000000000        0.0000000000000000     
  0.18750000000000000       0.98437500000000000        0.0000000000000000     
  0.16562499999999999       0.97812500000000002        0.0000000000000000     
  0.17656250000000001       0.97968750000000004        0.0000000000000000     
[...]
 CELL_DATA       14336
 SCALARS Nutrient float
 LOOKUP_TABLE default
    0.25832532339979796115E-02
    0.25831213576328147102E-02
    0.25840322120226008606E-02
    0.25840322119875074047E-02
    0.25831213577636349780E-02
    0.25832532338739052497E-02
    0.25825172375382125095E-02
    0.25820831881682246994E-02
    0.25816143403708802229E-02
    0.25816143396021492239E-02
    0.25820831885671360721E-02
    0.25825172373810361542E-02
    0.25824461543393168947E-02
    0.25824461542133208929E-02
    0.25861914165517564668E-02
    0.25869732703584892922E-02
    0.25890506568397634278E-02
    0.25896328395067329253E-02
    0.25881001971781772940E-02
    0.25888681740897389640E-02
    0.25872286532875551392E-02
    0.25858341878911912833E-02
    0.25843568214382120485E-02
    0.25838071950407630849E-02
    0.25847366411764168860E-02
    0.25846094698273392246E-02
    0.25860586107386393691E-02
    0.25863834242803125305E-02
    0.25888681741367274187E-02
    0.25881001971774699605E-02
    0.25896328395337950452E-02
    0.25890506568448036669E-02
    0.25869732704018508739E-02
    0.25861914165150622948E-02
    0.25846094699134617399E-02
    0.25847366411053981743E-02
    0.25838071951533054388E-02
    0.25843568213519988938E-02
    0.25858341879596603852E-02
    0.25872286532950070775E-02
    0.25863834243212329225E-02
    0.25860586107392864209E-02
    0.25925387457226703805E-02
    0.25928333785663103608E-02
    0.25958956947625851097E-02
    0.25958956947569940960E-02
    0.25928333785698938659E-02
    0.25925387456981843250E-02
    0.25897597388510463882E-02
    0.25889383001586750883E-02
    0.25868129066420574025E-02
    0.25868129066040123146E-02
    0.25889383001889390741E-02
    0.25897597388463370477E-02
    0.25906556079590965617E-02
    0.25906556079503830457E-02
    0.25937504772524729198E-02
    0.25957438263953182440E-02
    0.25995442002985451845E-02
    0.26009671880380925112E-02
    0.25984916560245008635E-02
    0.26002060452239876207E-02
    0.25972095523016935914E-02
    0.25943780767079633806E-02
    0.25914215631020814587E-02
    0.25901392577630574093E-02
    0.25917323904899552782E-02
    0.25909395043529873277E-02
    0.25944226043113785898E-02
    0.25952109247501754449E-02
    0.26079926627582718235E-02
    0.26117667561242545286E-02
    0.26181069382723012526E-02
    0.26207000026734748356E-02
    0.26167615569459468268E-02
    0.26197563638049045989E-02
    0.26147624046907219815E-02
    0.26099257005194696074E-02
    0.26048581766401654285E-02
    0.26025146943883534570E-02
    0.26051261116139816550E-02
    0.26033579543499616241E-02
    0.26097975752832568673E-02
    0.26112323902545060174E-02
    0.26018750002852098109E-02
    0.26033650336518142539E-02
    0.26085042872256596937E-02
    0.26092139377790887420E-02
    0.26046927927457553566E-02
    0.26050173977668822020E-02
    0.26004728338807053117E-02
    0.25983830496866364319E-02
    0.25945514861105425063E-02
    0.25939418785349672124E-02
    0.25971317002464297703E-02
    0.25974647013288732975E-02
    0.26003971898976604819E-02
    0.26007741777235950965E-02
    0.26188733370544380399E-02
    0.26221453268306699376E-02
    0.26305701753999233619E-02
    0.26323510856849853708E-02
    0.26254717416418719284E-02
    0.26266790432117651487E-02
    0.26194101495615870409E-02
    0.26154473535621495205E-02
    0.26090614779764602534E-02
    0.26075564148479598268E-02
    0.26123356866050817353E-02
    0.26120071814448252677E-02
    0.26179279484875336674E-02
    0.26188700995562995411E-02
    0.26002060452928882350E-02
    0.25984916560761674338E-02
    0.26009671880956762233E-02
    0.25995442003447096456E-02
    0.25957438264411756591E-02
    0.25937504772710123432E-02
    0.25909395043932706426E-02
    0.25917323905086265406E-02
    0.25901392578134038551E-02
    0.25914215631261902119E-02
    0.25943780767641584466E-02
    0.25972095523606273521E-02
    0.25952109248000838730E-02
    0.25944226043520569880E-02
    0.26050173978185231852E-02
    0.26046927927832019649E-02
    0.26092139378204259013E-02
    0.26085042872567836686E-02
    0.26033650336768545536E-02
    0.26018750002901923704E-02
    0.25974647013398571328E-02
    0.25971317002561906256E-02
    0.25939418785638156638E-02
    0.25945514861286465141E-02
    0.25983830497249508357E-02
    0.26004728339222788272E-02
    0.26007741777563713956E-02
    0.26003971899220511277E-02
    0.26197563639451253333E-02
    0.26167615570684516976E-02
    0.26207000028023981833E-02
    0.26181069383866173612E-02
    0.26117667562212750106E-02
    0.26079926628315344000E-02
    0.26033579544158347123E-02
    0.26051261116904391585E-02
    0.26025146944641704139E-02
    0.26048581767240406096E-02
    0.26099257006267457745E-02
    0.26147624048212087487E-02
    0.26112323903600327159E-02
    0.26097975753791575852E-02
    0.26266790433386293796E-02
    0.26254717417534254899E-02
    0.26323510858066714521E-02
    0.26305701755074822890E-02
    0.26221453269156267188E-02
    0.26188733371132881002E-02
    0.26120071814934404594E-02
    0.26123356866677113243E-02
    0.26075564149103292073E-02
    0.26090614780482287993E-02
    0.26154473536548110760E-02
    0.26194101496732073893E-02
    0.26188700996486562189E-02
    0.26179279485711724924E-02
    0.26173026714478037774E-02
    0.26183699718344121549E-02
    0.26256642258390737801E-02
    0.26256642258316990370E-02
    0.26183699718230163227E-02
    0.26173026714186721324E-02
    0.26105411681011875605E-02
    0.26089281419898390987E-02
    0.26036284420812827976E-02
    0.26036284420828006807E-02
    0.26089281420040065854E-02
    0.26105411681295090896E-02
    0.26132452329609536304E-02
    0.26132452329567915951E-02
    0.26395414233304336643E-02
    0.26426592728678015981E-02
    0.26544775951387361741E-02
    0.26555908973529551709E-02
    0.26446370045594179768E-02
    0.26441164000957973791E-02
    0.26334281267176716697E-02
    0.26298663394764961940E-02
    0.26212246158310256207E-02
    0.26204161352642862948E-02
    0.26281214128745138472E-02
    0.26292706171034906613E-02
    0.26354492459064599030E-02
    0.26359943883565309722E-02
    0.26441164002140209524E-02
    0.26446370046555142848E-02
    0.26555908974546112676E-02
    0.26544775952184649324E-02
    0.26426592729254802863E-02
    0.26395414233584615915E-02
    0.26292706171185719136E-02
    0.26281214129136401016E-02
    0.26204161353050015558E-02
    0.26212246158868624663E-02
    0.26298663395555072105E-02
    0.26334281268260793102E-02
    0.26359943884301504681E-02
    0.26354492459683864954E-02
    0.26753336593551470951E-02
    0.26781747075377065545E-02
    0.26954610586223393121E-02
    0.26954610586052739699E-02
    0.26781747075064273218E-02
    0.26753336592826269802E-02
    0.26594494497589110313E-02
    0.26559826121675001592E-02
    0.26436847860555568943E-02
    0.26436847860696588951E-02
    0.26559826121987234471E-02
    0.26594494498329420903E-02
    0.26661726817702523055E-02
    0.26661726817611103128E-02
    0.26321792972072315976E-02
    0.26386147870622973441E-02
    0.26490503843232971609E-02
    0.26534600475115258100E-02
    0.26470621104980160583E-02
    0.26520785389123288124E-02
    0.26438872200179627629E-02
    0.26358775591839903561E-02
    0.26275277367523689094E-02
    0.26236052046475664620E-02
    0.26278120924586377376E-02
    0.26246976321979286102E-02
    0.26355266887409848318E-02
    0.26379447533674943958E-02
    0.26724910251563131595E-02
    0.26832457744694307618E-02
    0.27006630498511456293E-02
    0.27079659189127970945E-02
    0.26972225917987016110E-02
    0.27054132320725910073E-02
    0.26918747117729590647E-02
    0.26786789111972746265E-02
    0.26648887271084305620E-02
    0.26584210357567150847E-02
    0.26653339120944635234E-02
    0.26601099316692264872E-02
    0.26781146734299499275E-02
    0.26821173653016634059E-02
    0.26480848571972031777E-02
    0.26541977322432608842E-02
    0.26681840548304206796E-02
    0.26716686407547941481E-02
    0.26606012075813313157E-02
    0.26630356859316012437E-02
    0.26510840099828263637E-02
    0.26442570577422087018E-02
    0.26337541643555871691E-02
    0.26309571989169794164E-02
    0.26383894574577917980E-02
    0.26371120693605689875E-02
    0.26477517381946241888E-02
    0.26495483155850397053E-02
    0.26979326247312069784E-02
    0.27087831248073920495E-02
    0.27325014752649290015E-02
    0.27386855266225413989E-02
    0.27200218023569009557E-02
    0.27241759459336310246E-02
    0.27040917271520794815E-02
    0.26925812234842531195E-02
    0.26750471820163909502E-02
    0.26702205069150750788E-02
    0.26823914202189279125E-02
    0.26797650034550840603E-02
    0.26981818452173752729E-02
    0.27013187361498145790E-02
    0.27397966698180396469E-02
    0.27574788922394358193E-02
    0.27865700386786457221E-02
    0.27982292302113596916E-02
    0.27799865028664198612E-02
    0.27929759215444198255E-02
    0.27707236537123326389E-02
    0.27491825234364692700E-02
    0.27265014807023547558E-02
    0.27158854854034200632E-02
    0.27274685231898367598E-02
    0.27190189271592730968E-02
    0.27486015458552726966E-02
    0.27550783955828592187E-02
    0.28515941633401346508E-02
    0.28797216042170527099E-02
    0.29279912248986713144E-02
    0.29456391763065846792E-02
    0.29145471637084543158E-02
    0.29342092880345603013E-02
    0.28983382631699683256E-02
    0.28639233409440204015E-02
    0.28270948054693839473E-02
    0.28100364931226513507E-02
    0.28295167564284249076E-02
    0.28164543220400707450E-02
    0.28640349427990277609E-02
    0.28741749863430495100E-02
    0.27837134331851936045E-02
    0.28023711770934819215E-02
    0.28433906334821624530E-02
    0.28536334101217759006E-02
    0.28209063192083938532E-02
    0.28269824350270669061E-02
    0.27927252445675903800E-02
    0.27738392308811446636E-02
    0.27442312953310575400E-02
    0.27362668523584141034E-02
    0.27570186462847847721E-02
    0.27525592204944784869E-02
    0.27839229467768651129E-02
    0.27891018729837525544E-02
    0.29320263362400122986E-02
    0.29629110516242833373E-02
    0.30342244431993282278E-02
    0.30496411144755068354E-02
    0.29911338662203597501E-02
    0.29980792853602756219E-02
    0.29394846922758798707E-02
    0.29097207122146958279E-02
    0.28597350564180008814E-02
    0.28472486560998711870E-02
    0.28836864712613609861E-02
    0.28774213008965960660E-02
    0.29294174668887187907E-02
    0.29373643418070492783E-02
    0.26779445948421371632E-02
    0.26844813200560583254E-02
    0.27040133259977061631E-02
    0.27070273599840346396E-02
    0.26897014289466634161E-02
    0.26900323718365795091E-02
    0.26725242813844768235E-02
    0.26657543107302433989E-02
    0.26515046389163914216E-02
    0.26494514890151562095E-02
    0.26612775428700055462E-02
    0.26617875876521713760E-02
    0.26736392888239150951E-02
    0.26750569389623790779E-02
    0.27443098595272947225E-02
    0.27570020341454934409E-02
    0.27904877521822257086E-02
    0.27969440654474699189E-02
    0.27679231005293806513E-02
    0.27694692306641458673E-02
    0.27396719657060680103E-02
    0.27274906643936494208E-02
    0.27033249263342194052E-02
    0.26992058749272973724E-02
    0.27183587672274609620E-02
    0.27177559950742995187E-02
    0.27396549852413548676E-02
    0.27425904998846974830E-02
    0.27282506070947952145E-02
    0.27353042680030139125E-02
    0.27632626045771555359E-02
    0.27655457061073404623E-02
    0.27390915711648770349E-02
    0.27369495670662262465E-02
    0.27113571216115582400E-02
    0.27039376211241300009E-02
    0.26838338971986439897E-02
    0.26824594203217967843E-02
    0.27008414200579444232E-02
    0.27039279341733186285E-02
    0.27179091055538253524E-02
    0.27189162477723803450E-02
    0.28189332319272859990E-02
    0.28342850846093869607E-02
    0.28815435491414478908E-02
    0.28887623154260706933E-02
    0.28459124011032065592E-02
    0.28454806335833707220E-02
    0.28021326032413502484E-02
    0.27873327950244321423E-02
    0.27532605407236863081E-02
    0.27493286806182406883E-02
    0.27782058623396824713E-02
    0.27801622020245499514E-02
    0.28076370025174792605E-02
    0.28106747379443961128E-02
    0.28616431662474794105E-02
    0.28853972397549741691E-02
    0.29446949427234603638E-02
    0.29569054992998151585E-02
    0.29057247554959996817E-02
    0.29083926427983550038E-02
    0.28561040386132817773E-02
    0.28348895133760696786E-02
    0.27929156264542395922E-02
    0.27854455444139736460E-02
    0.28181422627491349922E-02
    0.28158986854166425523E-02
    0.28555829822345282602E-02
    0.28610107826740698543E-02
    0.30727227556653852539E-02
    0.31154955550624593465E-02
    0.32226423916501233113E-02
    0.32433515312797331007E-02
    0.31497117678714590429E-02
    0.31512686758246753402E-02
    0.30579816706958243798E-02
    0.30226880669885864902E-02
    0.29487903675804744835E-02
    0.29363823870281881116E-02
    0.29947178436477467529E-02
    0.29908601678669127777E-02
    0.30612809663549418043E-02
    0.30703878723872821480E-02
    0.29805210234241973424E-02
    0.30124706336552261113E-02
    0.30966447046252027625E-02
    0.31135562701907547149E-02
    0.30393254512666389132E-02
    0.30416418050851763526E-02
    0.29647109765826369816E-02
    0.29364759215755008304E-02
    0.28763269287557179620E-02
    0.28676210477645057775E-02
    0.29158478665130323909E-02
    0.29150186136903837898E-02
    0.29686862195051964657E-02
    0.29756398484212780858E-02
    0.32792935232981248496E-02
    0.33427313535306733133E-02
    0.34984747866894762638E-02
    0.35325312717815501688E-02
    0.33961934204162127354E-02
    0.34006088788577390307E-02
    0.32596098492789680155E-02
    0.32080534734937270723E-02
    0.30988365172855895750E-02
    0.30819957519726483459E-02
    0.31676493866244275974E-02
    0.31621397322637474769E-02
    0.32649026971818483588E-02
    0.32786541929184587554E-02
    0.26520785391860985346E-02
    0.26470621107445566934E-02
    0.26534600477722417380E-02
    0.26490503845602031419E-02
    0.26386147872642642595E-02
    0.26321792973738634969E-02
    0.26246976323403771632E-02
    0.26278120926249595550E-02
    0.26236052048046322287E-02
    0.26275277369286181156E-02
    0.26358775593977924225E-02
    0.26438872202742768301E-02
    0.26379447535805839245E-02
    0.26355266889403405547E-02
    0.26630356861993315261E-02
    0.26606012078296188174E-02
    0.26716686410293952365E-02
    0.26681840550848144079E-02
    0.26541977324496509108E-02
    0.26480848573631971324E-02
    0.26371120694960248701E-02
    0.26383894576177007764E-02
    0.26309571990631988245E-02
    0.26337541645220217436E-02
    0.26442570579454042351E-02
    0.26510840102198672194E-02
    0.26495483157949095872E-02
    0.26477517383918505386E-02
    0.27054132325792898568E-02
    0.26972225922612400387E-02
    0.27079659194054052189E-02
    0.27006630503046431119E-02
    0.26832457748588453908E-02
    0.26724910254883123446E-02
    0.26601099319528962762E-02
    0.26653339124179842475E-02
    0.26584210360602739120E-02
    0.26648887274456230755E-02
    0.26786789115990352825E-02
    0.26918747122476639755E-02
    0.26821173657049991908E-02
    0.26781146738107364756E-02
    0.27241759464536920154E-02
    0.27200218028527790338E-02
    0.27386855271773228801E-02
    0.27325014757913646674E-02
    0.27087831252391933456E-02
    0.26979326250977124155E-02
    0.26797650037560334299E-02
    0.26823914205555783249E-02
    0.26702205072175297547E-02
    0.26750471823511275289E-02
    0.26925812238872588733E-02
    0.27040917276112677245E-02
    0.27013187365736036211E-02
    0.26981818456220480959E-02
    0.26900323721298050224E-02
    0.26897014292121411601E-02
    0.27070273602778443210E-02
    0.27040133262598163751E-02
    0.26844813202635512024E-02
    0.26779445950013184251E-02
    0.26617875877719835223E-02
    0.26612775430245138968E-02
    0.26494514891561588704E-02
    0.26515046390824001214E-02
    0.26657543109436230601E-02
    0.26725242816465579788E-02
    0.26750569391798661306E-02
    0.26736392890242921365E-02
    0.27369495673549965563E-02
    0.27390915713971608451E-02
    0.27655457063514615919E-02
    0.27632626047659103637E-02
    0.27353042681404968195E-02
    0.27282506071614957659E-02
    0.27039279342098085368E-02
    0.27008414201558049450E-02
    0.26824594204233106337E-02
    0.26838338973444323191E-02
    0.27039376213169410458E-02
    0.27113571218747526542E-02
    0.27189162479504098112E-02
    0.27179091057036590569E-02
    0.27694692312878032431E-02
    0.27679231011178339825E-02
    0.27969440661156281559E-02
    0.27904877527987702844E-02
    0.27570020346477032598E-02
    0.27443098599488529102E-02
    0.27177559954055488696E-02
    0.27183587676067161830E-02
    0.26992058752628909045E-02
    0.27033249267085011740E-02
    0.27274906648621631035E-02
    0.27396719662541946586E-02
    0.27425905003789874219E-02
    0.27396549857094149201E-02
    0.28454806343012864663E-02
    0.28459124017481051902E-02
    0.28887623161355587172E-02
    0.28815435497723555433E-02
    0.28342850851068891738E-02
    0.28189332323084203592E-02
    0.27801622023103048781E-02
    0.27782058627138471463E-02
    0.27493286809624579645E-02
    0.27532605411377006170E-02
    0.27873327955441999648E-02
    0.28021326038797380285E-02
    0.28106747384708330798E-02
    0.28076370030011661358E-02
    0.27929759224553283269E-02
    0.27799865037062090369E-02
    0.27982292311094104226E-02
    0.27865700395165154263E-02
    0.27574788929580866526E-02
    0.27397966704422560373E-02
    0.27190189276915543472E-02
    0.27274685237869979691E-02
    0.27158854859614858096E-02
    0.27265014813181399564E-02
    0.27491825241644837069E-02
    0.27707236545652597429E-02
    0.27550783963174335124E-02
    0.27486015465526935503E-02
    0.28269824360011032958E-02
    0.28209063201503543385E-02
    0.28536334111920035744E-02
    0.28433906345049870731E-02
    0.28023711779386747608E-02
    0.27837134339208737845E-02
    0.27525592210995261828E-02
    0.27570186469407331580E-02
    0.27362668529412751198E-02
    0.27442312959638907356E-02
    0.27738392316412059484E-02
    0.27927252454195356304E-02
    0.27891018737937296398E-02
    0.27839229475569130141E-02
    0.29342092896366125596E-02
    0.29145471652077437237E-02
    0.29456391779352237431E-02
    0.29279912264188029912E-02
    0.28797216055182683556E-02
    0.28515941644801259640E-02
    0.28164543230113749453E-02
    0.28295167575034347804E-02
    0.28100364941230963033E-02
    0.28270948065675653889E-02
    0.28639233422358776476E-02
    0.28983382646705748223E-02
    0.28741749876556601205E-02
    0.28640349440504108726E-02
    0.29980792871310995608E-02
    0.29911338679720297397E-02
    0.30496411164962771052E-02
    0.30342244451440655677E-02
    0.29629110532256529818E-02
    0.29320263376590664089E-02
    0.28774213020548852424E-02
    0.28836864724957138838E-02
    0.28472486571821911845E-02
    0.28597350575838408754E-02
    0.29097207136129653489E-02
    0.29394846938264559445E-02
    0.29373643433145005602E-02
    0.29294174683500164534E-02
    0.29083926440354956021E-02
    0.29057247566959690591E-02
    0.29569055006763169356E-02
    0.29446949440276137637E-02
    0.28853972408211187375E-02
    0.28616431671805490043E-02
    0.28158986861541910295E-02
    0.28181422635552596904E-02
    0.27854455451142377115E-02
    0.27929156272164501994E-02
    0.28348895143202523447E-02
    0.28561040396924987882E-02
    0.28610107836901052004E-02
    0.28555829832106740737E-02
    0.30416418066469656789E-02
    0.30393254527260956006E-02
    0.31135562718431382401E-02
    0.30966447061413532489E-02
    0.30124706348845370352E-02
    0.29805210244482575194E-02
    0.29150186144945439137E-02
    0.29158478674417434920E-02
    0.28676210485938675304E-02
    0.28763269296912460926E-02
    0.29364759227370213629E-02
    0.29647109779428124088E-02