# vtk DataFile Version 3.0
LAPLACIEN  2D
ASCII
DATASET UNSTRUCTURED_GRID
FIELD FieldData 1
TIME 1 1 double
18.4000
 POINTS        7297  float
   1.5625000000000000E-002  0.96875000000000000        0.0000000000000000     
   3.1250000000000000E-002  0.96875000000000000        0.0000000000000000     
   3.1250000000000000E-002  0.98437500000000000        0.0000000000000000     
   9.3749999999999997E-003  0.97812500000000002        0.0000000000000000     
   2.0312500000000001E-002  0.97968750000000004        0.0000000000000000     
   2.1874999999999999E-002  0.99062499999999998        0.0000000000000000     
   1.0937499999999999E-002  0.98906249999999996        0.0000000000000000     
   4.6875000000000000E-002  0.96875000000000000        0.0000000000000000     
   6.2500000000000000E-002  0.96875000000000000        0.0000000000000000     
   6.2500000000000000E-002  0.98437500000000000        0.0000000000000000     
   4.0625000000000001E-002  0.97812500000000002        0.0000000000000000     
   5.1562499999999997E-002  0.97968750000000004        0.0000000000000000     
   5.3124999999999999E-002  0.99062499999999998        0.0000000000000000     
   4.2187500000000003E-002  0.98906249999999996        0.0000000000000000     
   1.5625000000000000E-002  0.93750000000000000        0.0000000000000000     
   3.1250000000000000E-002  0.93750000000000000        0.0000000000000000     
   3.1250000000000000E-002  0.95312500000000000        0.0000000000000000     
   9.3749999999999997E-003  0.94687500000000002        0.0000000000000000     
   2.0312500000000001E-002  0.94843750000000004        0.0000000000000000     
   2.1874999999999999E-002  0.95937499999999998        0.0000000000000000     
   1.0937499999999999E-002  0.95781249999999996        0.0000000000000000     
   4.6875000000000000E-002  0.93750000000000000        0.0000000000000000     
   6.2500000000000000E-002  0.93750000000000000        0.0000000000000000     
   6.2500000000000000E-002  0.95312500000000000        0.0000000000000000     
   4.0625000000000001E-002  0.94687500000000002        0.0000000000000000     
   5.1562499999999997E-002  0.94843750000000004        0.0000000000000000     
   5.3124999999999999E-002  0.95937499999999998        0.0000000000000000     
   4.2187500000000003E-002  0.95781249999999996        0.0000000000000000     
   7.8125000000000000E-002  0.96875000000000000        0.0000000000000000     
   9.3750000000000000E-002  0.96875000000000000        0.0000000000000000     
   9.3750000000000000E-002  0.98437500000000000        0.0000000000000000     
   7.1874999999999994E-002  0.97812500000000002        0.0000000000000000     
   8.2812499999999997E-002  0.97968750000000004        0.0000000000000000     
   8.4375000000000006E-002  0.99062499999999998        0.0000000000000000     
   7.3437500000000003E-002  0.98906249999999996        0.0000000000000000     
  0.10937500000000000       0.96875000000000000        0.0000000000000000     
  0.12500000000000000       0.96875000000000000        0.0000000000000000     
  0.12500000000000000       0.98437500000000000        0.0000000000000000     
  0.10312499999999999       0.97812500000000002        0.0000000000000000     
  0.11406250000000000       0.97968750000000004        0.0000000000000000     
  0.11562500000000001       0.99062499999999998        0.0000000000000000     
  0.10468750000000000       0.98906249999999996        0.0000000000000000     
   7.8125000000000000E-002  0.93750000000000000        0.0000000000000000     
   9.3750000000000000E-002  0.93750000000000000        0.0000000000000000     
   9.3750000000000000E-002  0.95312500000000000        0.0000000000000000     
   7.1874999999999994E-002  0.94687500000000002        0.0000000000000000     
   8.2812499999999997E-002  0.94843750000000004        0.0000000000000000     
   8.4375000000000006E-002  0.95937499999999998        0.0000000000000000     
   7.3437500000000003E-002  0.95781249999999996        0.0000000000000000     
  0.10937500000000000       0.93750000000000000        0.0000000000000000     
  0.12500000000000000       0.93750000000000000        0.0000000000000000     
  0.12500000000000000       0.95312500000000000        0.0000000000000000     
  0.10312499999999999       0.94687500000000002        0.0000000000000000     
  0.11406250000000000       0.94843750000000004        0.0000000000000000     
  0.11562500000000001       0.95937499999999998        0.0000000000000000     
  0.10468750000000000       0.95781249999999996        0.0000000000000000     
   1.5625000000000000E-002  0.90625000000000000        0.0000000000000000     
   3.1250000000000000E-002  0.90625000000000000        0.0000000000000000     
   3.1250000000000000E-002  0.92187500000000000        0.0000000000000000     
   9.3749999999999997E-003  0.91562500000000002        0.0000000000000000     
   2.0312500000000001E-002  0.91718750000000004        0.0000000000000000     
   2.1874999999999999E-002  0.92812499999999998        0.0000000000000000     
   1.0937499999999999E-002  0.92656249999999996        0.0000000000000000     
   4.6875000000000000E-002  0.90625000000000000        0.0000000000000000     
   6.2500000000000000E-002  0.90625000000000000        0.0000000000000000     
   6.2500000000000000E-002  0.92187500000000000        0.0000000000000000     
   4.0625000000000001E-002  0.91562500000000002        0.0000000000000000     
   5.1562499999999997E-002  0.91718750000000004        0.0000000000000000     
   5.3124999999999999E-002  0.92812499999999998        0.0000000000000000     
   4.2187500000000003E-002  0.92656249999999996        0.0000000000000000     
   1.5625000000000000E-002  0.87500000000000000        0.0000000000000000     
   3.1250000000000000E-002  0.87500000000000000        0.0000000000000000     
   3.1250000000000000E-002  0.89062500000000000        0.0000000000000000     
   9.3749999999999997E-003  0.88437500000000002        0.0000000000000000     
   2.0312500000000001E-002  0.88593750000000004        0.0000000000000000     
   2.1874999999999999E-002  0.89687499999999998        0.0000000000000000     
   1.0937499999999999E-002  0.89531249999999996        0.0000000000000000     
   4.6875000000000000E-002  0.87500000000000000        0.0000000000000000     
   6.2500000000000000E-002  0.87500000000000000        0.0000000000000000     
   6.2500000000000000E-002  0.89062500000000000        0.0000000000000000     
   4.0625000000000001E-002  0.88437500000000002        0.0000000000000000     
   5.1562499999999997E-002  0.88593750000000004        0.0000000000000000     
   5.3124999999999999E-002  0.89687499999999998        0.0000000000000000     
   4.2187500000000003E-002  0.89531249999999996        0.0000000000000000     
   7.8125000000000000E-002  0.90625000000000000        0.0000000000000000     
   9.3750000000000000E-002  0.90625000000000000        0.0000000000000000     
   9.3750000000000000E-002  0.92187500000000000        0.0000000000000000     
   7.1874999999999994E-002  0.91562500000000002        0.0000000000000000     
   8.2812499999999997E-002  0.91718750000000004        0.0000000000000000     
   8.4375000000000006E-002  0.92812499999999998        0.0000000000000000     
   7.3437500000000003E-002  0.92656249999999996        0.0000000000000000     
  0.10937500000000000       0.90625000000000000        0.0000000000000000     
  0.12500000000000000       0.90625000000000000        0.0000000000000000     
  0.12500000000000000       0.92187500000000000        0.0000000000000000     
  0.10312499999999999       0.91562500000000002        0.0000000000000000     
  0.11406250000000000       0.91718750000000004        0.0000000000000000     
  0.11562500000000001       0.92812499999999998        0.0000000000000000     
  0.10468750000000000       0.92656249999999996        0.0000000000000000     
   7.8125000000000000E-002  0.87500000000000000        0.0000000000000000     
   9.3750000000000000E-002  0.87500000000000000        0.0000000000000000     
   9.3750000000000000E-002  0.89062500000000000        0.0000000000000000     
   7.1874999999999994E-002  0.88437500000000002        0.0000000000000000     
   8.2812499999999997E-002  0.88593750000000004        0.0000000000000000     
   8.4375000000000006E-002  0.89687499999999998        0.0000000000000000     
   7.3437500000000003E-002  0.89531249999999996        0.0000000000000000     
  0.10937500000000000       0.87500000000000000        0.0000000000000000     
  0.12500000000000000       0.87500000000000000        0.0000000000000000     
  0.12500000000000000       0.89062500000000000        0.0000000000000000     
  0.10312499999999999       0.88437500000000002        0.0000000000000000     
  0.11406250000000000       0.88593750000000004        0.0000000000000000     
  0.11562500000000001       0.89687499999999998        0.0000000000000000     
  0.10468750000000000       0.89531249999999996        0.0000000000000000     
  0.14062500000000000       0.96875000000000000        0.0000000000000000     
  0.15625000000000000       0.96875000000000000        0.0000000000000000     
  0.15625000000000000       0.98437500000000000        0.0000000000000000     
  0.13437499999999999       0.97812500000000002        0.0000000000000000     
  0.14531250000000001       0.97968750000000004        0.0000000000000000     
  0.14687500000000001       0.99062499999999998        0.0000000000000000     
  0.13593749999999999       0.98906249999999996        0.0000000000000000     
  0.17187500000000000       0.96875000000000000        0.0000000000000000     
  0.18750000000000000       0.96875000000000000        0.0000000000000000     
  0.18750000000000000       0.98437500000000000        0.0000000000000000     
  0.16562499999999999       0.97812500000000002        0.0000000000000000     
  0.17656250000000001       0.97968750000000004        0.0000000000000000     
[...]
 CELL_DATA       14336
 SCALARS Nutrient float
 LOOKUP_TABLE default
    0.11613835814458191298E-01
    0.11613753351637634906E-01
    0.11614405950972090525E-01
    0.11614405950814280996E-01
    0.11613753352269396910E-01
    0.11613835813918779033E-01
    0.11613318888650072877E-01
    0.11613012555367981452E-01
    0.11612681585417420835E-01
    0.11612681581799155425E-01
    0.11613012557228845345E-01
    0.11613318887872273177E-01
    0.11613271076151954198E-01
    0.11613271075564729484E-01
    0.11615982953765207827E-01
    0.11616554772797712397E-01
    0.11618106337860594976E-01
    0.11618536140016325411E-01
    0.11617372907624740064E-01
    0.11617929940238408762E-01
    0.11616710681557096060E-01
    0.11615696548073954283E-01
    0.11614624933311452903E-01
    0.11614242792552610661E-01
    0.11614908725361547046E-01
    0.11614826826485622965E-01
    0.11615872804791912976E-01
    0.11616101673373430136E-01
    0.11617929940329315211E-01
    0.11617372907521744327E-01
    0.11618536140051352948E-01
    0.11618106337816491366E-01
    0.11616554772948393948E-01
    0.11615982953570301237E-01
    0.11614826826869553700E-01
    0.11614908724981115248E-01
    0.11614242793039332435E-01
    0.11614624932841644683E-01
    0.11615696548309475955E-01
    0.11616710681465788890E-01
    0.11616101673486685028E-01
    0.11615872804732110118E-01
    0.11620809020829840630E-01
    0.11621058962001929588E-01
    0.11623484107937977899E-01
    0.11623484107923822556E-01
    0.11621058962046291671E-01
    0.11620809020781682971E-01
    0.11618659081343263653E-01
    0.11618046126257157435E-01
    0.11616446930279673497E-01
    0.11616446930090786396E-01
    0.11618046126374353619E-01
    0.11618659081261393379E-01
    0.11619365488213004300E-01
    0.11619365488179177193E-01
    0.11621717053648323789E-01
    0.11623261797567703904E-01
    0.11626287069569699734E-01
    0.11627413721907226343E-01
    0.11625412590441515023E-01
    0.11626766262380957423E-01
    0.11624376648912446847E-01
    0.11622158679473287152E-01
    0.11619864383948795214E-01
    0.11618894578242307605E-01
    0.11620119113604913605E-01
    0.11619530290638160550E-01
    0.11622205286838181715E-01
    0.11622815126577937250E-01
    0.11633182128741660286E-01
    0.11636293832889279057E-01
    0.11641637487383602045E-01
    0.11643809556013807668E-01
    0.11640436405261951266E-01
    0.11642938223696141717E-01
    0.11638714994084817592E-01
    0.11634698666321063171E-01
    0.11630522601062972740E-01
    0.11628624989059617792E-01
    0.11630770877141913267E-01
    0.11629353532941038782E-01
    0.11634618184893009973E-01
    0.11635799752741895347E-01
    0.11628325070880766653E-01
    0.11629531951818233848E-01
    0.11633784499976403473E-01
    0.11634351356195825680E-01
    0.11630570658607550238E-01
    0.11630786927116250687E-01
    0.11627058260574221066E-01
    0.11625411840857871604E-01
    0.11622360529531913093E-01
    0.11621900677631557749E-01
    0.11624456284760005531E-01
    0.11624742275251951848E-01
    0.11627080367912930731E-01
    0.11627372097277564877E-01
    0.11642553503340851567E-01
    0.11645328938894965176E-01
    0.11652646994557700963E-01
    0.11654160667335270590E-01
    0.11648110381662643911E-01
    0.11649074938579360647E-01
    0.11642784111182019960E-01
    0.11639472641781464443E-01
    0.11634093476861949099E-01
    0.11632875706942311100E-01
    0.11636922185357891427E-01
    0.11636695058167403904E-01
    0.11641655722887353161E-01
    0.11642435670800203168E-01
    0.11626766262414866063E-01
    0.11625412590438963245E-01
    0.11627413721928148843E-01
    0.11626287069573280203E-01
    0.11623261797607403051E-01
    0.11621717053609726192E-01
    0.11619530290722613827E-01
    0.11620119113545322384E-01
    0.11618894578325645456E-01
    0.11619864383890537995E-01
    0.11622158679521668589E-01
    0.11624376648917947655E-01
    0.11622815126607703370E-01
    0.11622205286841944330E-01
    0.11630786927137780340E-01
    0.11630570658607303908E-01
    0.11634351356212144224E-01
    0.11633784499983160221E-01
    0.11629531951837251622E-01
    0.11628325070867039787E-01
    0.11624742275280583459E-01
    0.11624456284729698177E-01
    0.11621900677682293207E-01
    0.11622360529499716625E-01
    0.11625411840888158141E-01
    0.11627058260568758422E-01
    0.11627372097295361406E-01
    0.11627080367913706152E-01
    0.11642938223754078012E-01
    0.11640436405305555276E-01
    0.11643809556064782518E-01
    0.11641637487425105305E-01
    0.11636293832928882794E-01
    0.11633182128756552887E-01
    0.11629353532971944615E-01
    0.11630770877156018303E-01
    0.11628624989092535905E-01
    0.11630522601081643569E-01
    0.11634698666366134756E-01
    0.11638714994136181019E-01
    0.11635799752783013497E-01
    0.11634618184925043377E-01
    0.11649074938632063281E-01
    0.11648110381706789154E-01
    0.11654160667392178194E-01
    0.11652646994607366096E-01
    0.11645328938933963495E-01
    0.11642553503360422718E-01
    0.11636695058189240604E-01
    0.11636922185371644314E-01
    0.11632875706970304333E-01
    0.11634093476878657955E-01
    0.11639472641819090595E-01
    0.11642784111221391244E-01
    0.11642435670838384432E-01
    0.11641655722919178398E-01
    0.11641259719662120850E-01
    0.11642197458840857632E-01
    0.11648503052948089645E-01
    0.11648503052943751102E-01
    0.11642197458840933960E-01
    0.11641259719648756540E-01
    0.11635511940560741562E-01
    0.11634179938439596566E-01
    0.11629768257968403980E-01
    0.11629768257954706603E-01
    0.11634179938453859462E-01
    0.11635511940564996838E-01
    0.11637823915015650320E-01
    0.11637823915011667394E-01
    0.11660742228822105343E-01
    0.11663517534349705090E-01
    0.11674131246848682905E-01
    0.11675120145693737225E-01
    0.11665239499595254913E-01
    0.11664713626664482624E-01
    0.11655198514174777702E-01
    0.11652124864834072226E-01
    0.11644596128524342324E-01
    0.11643924525814662585E-01
    0.11650645328034552051E-01
    0.11651662179553707102E-01
    0.11657084216737764737E-01
    0.11657552990800824910E-01
    0.11664713626726153778E-01
    0.11665239499645818633E-01
    0.11675120145754116011E-01
    0.11674131246896318412E-01
    0.11663517534384186189E-01
    0.11660742228838576542E-01
    0.11651662179561688565E-01
    0.11650645328049692717E-01
    0.11643924525834773234E-01
    0.11644596128544165009E-01
    0.11652124864874673429E-01
    0.11655198514227985140E-01
    0.11657552990839616797E-01
    0.11657084216769439053E-01
    0.11693198651911323668E-01
    0.11695833680558704107E-01
    0.11711834473039308205E-01
    0.11711834473027843417E-01
    0.11695833680539896235E-01
    0.11693198651866260757E-01
    0.11678660135145462959E-01
    0.11675532323912192825E-01
    0.11664440026764578279E-01
    0.11664440026771971670E-01
    0.11675532323933070222E-01
    0.11678660135192382025E-01
    0.11684809826298016983E-01
    0.11684809826292054738E-01
    0.11653756970320873487E-01
    0.11659351121271959578E-01
    0.11668607663099855518E-01
    0.11672495828850848812E-01
    0.11666735382035619412E-01
    0.11671151223172030603E-01
    0.11663862751063552164E-01
    0.11656843785016952550E-01
    0.11649576601318469005E-01
    0.11646215472464371138E-01
    0.11649873452266474097E-01
    0.11647235734410446226E-01
    0.11656579440155315219E-01
    0.11658681184113279042E-01
    0.11689781045459420733E-01
    0.11699557376062591843E-01
    0.11715663785079117459E-01
    0.11722372579739407522E-01
    0.11712315346699378460E-01
    0.11719828187811899556E-01
    0.11707285689342802892E-01
    0.11695205898591975319E-01
    0.11682641805487071693E-01
    0.11676826611388930327E-01
    0.11683126087920400402E-01
    0.11678478267897843615E-01
    0.11694758274687588190E-01
    0.11698396870103069251E-01
    0.11668166392037850748E-01
    0.11673603215045900636E-01
    0.11686304174308017462E-01
    0.11689420767116954006E-01
    0.11679249804398305831E-01
    0.11681332021782857636E-01
    0.11670487442841033163E-01
    0.11664482742080744399E-01
    0.11655175240711492662E-01
    0.11652783061975074269E-01
    0.11659400743391305430E-01
    0.11658352106669782680E-01
    0.11667721983958049409E-01
    0.11669292394392471318E-01
    0.11713749645748831874E-01
    0.11723789086015607916E-01
    0.11746096418930445163E-01
    0.11751838503002947148E-01
    0.11734113152980897923E-01
    0.11737834144226874308E-01
    0.11718942266802055696E-01
    0.11708381607577032432E-01
    0.11692182680042472603E-01
    0.11687852813002400088E-01
    0.11699149753143352204E-01
    0.11696853290464574379E-01
    0.11713762399607032319E-01
    0.11716624680491151411E-01
    0.11752318174396633732E-01
    0.11768936382040870101E-01
    0.11796645173081985944E-01
    0.11807667853942653557E-01
    0.11790132978916619683E-01
    0.11802402208881568324E-01
    0.11781191853710478931E-01
    0.11760839789637553623E-01
    0.11739472292868986802E-01
    0.11729568522123466970E-01
    0.11740498448823747518E-01
    0.11732693321523206265E-01
    0.11760395849777501714E-01
    0.11766478972851440385E-01
    0.11859097201922576617E-01
    0.11886130877557497115E-01
    0.11933012775227951063E-01
    0.11950017398193136728E-01
    0.11919621862172284990E-01
    0.11938558750151349180E-01
    0.11903725010004475096E-01
    0.11870512099216683211E-01
    0.11835021601698750976E-01
    0.11818701240468876615E-01
    0.11837516825605144330E-01
    0.11825132537995773283E-01
    0.11870772712771551771E-01
    0.11880509477191216264E-01
    0.11794806222275255186E-01
    0.11812567620653533287E-01
    0.11852116557201718139E-01
    0.11861873748092712985E-01
    0.11830092801729363838E-01
    0.11835686636861479995E-01
    0.11802655775316289039E-01
    0.11784794951042820363E-01
    0.11756602927381691950E-01
    0.11749198074970296224E-01
    0.11769044598673740129E-01
    0.11764987037908807357E-01
    0.11794690564880222494E-01
    0.11799563887809135995E-01
    0.11938179084582294445E-01
    0.11968140763751277875E-01
    0.12038000636360544210E-01
    0.12052922266138578825E-01
    0.11995323290275331993E-01
    0.12001768102274330829E-01
    0.11944373067568205687E-01
    0.11915654389173328462E-01
    0.11867095572124456565E-01
    0.11855198660238083774E-01
    0.11890737027707752940E-01
    0.11884914399551244416E-01
    0.11935193540323808456E-01
    0.11942823137449671417E-01
    0.11695570765279869607E-01
    0.11701587473904304093E-01
    0.11719740675321312084E-01
    0.11722529648816187170E-01
    0.11706339698810571542E-01
    0.11706554161157218738E-01
    0.11690342488623470946E-01
    0.11684231662798708062E-01
    0.11671280397364118195E-01
    0.11669481489079548339E-01
    0.11680245389831412500E-01
    0.11680751138193725194E-01
    0.11691538669204198583E-01
    0.11692816045744559156E-01
    0.11757712730249707950E-01
    0.11769751843065473507E-01
    0.11801743494151039487E-01
    0.11807902205103760693E-01
    0.11780049261587863252E-01
    0.11781396809414725751E-01
    0.11752972214030462175E-01
    0.11741575234791331098E-01
    0.11718840917948560379E-01
    0.11715068468831019502E-01
    0.11733105996837363272E-01
    0.11732601229127346057E-01
    0.11753203383732519979E-01
    0.11755950379798455960E-01
    0.11742578508743464066E-01
    0.11749249209440149055E-01
    0.11775755633621279306E-01
    0.11777938656370823961E-01
    0.11752825242170498662E-01
    0.11750778177998548110E-01
    0.11726648350680433583E-01
    0.11719736579884126523E-01
    0.11701018778858925801E-01
    0.11699761771562434964E-01
    0.11716865133787106312E-01
    0.11719742177749689974E-01
    0.11732845113327535283E-01
    0.11733788465580074697E-01
    0.11829096701030267572E-01
    0.11843938058542540642E-01
    0.11889638877578089307E-01
    0.11896688629413672972E-01
    0.11855201692212095910E-01
    0.11854783159838795659E-01
    0.11812961740689069401E-01
    0.11798792009498012406E-01
    0.11766229162247272486E-01
    0.11762505955065375232E-01
    0.11790059172509718619E-01
    0.11791907940441699251E-01
    0.11818278985480887636E-01
    0.11821205669977173994E-01
    0.11870394178201097365E-01
    0.11893417990710366053E-01
    0.11951177879447482180E-01
    0.11963050999193203250E-01
    0.11913028898579279546E-01
    0.11915446004758684442E-01
    0.11864546048889146324E-01
    0.11844190267152365434E-01
    0.11803715618135703427E-01
    0.11796654768280926892E-01
    0.11828216765063433516E-01
    0.11826143751006223254E-01
    0.11864387921812852289E-01
    0.11869596793509183327E-01
    0.12076668273846354051E-01
    0.12118694572178144442E-01
    0.12224352662489420054E-01
    0.12244719898196997077E-01
    0.12152169767958952498E-01
    0.12153452529995221673E-01
    0.12061496834816271342E-01
    0.12027075917769389918E-01
    0.11954667191080806110E-01
    0.11942698246178065635E-01
    0.11999924289857907128E-01
    0.11996279544400023642E-01
    0.12065220775369514886E-01
    0.12074098476796000373E-01
    0.11986132553611816148E-01
    0.12017503596397829252E-01
    0.12100098911740091515E-01
    0.12116808383696796303E-01
    0.12043913371325971548E-01
    0.12046194183433290778E-01
    0.11970785224283662235E-01
    0.11943244450603466428E-01
    0.11884657171047863233E-01
    0.11876219370610393428E-01
    0.11923113698889330897E-01
    0.11922248748679534908E-01
    0.11974684914320807630E-01
    0.11981500406182992585E-01
    0.12280278961456761802E-01
    0.12343142855077900502E-01
    0.12497396633829606014E-01
    0.12531260223307319479E-01
    0.12396157563106264404E-01
    0.12400518321858410714E-01
    0.12260944317678585877E-01
    0.12210080879809947010E-01
    0.12102383750450119992E-01
    0.12085836105162405668E-01
    0.12170204459188854046E-01
    0.12164694289881546052E-01
    0.12266220596075790711E-01
    0.12279828532586236842E-01
    0.11671151223311304612E-01
    0.11666735382156262490E-01
    0.11672495828982800553E-01
    0.11668607663216460160E-01
    0.11659351121367808254E-01
    0.11653756970392606038E-01
    0.11647235734469185697E-01
    0.11649873452335927221E-01
    0.11646215472531647184E-01
    0.11649576601394200093E-01
    0.11656843785120000329E-01
    0.11663862751193979084E-01
    0.11658681184214265969E-01
    0.11656579440247130663E-01
    0.11681332021924607095E-01
    0.11679249804531803211E-01
    0.11689420767276307439E-01
    0.11686304174456853266E-01
    0.11673603215159589208E-01
    0.11668166392124947744E-01
    0.11658352106734258882E-01
    0.11659400743465553330E-01
    0.11652783062040509773E-01
    0.11655175240784977284E-01
    0.11664482742181233460E-01
    0.11670487442959410693E-01
    0.11669292394501009497E-01
    0.11667721984059334708E-01
    0.11719828188121136567E-01
    0.11712315346975411129E-01
    0.11722372580040834808E-01
    0.11715663785352147322E-01
    0.11699557376287915075E-01
    0.11689781045643084581E-01
    0.11678478268044287236E-01
    0.11683126088094164183E-01
    0.11676826611549055712E-01
    0.11682641805670334820E-01
    0.11695205898824941743E-01
    0.11707285689631538941E-01
    0.11698396870336087716E-01
    0.11694758274904073006E-01
    0.11737834144558133634E-01
    0.11734113153301473087E-01
    0.11751838503380566958E-01
    0.11746096419291224278E-01
    0.11723789086297297518E-01
    0.11713749645982826988E-01
    0.11696853290641606379E-01
    0.11699149753341483646E-01
    0.11687852813170220706E-01
    0.11692182680230521832E-01
    0.11708381607819506876E-01
    0.11718942267082445990E-01
    0.11716624680755492044E-01
    0.11713762399859016516E-01
    0.11706554161342745679E-01
    0.11706339698982572844E-01
    0.11722529649018851444E-01
    0.11719740675503523969E-01
    0.11701587474043153095E-01
    0.11695570765386456222E-01
    0.11680751138265429989E-01
    0.11680245389922155885E-01
    0.11669481489157354157E-01
    0.11671280397454259631E-01
    0.11684231662927205969E-01
    0.11690342488783275407E-01
    0.11692816045881196385E-01
    0.11691538669330188080E-01
    0.11750778178209256297E-01
    0.11752825242342269246E-01
    0.11777938656559558406E-01
    0.11775755633768113240E-01
    0.11749249209545151867E-01
    0.11742578508796163231E-01
    0.11719742177773367214E-01
    0.11716865133854420522E-01
    0.11699761771629976423E-01
    0.11701018778956823185E-01
    0.11719736580021161004E-01
    0.11726648350869152415E-01
    0.11733788465709417415E-01
    0.11732845113436406528E-01
    0.11781396809868185938E-01
    0.11780049262022761897E-01
    0.11807902205619108874E-01
    0.11801743494628374673E-01
    0.11769751843442140954E-01
    0.11757712730565222925E-01
    0.11732601229358449388E-01
    0.11733105997099741932E-01
    0.11715068469050534880E-01
    0.11718840918193220574E-01
    0.11741575235117575338E-01
    0.11752972214416623764E-01
    0.11755950380154294582E-01
    0.11753203384069908083E-01
    0.11854783160417048382E-01
    0.11855201692736625982E-01
    0.11896688630007232895E-01
    0.11889638878107492218E-01
    0.11843938058951286596E-01
    0.11829096701343818840E-01
    0.11791907940663291093E-01
    0.11790059172800229290E-01
    0.11762505955323548923E-01
    0.11766229162559684041E-01
    0.11798792009905207517E-01
    0.11812961741193409027E-01
    0.11821205670397872192E-01
    0.11818278985867611275E-01
    0.11802402209520911069E-01
    0.11790132979497670515E-01
    0.11807667854576164163E-01
    0.11796645173667482873E-01
    0.11768936382526448692E-01
    0.11752318174806436132E-01
    0.11732693321854148136E-01
    0.11740498449205549747E-01
    0.11729568522473379777E-01
    0.11739472293264817740E-01
    0.11760839790127588719E-01
    0.11781191854305778782E-01
    0.11766478973346154030E-01
    0.11760395850242081478E-01
    0.11835686637572725294E-01
    0.11830092802424146611E-01
    0.11861873748912395848E-01
    0.11852116557987960738E-01
    0.11812567621279936730E-01
    0.11794806222812873747E-01
    0.11764987038325985802E-01
    0.11769044599125817741E-01
    0.11749198075353788073E-01
    0.11756602927801888814E-01
    0.11784794951573276250E-01
    0.11802655775917832159E-01
    0.11799563888390273564E-01
    0.11794690565439334279E-01
    0.11938558751397928409E-01
    0.11919621863329983927E-01
    0.11950017399473045199E-01
    0.11933012776413650172E-01
    0.11886130878545826325E-01
    0.11859097202771107932E-01
    0.11825132538690469319E-01
    0.11837516826387993810E-01
    0.11818701241185494352E-01
    0.11835021602499778623E-01
    0.11870512100190659319E-01
    0.11903725011165117859E-01
    0.11880509478183710545E-01
    0.11870772713710715449E-01
    0.12001768103698224818E-01
    0.11995323291697397583E-01
    0.12052922267825800368E-01
    0.12038000637986797162E-01
    0.11968140765054780320E-01
    0.11938179085726481621E-01
    0.11884914400447194396E-01
    0.11890737028661741564E-01
    0.11855198661045594083E-01
    0.11867095573000441613E-01
    0.11915654390262264695E-01
    0.11944373068785884423E-01
    0.11942823138648342787E-01
    0.11935193541485171129E-01
    0.11915446005752641095E-01
    0.11913028899554348530E-01
    0.11963051000345021474E-01
    0.11951177880541574011E-01
    0.11893417991583211252E-01
    0.11870394178962892506E-01
    0.11826143751580584992E-01
    0.11828216765687725801E-01
    0.11796654768801210361E-01
    0.11803715618702524323E-01
    0.11844190267885846418E-01
    0.11864546049735040859E-01
    0.11869596794318081415E-01
    0.11864387922590669336E-01
    0.12046194184782730435E-01
    0.12043913372594737890E-01
    0.12116808385161223841E-01
    0.12100098913085648861E-01
    0.12017503597471024604E-01
    0.11986132554504170047E-01
    0.11922248749356602684E-01
    0.11923113699670079627E-01
    0.11876219371290054616E-01
    0.11884657171817065643E-01
    0.11943244451584580923E-01
    0.11970785225439763491E-01