# vtk DataFile Version 3.0
LAPLACIEN  2D
ASCII
DATASET UNSTRUCTURED_GRID
FIELD FieldData 1
TIME 1 1 double
2.6000
 POINTS        7297  float
   1.5625000000000000E-002  0.96875000000000000        0.0000000000000000     
   3.1250000000000000E-002  0.96875000000000000        0.0000000000000000     
   3.1250000000000000E-002  0.98437500000000000        0.0000000000000000     
   9.3749999999999997E-003  0.97812500000000002        0.0000000000000000     
   2.0312500000000001E-002  0.97968750000000004        0.0000000000000000     
   2.1874999999999999E-002  0.99062499999999998        0.0000000000000000     
   1.0937499999999999E-002  0.98906249999999996        0.0000000000000000     
   4.6875000000000000E-002  0.96875000000000000        0.0000000000000000     
   6.2500000000000000E-002  0.96875000000000000        0.0000000000000000     
   6.2500000000000000E-002  0.98437500000000000        0.0000000000000000     
   4.0625000000000001E-002  0.97812500000000002        0.0000000000000000     
   5.1562499999999997E-002  0.97968750000000004        0.0000000000000000     
   5.3124999999999999E-002  0.99062499999999998        0.0000000000000000     
   4.2187500000000003E-002  0.98906249999999996        0.0000000000000000     
   1.5625000000000000E-002  0.93750000000000000        0.0000000000000000     
   3.1250000000000000E-002  0.93750000000000000        0.0000000000000000     
   3.1250000000000000E-002  0.95312500000000000        0.0000000000000000     
   9.3749999999999997E-003  0.94687500000000002        0.0000000000000000     
   2.0312500000000001E-002  0.94843750000000004        0.0000000000000000     
   2.1874999999999999E-002  0.95937499999999998        0.0000000000000000     
   1.0937499999999999E-002  0.95781249999999996        0.0000000000000000     
   4.6875000000000000E-002  0.93750000000000000        0.0000000000000000     
   6.2500000000000000E-002  0.93750000000000000        0.0000000000000000     
   6.2500000000000000E-002  0.95312500000000000        0.0000000000000000     
   4.0625000000000001E-002  0.94687500000000002        0.0000000000000000     
   5.1562499999999997E-002  0.94843750000000004        0.0000000000000000     
   5.3124999999999999E-002  0.95937499999999998        0.0000000000000000     
   4.2187500000000003E-002  0.95781249999999996        0.0000000000000000     
   7.8125000000000000E-002  0.96875000000000000        0.0000000000000000     
   9.3750000000000000E-002  0.96875000000000000        0.0000000000000000     
   9.3750000000000000E-002  0.98437500000000000        0.0000000000000000     
   7.1874999999999994E-002  0.97812500000000002        0.0000000000000000     
   8.2812499999999997E-002  0.97968750000000004        0.0000000000000000     
   8.4375000000000006E-002  0.99062499999999998        0.0000000000000000     
   7.3437500000000003E-002  0.98906249999999996        0.0000000000000000     
  0.10937500000000000       0.96875000000000000        0.0000000000000000     
  0.12500000000000000       0.96875000000000000        0.0000000000000000     
  0.12500000000000000       0.98437500000000000        0.0000000000000000     
  0.10312499999999999       0.97812500000000002        0.0000000000000000     
  0.11406250000000000       0.97968750000000004        0.0000000000000000     
  0.11562500000000001       0.99062499999999998        0.0000000000000000     
  0.10468750000000000       0.98906249999999996        0.0000000000000000     
   7.8125000000000000E-002  0.93750000000000000        0.0000000000000000     
   9.3750000000000000E-002  0.93750000000000000        0.0000000000000000     
   9.3750000000000000E-002  0.95312500000000000        0.0000000000000000     
   7.1874999999999994E-002  0.94687500000000002        0.0000000000000000     
   8.2812499999999997E-002  0.94843750000000004        0.0000000000000000     
   8.4375000000000006E-002  0.95937499999999998        0.0000000000000000     
   7.3437500000000003E-002  0.95781249999999996        0.0000000000000000     
  0.10937500000000000       0.93750000000000000        0.0000000000000000     
  0.12500000000000000       0.93750000000000000        0.0000000000000000     
  0.12500000000000000       0.95312500000000000        0.0000000000000000     
  0.10312499999999999       0.94687500000000002        0.0000000000000000     
  0.11406250000000000       0.94843750000000004        0.0000000000000000     
  0.11562500000000001       0.95937499999999998        0.0000000000000000     
  0.10468750000000000       0.95781249999999996        0.0000000000000000     
   1.5625000000000000E-002  0.90625000000000000        0.0000000000000000     
   3.1250000000000000E-002  0.90625000000000000        0.0000000000000000     
   3.1250000000000000E-002  0.92187500000000000        0.0000000000000000     
   9.3749999999999997E-003  0.91562500000000002        0.0000000000000000     
   2.0312500000000001E-002  0.91718750000000004        0.0000000000000000     
   2.1874999999999999E-002  0.92812499999999998        0.0000000000000000     
   1.0937499999999999E-002  0.92656249999999996        0.0000000000000000     
   4.6875000000000000E-002  0.90625000000000000        0.0000000000000000     
   6.2500000000000000E-002  0.90625000000000000        0.0000000000000000     
   6.2500000000000000E-002  0.92187500000000000        0.0000000000000000     
   4.0625000000000001E-002  0.91562500000000002        0.0000000000000000     
   5.1562499999999997E-002  0.91718750000000004        0.0000000000000000     
   5.3124999999999999E-002  0.92812499999999998        0.0000000000000000     
   4.2187500000000003E-002  0.92656249999999996        0.0000000000000000     
   1.5625000000000000E-002  0.87500000000000000        0.0000000000000000     
   3.1250000000000000E-002  0.87500000000000000        0.0000000000000000     
   3.1250000000000000E-002  0.89062500000000000        0.0000000000000000     
   9.3749999999999997E-003  0.88437500000000002        0.0000000000000000     
   2.0312500000000001E-002  0.88593750000000004        0.0000000000000000     
   2.1874999999999999E-002  0.89687499999999998        0.0000000000000000     
   1.0937499999999999E-002  0.89531249999999996        0.0000000000000000     
   4.6875000000000000E-002  0.87500000000000000        0.0000000000000000     
   6.2500000000000000E-002  0.87500000000000000        0.0000000000000000     
   6.2500000000000000E-002  0.89062500000000000        0.0000000000000000     
   4.0625000000000001E-002  0.88437500000000002        0.0000000000000000     
   5.1562499999999997E-002  0.88593750000000004        0.0000000000000000     
   5.3124999999999999E-002  0.89687499999999998        0.0000000000000000     
   4.2187500000000003E-002  0.89531249999999996        0.0000000000000000     
   7.8125000000000000E-002  0.90625000000000000        0.0000000000000000     
   9.3750000000000000E-002  0.90625000000000000        0.0000000000000000     
   9.3750000000000000E-002  0.92187500000000000        0.0000000000000000     
   7.1874999999999994E-002  0.91562500000000002        0.0000000000000000     
   8.2812499999999997E-002  0.91718750000000004        0.0000000000000000     
   8.4375000000000006E-002  0.92812499999999998        0.0000000000000000     
   7.3437500000000003E-002  0.92656249999999996        0.0000000000000000     
  0.10937500000000000       0.90625000000000000        0.0000000000000000     
  0.12500000000000000       0.90625000000000000        0.0000000000000000     
  0.12500000000000000       0.92187500000000000        0.0000000000000000     
  0.10312499999999999       0.91562500000000002        0.0000000000000000     
  0.11406250000000000       0.91718750000000004        0.0000000000000000     
  0.11562500000000001       0.92812499999999998        0.0000000000000000     
  0.10468750000000000       0.92656249999999996        0.0000000000000000     
   7.8125000000000000E-002  0.87500000000000000        0.0000000000000000     
   9.3750000000000000E-002  0.87500000000000000        0.0000000000000000     
   9.3750000000000000E-002  0.89062500000000000        0.0000000000000000     
   7.1874999999999994E-002  0.88437500000000002        0.0000000000000000     
   8.2812499999999997E-002  0.88593750000000004        0.0000000000000000     
   8.4375000000000006E-002  0.89687499999999998        0.0000000000000000     
   7.3437500000000003E-002  0.89531249999999996        0.0000000000000000     
  0.10937500000000000       0.87500000000000000        0.0000000000000000     
  0.12500000000000000       0.87500000000000000        0.0000000000000000     
  0.12500000000000000       0.89062500000000000        0.0000000000000000     
  0.10312499999999999       0.88437500000000002        0.0000000000000000     
  0.11406250000000000       0.88593750000000004        0.0000000000000000     
  0.11562500000000001       0.89687499999999998        0.0000000000000000     
  0.10468750000000000       0.89531249999999996        0.0000000000000000     
  0.14062500000000000       0.96875000000000000        0.0000000000000000     
  0.15625000000000000       0.96875000000000000        0.0000000000000000     
  0.15625000000000000       0.98437500000000000        0.0000000000000000     
  0.13437499999999999       0.97812500000000002        0.0000000000000000     
  0.14531250000000001       0.97968750000000004        0.0000000000000000     
  0.14687500000000001       0.99062499999999998        0.0000000000000000     
  0.13593749999999999       0.98906249999999996        0.0000000000000000     
  0.17187500000000000       0.96875000000000000        0.0000000000000000     
  0.18750000000000000       0.96875000000000000        0.0000000000000000     
  0.18750000000000000       0.98437500000000000        0.0000000000000000     
  0.16562499999999999       0.97812500000000002        0.0000000000000000     
  0.17656250000000001       0.97968750000000004        0.0000000000000000     
[...]
 CELL_DATA       14336
 SCALARS Nutrient float
 LOOKUP_TABLE default
    0.25959646992724598989E-02
    0.25958325307658715320E-02
    0.25967453640696304754E-02
    0.25967453640343613787E-02
    0.25958325308973475253E-02
    0.25959646991477714449E-02
    0.25952270817706595517E-02
    0.25947920258848605063E-02
    0.25943221038312392138E-02
    0.25943221030586662360E-02
    0.25947920262857594384E-02
    0.25952270816126856573E-02
    0.25951558079328695093E-02
    0.25951558078062481397E-02
    0.25989091171970293663E-02
    0.25996926196647190781E-02
    0.26017740969843023736E-02
    0.26023574955256036437E-02
    0.26008219652165847323E-02
    0.26015915467359363583E-02
    0.25999487749490133096E-02
    0.25985513530962273294E-02
    0.25970707776639088971E-02
    0.25965199673870704468E-02
    0.25974513517521731487E-02
    0.25973238768915657762E-02
    0.25987761743873722883E-02
    0.25991016754999514762E-02
    0.26015915467831576997E-02
    0.26008219652158687252E-02
    0.26023574955528114803E-02
    0.26017740969893768735E-02
    0.25996926197083005360E-02
    0.25989091171601513136E-02
    0.25973238769781150335E-02
    0.25974513516807966503E-02
    0.25965199675001726827E-02
    0.25970707775772598931E-02
    0.25985513531650342688E-02
    0.25999487749564821615E-02
    0.25991016755410761320E-02
    0.25987761743880193402E-02
    0.26052683523543852459E-02
    0.26055633419655300879E-02
    0.26086306572731376291E-02
    0.26086306572675080177E-02
    0.26055633419691261697E-02
    0.26052683523297686524E-02
    0.26024844330729741439E-02
    0.26016613519139401671E-02
    0.25995318555586803023E-02
    0.25995318555204456959E-02
    0.26016613519443581096E-02
    0.26024844330682496245E-02
    0.26033817805985013001E-02
    0.26033817805897426813E-02
    0.26064824571272876552E-02
    0.26084793275898024260E-02
    0.26122857868756984949E-02
    0.26137111066033016059E-02
    0.26112318469836749181E-02
    0.26129490583962134732E-02
    0.26099478013168887595E-02
    0.26071115182876719585E-02
    0.26041497963229490349E-02
    0.26028650906327042459E-02
    0.26044610695320738643E-02
    0.26036665915153832558E-02
    0.26071560371288167446E-02
    0.26079457374317180883E-02
    0.26207464900919576548E-02
    0.26245258145821972161E-02
    0.26308738882078698193E-02
    0.26334702894303067128E-02
    0.26295273570876753939E-02
    0.26325260667741543982E-02
    0.26275259946826252412E-02
    0.26226828083229332053E-02
    0.26176082468927861641E-02
    0.26152612553959732680E-02
    0.26178763426826698844E-02
    0.26161054212067245267E-02
    0.26225543099726426367E-02
    0.26239911258273801963E-02
    0.26146189153325549541E-02
    0.26161111807940242401E-02
    0.26212574297705061761E-02
    0.26219682033003280895E-02
    0.26174412092252932055E-02
    0.26177666572082037601E-02
    0.26132156678957681011E-02
    0.26111223981213176060E-02
    0.26072847155362414463E-02
    0.26066739204591363177E-02
    0.26098687350906949085E-02
    0.26102021041456780273E-02
    0.26131392635472521641E-02
    0.26135169281286574523E-02
    0.26316391508875852656E-02
    0.26349150840852780635E-02
    0.26433487449662126413E-02
    0.26451317839238288471E-02
    0.26382458159829916787E-02
    0.26394550284242856812E-02
    0.26321783500999895722E-02
    0.26282103996558515632E-02
    0.26218165571224643848E-02
    0.26203092228123071525E-02
    0.26250943044514680677E-02
    0.26247650038757537085E-02
    0.26306933708387506866E-02
    0.26316368074281878096E-02
    0.26129490584654571292E-02
    0.26112318470356021306E-02
    0.26137111066611784863E-02
    0.26122857869221019142E-02
    0.26084793276359001003E-02
    0.26064824571459333305E-02
    0.26036665915558847122E-02
    0.26044610695508470417E-02
    0.26028650906832978898E-02
    0.26041497963471722799E-02
    0.26071115183441432792E-02
    0.26099478013760970402E-02
    0.26079457374818776176E-02
    0.26071560371697063453E-02
    0.26177666572601175285E-02
    0.26174412092629336692E-02
    0.26219682033418669105E-02
    0.26212574298017771689E-02
    0.26161111808191929093E-02
    0.26146189153375657029E-02
    0.26102021041567312516E-02
    0.26098687351005104076E-02
    0.26066739204881348227E-02
    0.26072847155544499713E-02
    0.26111223981598380081E-02
    0.26132156679375593243E-02
    0.26135169281616041879E-02
    0.26131392635717716130E-02
    0.26325260669149809847E-02
    0.26295273572107201975E-02
    0.26334702895597960140E-02
    0.26308738883226885641E-02
    0.26245258146796674251E-02
    0.26207464901655723802E-02
    0.26161054212729371871E-02
    0.26178763427594925473E-02
    0.26152612554721601547E-02
    0.26176082469770546937E-02
    0.26226828084306877224E-02
    0.26275259948136580126E-02
    0.26239911259333848111E-02
    0.26225543100689861428E-02
    0.26394550285516937480E-02
    0.26382458160950066767E-02
    0.26451317840459828701E-02
    0.26433487450741779273E-02
    0.26349150841705804883E-02
    0.26316391509466872944E-02
    0.26247650039246022205E-02
    0.26250943045143903913E-02
    0.26203092228749866148E-02
    0.26218165571945738039E-02
    0.26282103997489307534E-02
    0.26321783502121021484E-02
    0.26316368075209443413E-02
    0.26306933709227525026E-02
    0.26300662942735824126E-02
    0.26311346308750733526E-02
    0.26384367425931441742E-02
    0.26384367425857347365E-02
    0.26311346308636220093E-02
    0.26300662942443106887E-02
    0.26232967589472715696E-02
    0.26216815155730177102E-02
    0.26163748012921609655E-02
    0.26163748012936857874E-02
    0.26216815155872528510E-02
    0.26232967589757149630E-02
    0.26260039354268991524E-02
    0.26260039354227202035E-02
    0.26523270405740349137E-02
    0.26554476412850450476E-02
    0.26672756596681453968E-02
    0.26683899670325653131E-02
    0.26574274198986765592E-02
    0.26569068422190936229E-02
    0.26462091598260283412E-02
    0.26426434821016468735E-02
    0.26339928859139966066E-02
    0.26331833187174516139E-02
    0.26408964435934434434E-02
    0.26420467043464452087E-02
    0.26482313810793508234E-02
    0.26487771346285979290E-02
    0.26569068423377261573E-02
    0.26574274199950955258E-02
    0.26683899671345223843E-02
    0.26672756597480922966E-02
    0.26554476413429015449E-02
    0.26523270406021339646E-02
    0.26420467043615958498E-02
    0.26408964436327180166E-02
    0.26331833187583438168E-02
    0.26339928859700620020E-02
    0.26426434821809484561E-02
    0.26462091599348215240E-02
    0.26487771347024737303E-02
    0.26482313811414899193E-02
    0.26881462522727341512E-02
    0.26909889950987907550E-02
    0.27082858655981269756E-02
    0.27082858655810200001E-02
    0.26909889950674247862E-02
    0.26881462522000102063E-02
    0.26722511084048164269E-02
    0.26687815369555918134E-02
    0.26564739837140107642E-02
    0.26564739837281491942E-02
    0.26687815369868948985E-02
    0.26722511084790413413E-02
    0.26789790035700203168E-02
    0.26789790035608523032E-02
    0.26449617872500458954E-02
    0.26514039989865255398E-02
    0.26618490526456352330E-02
    0.26662629089946529581E-02
    0.26598598290714665221E-02
    0.26648810739858474171E-02
    0.26566824939700198899E-02
    0.26486649050705157217E-02
    0.26403064456771824751E-02
    0.26363794361325657185E-02
    0.26405907141279802257E-02
    0.26374724581174919386E-02
    0.26483133516144665050E-02
    0.26507339504480407523E-02
    0.26853080337064967609E-02
    0.26960707291157444063E-02
    0.27134987482891979177E-02
    0.27208064893482234933E-02
    0.27100574776620098630E-02
    0.27182536576595768725E-02
    0.27047069554963815326E-02
    0.26915020513468769676E-02
    0.26777019079923473216E-02
    0.26712289347010165566E-02
    0.26781468042565677659E-02
    0.26729181706296564931E-02
    0.26909368853421013895E-02
    0.26949425443590891392E-02
    0.26608794229914362571E-02
    0.26669977326958839436E-02
    0.26809944556600139726E-02
    0.26844820236834655326E-02
    0.26734072818743138608E-02
    0.26758445711746723684E-02
    0.26638839408144880834E-02
    0.26570503927388269133E-02
    0.26465379150124963489E-02
    0.26437377230697604868E-02
    0.26511765249443925221E-02
    0.26498973191831929133E-02
    0.26605471613694612817E-02
    0.26623455522779265053E-02
    0.27107618640204982768E-02
    0.27216190286646147270E-02
    0.27453491069994598664E-02
    0.27515368134540629623E-02
    0.27328651909705970954E-02
    0.27370228446099791574E-02
    0.27169287087839776550E-02
    0.27054104424793961117E-02
    0.26878654683201550109E-02
    0.26830347717531942767E-02
    0.26952128647511389668E-02
    0.26925837862915094623E-02
    0.27110129440844686448E-02
    0.27141520772664541432E-02
    0.27526529406643662420E-02
    0.27703440366970838449E-02
    0.27994469150806585225E-02
    0.28111114577411945928E-02
    0.27928626229318962923E-02
    0.28058580938231823462E-02
    0.27835969660345012515E-02
    0.27620458547518763476E-02
    0.27393538402297390108E-02
    0.27287319360359200797E-02
    0.27403204487496716189E-02
    0.27318655420072021286E-02
    0.27614637791836364744E-02
    0.27679439192299826362E-02
    0.28644932431903988822E-02
    0.28926301644716149140E-02
    0.29409121992667146273E-02
    0.29585657695324171952E-02
    0.29274673338129794317E-02
    0.29471357962859447664E-02
    0.29112554846749804510E-02
    0.28768300146641838551E-02
    0.28399898198997451139E-02
    0.28229251651583574766E-02
    0.28424112607304268148E-02
    0.28293430791247972146E-02
    0.28769404387099443803E-02
    0.28870839773487396232E-02
    0.27965822140570079438E-02
    0.28152475569695029588E-02
    0.28562798035656677617E-02
    0.28665267067938412192E-02
    0.28337912054530317585E-02
    0.28398713003932813184E-02
    0.28056034411464620716E-02
    0.27867088015022288897E-02
    0.27570888746000503551E-02
    0.27491198020386030214E-02
    0.27698793146528214240E-02
    0.27654165933269922797E-02
    0.27967942955963455941E-02
    0.28019757792204372585E-02
    0.29449384282103532699E-02
    0.29758313650597835801E-02
    0.30471583645633043558E-02
    0.30625794135705759584E-02
    0.30040632762759408858E-02
    0.30110128793742925446E-02
    0.29524070564083820800E-02
    0.29226339157321407254E-02
    0.28726354973401674320E-02
    0.28601440649317255889E-02
    0.28965900625842833441E-02
    0.28903212034304911517E-02
    0.29423324894786140847E-02
    0.29502821123245947556E-02
    0.26907591217571681826E-02
    0.26973000983309468152E-02
    0.27168434198434213492E-02
    0.27198593141545303331E-02
    0.27025240114978282824E-02
    0.27028558732133728046E-02
    0.26853371702675542763E-02
    0.26785618648016685205E-02
    0.26643016813788725911E-02
    0.26622464891813972694E-02
    0.26740811484430439086E-02
    0.26745912325801977569E-02
    0.26864515685893234839E-02
    0.26878703584747379307E-02
    0.27571593236949873927E-02
    0.27698569964390755763E-02
    0.28033554166286517133E-02
    0.28098142716428704119E-02
    0.27807832873596428046E-02
    0.27823310263512270567E-02
    0.27525221279226410979E-02
    0.27403343151385949929E-02
    0.27161566756827011486E-02
    0.27120347882614989285E-02
    0.27311969611327102832E-02
    0.27305933901402255903E-02
    0.27525031879700530453E-02
    0.27554402725382533094E-02
    0.27410923494745140921E-02
    0.27481492144425735853E-02
    0.27761197329575952944E-02
    0.27784036943118224812E-02
    0.27519382813143912665E-02
    0.27497954724153075845E-02
    0.27241908475753571529E-02
    0.27167671576689557227E-02
    0.26966520351298576934E-02
    0.26952766021721462700E-02
    0.27136691164638495656E-02
    0.27167573533539313840E-02
    0.27307457956706709772E-02
    0.27317534677142982398E-02
    0.28318102854887013987E-02
    0.28471666180235524063E-02
    0.28944387186839782601E-02
    0.29016590451992744538E-02
    0.28587971437335894277E-02
    0.28583652655669411317E-02
    0.28150039616318483192E-02
    0.28001987641746300950E-02
    0.27661136648311226115E-02
    0.27621800487538112484E-02
    0.27910684658970117897E-02
    0.27930256898403044326E-02
    0.28205099799478920534E-02
    0.28235486816348665494E-02
    0.28745326324724732210E-02
    0.28982931797887014243E-02
    0.29576047520967620012E-02
    0.29698183413027446839E-02
    0.29186269620699954036E-02
    0.29212969115796918150E-02
    0.28689958138404928790E-02
    0.28477738987070888403E-02
    0.28057869747560174392E-02
    0.27983134482396049107E-02
    0.28310200557114476722E-02
    0.28287750507244007608E-02
    0.28684718743478454690E-02
    0.28739015640413798948E-02
    0.30856563703832652797E-02
    0.31284363382790471991E-02
    0.32355980597442044952E-02
    0.32563105155651787641E-02
    0.31626594469103116655E-02
    0.31642185916867932027E-02
    0.30709183377721090656E-02
    0.30356167770071666029E-02
    0.29617051322905121186E-02
    0.29492933038430006396E-02
    0.30076392369500120141E-02
    0.30037797481932502347E-02
    0.30742143295303826084E-02
    0.30833233235294044486E-02
    0.29934387042440425974E-02
    0.30253938331531687704E-02
    0.31095828392723344133E-02
    0.31264965002233083974E-02
    0.30522529702891763523E-02
    0.30545696856254882755E-02
    0.29776245916051892124E-02
    0.29493832141542137594E-02
    0.28892201394604436968E-02
    0.28805118766954355275E-02
    0.29287506117491456277E-02
    0.29279216039221262792E-02
    0.29816005180443487868E-02
    0.29885554499795136639E-02
    0.32922564697089717195E-02
    0.33557006468439721375E-02
    0.35114602784505105811E-02
    0.35455192318343798329E-02
    0.34091677988552738718E-02
    0.34135838258358237526E-02
    0.32725695287720416894E-02
    0.32210061645376710307E-02
    0.31117740254961757940E-02
    0.30949304406704520286E-02
    0.31805967131085101200E-02
    0.31750868822064976654E-02
    0.32778626159536104756E-02
    0.32916156463695125066E-02
    0.26648810742605877171E-02
    0.26598598293189035756E-02
    0.26662629092562917590E-02
    0.26618490528833938305E-02
    0.26514039991892631061E-02
    0.26449617874173439284E-02
    0.26374724582605506805E-02
    0.26405907142949759832E-02
    0.26363794362902794044E-02
    0.26403064458541316423E-02
    0.26486649052851209650E-02
    0.26566824942272264723E-02
    0.26507339506619347590E-02
    0.26483133518145933125E-02
    0.26758445714433068754E-02
    0.26734072821234166825E-02
    0.26844820239589014567E-02
    0.26809944559151592698E-02
    0.26669977329029457419E-02
    0.26608794231579866243E-02
    0.26498973193191631414E-02
    0.26511765251049038833E-02
    0.26437377232165723030E-02
    0.26465379151795875162E-02
    0.26570503929427584031E-02
    0.26638839410523733157E-02
    0.26623455524885254048E-02
    0.26605471615673728474E-02
    0.27182536581676955932E-02
    0.27100574781258796909E-02
    0.27208064898422016156E-02
    0.27134987487439899377E-02
    0.26960707295063395146E-02
    0.26853080340395549946E-02
    0.26729181709143120388E-02
    0.26781468045811579470E-02
    0.26712289350056092792E-02
    0.26777019083306348793E-02
    0.26915020517498549658E-02
    0.27047069559724169763E-02
    0.26949425447636479042E-02
    0.26909368857240627791E-02
    0.27370228451314036408E-02
    0.27328651914677298124E-02
    0.27515368140101229347E-02
    0.27453491075270807821E-02
    0.27216190290974980569E-02
    0.27107618643879586792E-02
    0.26925837865933465766E-02
    0.26952128650887777379E-02
    0.26830347720566216987E-02
    0.26878654686559376279E-02
    0.27054104428835576250E-02
    0.27169287092444456902E-02
    0.27141520776913902711E-02
    0.27110129444902382467E-02
    0.27028558735073728719E-02
    0.27025240117639760633E-02
    0.27198593144490039800E-02
    0.27168434201061009842E-02
    0.26973000985389375579E-02
    0.26907591219167263132E-02
    0.26745912327003637868E-02
    0.26740811485980050220E-02
    0.26622464893228657036E-02
    0.26643016815454129836E-02
    0.26785618650156609727E-02
    0.26853371705303640156E-02
    0.26878703586928095852E-02
    0.26864515687902335191E-02
    0.27497954727046438478E-02
    0.27519382815471148292E-02
    0.27784036945563547402E-02
    0.27761197331466536987E-02
    0.27481492145802967515E-02
    0.27410923495413165585E-02
    0.27167573533905145337E-02
    0.27136691165619282289E-02
    0.26952766022739107869E-02
    0.26966520352759868959E-02
    0.27167671578621718255E-02
    0.27241908478390897651E-02
    0.27317534678926807222E-02
    0.27307457958208013193E-02
    0.27823310269761156524E-02
    0.27807832879492093946E-02
    0.28098142723121432088E-02
    0.28033554172461980919E-02
    0.27698569969421930892E-02
    0.27571593241173162313E-02
    0.27305933904721996219E-02
    0.27311969615128046766E-02
    0.27120347885979329342E-02
    0.27161566760579127291E-02
    0.27403343156081343308E-02
    0.27525221284719412866E-02
    0.27554402730335489542E-02
    0.27525031884390559200E-02
    0.28583652662858747250E-02
    0.28587971443793588899E-02
    0.29016590459096163954E-02
    0.28944387193156214354E-02
    0.28471666185217012375E-02
    0.28318102858703288541E-02
    0.27930256901265229641E-02
    0.27910684662717836178E-02
    0.27621800490986551935E-02
    0.27661136652458702748E-02
    0.28001987646952188754E-02
    0.28150039622712088455E-02
    0.28235486821620732999E-02
    0.28205099804322836601E-02
    0.28058580947360515188E-02
    0.27928626237735403211E-02
    0.28111114586411556880E-02
    0.27994469159203462169E-02
    0.27703440374174203957E-02
    0.27526529412901208985E-02
    0.27318655425409327404E-02
    0.27403204493483741301E-02
    0.27287319365954815914E-02
    0.27393538408471002077E-02
    0.27620458554816077271E-02
    0.27835969668892827748E-02
    0.27679439199662808115E-02
    0.27614637798827348057E-02
    0.28398713013692198325E-02
    0.28337912063967759732E-02
    0.28665267078658842811E-02
    0.28562798045902019518E-02
    0.28152475578162809017E-02
    0.27965822147941197043E-02
    0.27654165939333965295E-02
    0.27698793153102343502E-02
    0.27491198026228977867E-02
    0.27570888752344114084E-02
    0.27867088022639503048E-02
    0.28056034420002083987E-02
    0.28019757800320631985E-02
    0.27967942963779846705E-02
    0.29471357978905817626E-02
    0.29274673353147382185E-02
    0.29585657711635876543E-02
    0.29409122007892666770E-02
    0.28926301657750978433E-02
    0.28644932443324939812E-02
    0.28293430800980967806E-02
    0.28424112618075400398E-02
    0.28229251661608507039E-02
    0.28399898210000659032E-02
    0.28768300159583422120E-02
    0.29112554861780433162E-02
    0.28870839786636643548E-02
    0.28769404399635821988E-02
    0.30110128811476383377E-02
    0.30040632780300039265E-02
    0.30625794155937830811E-02
    0.30471583665103558168E-02
    0.29758313666633168584E-02
    0.29449384296314018786E-02
    0.28903212045906854881E-02
    0.28965900638206650008E-02
    0.28601440660160283753E-02
    0.28726354985080977678E-02
    0.29226339171326471723E-02
    0.29524070579613655163E-02
    0.29502821138342864328E-02
    0.29423324909420879580E-02
    0.29212969128186022649E-02
    0.29186269632715980231E-02
    0.29698183426808927136E-02
    0.29576047534024436925E-02
    0.28982931808562567566E-02
    0.28745326334067870452E-02
    0.28287750514631323194E-02
    0.28310200565188842550E-02
    0.27983134489411756567E-02
    0.28057869755196379428E-02
    0.28477738996527967620E-02
    0.28689958149213990769E-02
    0.28739015650589175115E-02
    0.28684718753254328377E-02
    0.30545696871888336488E-02
    0.30522529717500299258E-02
    0.31264965018770792676E-02
    0.31095828407897399721E-02
    0.30253938343836311170E-02
    0.29934387052690746532E-02
    0.29279216047272170823E-02
    0.29287506126789370278E-02
    0.28805118775258910235E-02
    0.28892201403971809297E-02
    0.29493832153170526818E-02
    0.29776245929668578027E-02