# vtk DataFile Version 3.0
LAPLACIEN  2D
ASCII
DATASET UNSTRUCTURED_GRID
FIELD FieldData 1
TIME 1 1 double
9.7000
 POINTS        7297  float
   1.5625000000000000E-002  0.96875000000000000        0.0000000000000000     
   3.1250000000000000E-002  0.96875000000000000        0.0000000000000000     
   3.1250000000000000E-002  0.98437500000000000        0.0000000000000000     
   9.3749999999999997E-003  0.97812500000000002        0.0000000000000000     
   2.0312500000000001E-002  0.97968750000000004        0.0000000000000000     
   2.1874999999999999E-002  0.99062499999999998        0.0000000000000000     
   1.0937499999999999E-002  0.98906249999999996        0.0000000000000000     
   4.6875000000000000E-002  0.96875000000000000        0.0000000000000000     
   6.2500000000000000E-002  0.96875000000000000        0.0000000000000000     
   6.2500000000000000E-002  0.98437500000000000        0.0000000000000000     
   4.0625000000000001E-002  0.97812500000000002        0.0000000000000000     
   5.1562499999999997E-002  0.97968750000000004        0.0000000000000000     
   5.3124999999999999E-002  0.99062499999999998        0.0000000000000000     
   4.2187500000000003E-002  0.98906249999999996        0.0000000000000000     
   1.5625000000000000E-002  0.93750000000000000        0.0000000000000000     
   3.1250000000000000E-002  0.93750000000000000        0.0000000000000000     
   3.1250000000000000E-002  0.95312500000000000        0.0000000000000000     
   9.3749999999999997E-003  0.94687500000000002        0.0000000000000000     
   2.0312500000000001E-002  0.94843750000000004        0.0000000000000000     
   2.1874999999999999E-002  0.95937499999999998        0.0000000000000000     
   1.0937499999999999E-002  0.95781249999999996        0.0000000000000000     
   4.6875000000000000E-002  0.93750000000000000        0.0000000000000000     
   6.2500000000000000E-002  0.93750000000000000        0.0000000000000000     
   6.2500000000000000E-002  0.95312500000000000        0.0000000000000000     
   4.0625000000000001E-002  0.94687500000000002        0.0000000000000000     
   5.1562499999999997E-002  0.94843750000000004        0.0000000000000000     
   5.3124999999999999E-002  0.95937499999999998        0.0000000000000000     
   4.2187500000000003E-002  0.95781249999999996        0.0000000000000000     
   7.8125000000000000E-002  0.96875000000000000        0.0000000000000000     
   9.3750000000000000E-002  0.96875000000000000        0.0000000000000000     
   9.3750000000000000E-002  0.98437500000000000        0.0000000000000000     
   7.1874999999999994E-002  0.97812500000000002        0.0000000000000000     
   8.2812499999999997E-002  0.97968750000000004        0.0000000000000000     
   8.4375000000000006E-002  0.99062499999999998        0.0000000000000000     
   7.3437500000000003E-002  0.98906249999999996        0.0000000000000000     
  0.10937500000000000       0.96875000000000000        0.0000000000000000     
  0.12500000000000000       0.96875000000000000        0.0000000000000000     
  0.12500000000000000       0.98437500000000000        0.0000000000000000     
  0.10312499999999999       0.97812500000000002        0.0000000000000000     
  0.11406250000000000       0.97968750000000004        0.0000000000000000     
  0.11562500000000001       0.99062499999999998        0.0000000000000000     
  0.10468750000000000       0.98906249999999996        0.0000000000000000     
   7.8125000000000000E-002  0.93750000000000000        0.0000000000000000     
   9.3750000000000000E-002  0.93750000000000000        0.0000000000000000     
   9.3750000000000000E-002  0.95312500000000000        0.0000000000000000     
   7.1874999999999994E-002  0.94687500000000002        0.0000000000000000     
   8.2812499999999997E-002  0.94843750000000004        0.0000000000000000     
   8.4375000000000006E-002  0.95937499999999998        0.0000000000000000     
   7.3437500000000003E-002  0.95781249999999996        0.0000000000000000     
  0.10937500000000000       0.93750000000000000        0.0000000000000000     
  0.12500000000000000       0.93750000000000000        0.0000000000000000     
  0.12500000000000000       0.95312500000000000        0.0000000000000000     
  0.10312499999999999       0.94687500000000002        0.0000000000000000     
  0.11406250000000000       0.94843750000000004        0.0000000000000000     
  0.11562500000000001       0.95937499999999998        0.0000000000000000     
  0.10468750000000000       0.95781249999999996        0.0000000000000000     
   1.5625000000000000E-002  0.90625000000000000        0.0000000000000000     
   3.1250000000000000E-002  0.90625000000000000        0.0000000000000000     
   3.1250000000000000E-002  0.92187500000000000        0.0000000000000000     
   9.3749999999999997E-003  0.91562500000000002        0.0000000000000000     
   2.0312500000000001E-002  0.91718750000000004        0.0000000000000000     
   2.1874999999999999E-002  0.92812499999999998        0.0000000000000000     
   1.0937499999999999E-002  0.92656249999999996        0.0000000000000000     
   4.6875000000000000E-002  0.90625000000000000        0.0000000000000000     
   6.2500000000000000E-002  0.90625000000000000        0.0000000000000000     
   6.2500000000000000E-002  0.92187500000000000        0.0000000000000000     
   4.0625000000000001E-002  0.91562500000000002        0.0000000000000000     
   5.1562499999999997E-002  0.91718750000000004        0.0000000000000000     
   5.3124999999999999E-002  0.92812499999999998        0.0000000000000000     
   4.2187500000000003E-002  0.92656249999999996        0.0000000000000000     
   1.5625000000000000E-002  0.87500000000000000        0.0000000000000000     
   3.1250000000000000E-002  0.87500000000000000        0.0000000000000000     
   3.1250000000000000E-002  0.89062500000000000        0.0000000000000000     
   9.3749999999999997E-003  0.88437500000000002        0.0000000000000000     
   2.0312500000000001E-002  0.88593750000000004        0.0000000000000000     
   2.1874999999999999E-002  0.89687499999999998        0.0000000000000000     
   1.0937499999999999E-002  0.89531249999999996        0.0000000000000000     
   4.6875000000000000E-002  0.87500000000000000        0.0000000000000000     
   6.2500000000000000E-002  0.87500000000000000        0.0000000000000000     
   6.2500000000000000E-002  0.89062500000000000        0.0000000000000000     
   4.0625000000000001E-002  0.88437500000000002        0.0000000000000000     
   5.1562499999999997E-002  0.88593750000000004        0.0000000000000000     
   5.3124999999999999E-002  0.89687499999999998        0.0000000000000000     
   4.2187500000000003E-002  0.89531249999999996        0.0000000000000000     
   7.8125000000000000E-002  0.90625000000000000        0.0000000000000000     
   9.3750000000000000E-002  0.90625000000000000        0.0000000000000000     
   9.3750000000000000E-002  0.92187500000000000        0.0000000000000000     
   7.1874999999999994E-002  0.91562500000000002        0.0000000000000000     
   8.2812499999999997E-002  0.91718750000000004        0.0000000000000000     
   8.4375000000000006E-002  0.92812499999999998        0.0000000000000000     
   7.3437500000000003E-002  0.92656249999999996        0.0000000000000000     
  0.10937500000000000       0.90625000000000000        0.0000000000000000     
  0.12500000000000000       0.90625000000000000        0.0000000000000000     
  0.12500000000000000       0.92187500000000000        0.0000000000000000     
  0.10312499999999999       0.91562500000000002        0.0000000000000000     
  0.11406250000000000       0.91718750000000004        0.0000000000000000     
  0.11562500000000001       0.92812499999999998        0.0000000000000000     
  0.10468750000000000       0.92656249999999996        0.0000000000000000     
   7.8125000000000000E-002  0.87500000000000000        0.0000000000000000     
   9.3750000000000000E-002  0.87500000000000000        0.0000000000000000     
   9.3750000000000000E-002  0.89062500000000000        0.0000000000000000     
   7.1874999999999994E-002  0.88437500000000002        0.0000000000000000     
   8.2812499999999997E-002  0.88593750000000004        0.0000000000000000     
   8.4375000000000006E-002  0.89687499999999998        0.0000000000000000     
   7.3437500000000003E-002  0.89531249999999996        0.0000000000000000     
  0.10937500000000000       0.87500000000000000        0.0000000000000000     
  0.12500000000000000       0.87500000000000000        0.0000000000000000     
  0.12500000000000000       0.89062500000000000        0.0000000000000000     
  0.10312499999999999       0.88437500000000002        0.0000000000000000     
  0.11406250000000000       0.88593750000000004        0.0000000000000000     
  0.11562500000000001       0.89687499999999998        0.0000000000000000     
  0.10468750000000000       0.89531249999999996        0.0000000000000000     
  0.14062500000000000       0.96875000000000000        0.0000000000000000     
  0.15625000000000000       0.96875000000000000        0.0000000000000000     
  0.15625000000000000       0.98437500000000000        0.0000000000000000     
  0.13437499999999999       0.97812500000000002        0.0000000000000000     
  0.14531250000000001       0.97968750000000004        0.0000000000000000     
  0.14687500000000001       0.99062499999999998        0.0000000000000000     
  0.13593749999999999       0.98906249999999996        0.0000000000000000     
  0.17187500000000000       0.96875000000000000        0.0000000000000000     
  0.18750000000000000       0.96875000000000000        0.0000000000000000     
  0.18750000000000000       0.98437500000000000        0.0000000000000000     
  0.16562499999999999       0.97812500000000002        0.0000000000000000     
  0.17656250000000001       0.97968750000000004        0.0000000000000000     
[...]
 CELL_DATA       14336
 SCALARS Nutrient float
 LOOKUP_TABLE default
    0.52156767153109821408E-02
    0.52155922515567908204E-02
    0.52162438712877109981E-02
    0.52162438712188285983E-02
    0.52155922518321157222E-02
    0.52156767150714532580E-02
    0.52151593846206066585E-02
    0.52148540039476491692E-02
    0.52145241655377691514E-02
    0.52145241639559537436E-02
    0.52148540047624149588E-02
    0.52151593842832532494E-02
    0.52151115636499302541E-02
    0.52151115633927011203E-02
    0.52178161246385842964E-02
    0.52183861763853102086E-02
    0.52199338156793369595E-02
    0.52203620394276253197E-02
    0.52192018889695244305E-02
    0.52197583104101798884E-02
    0.52185419039543811184E-02
    0.52175301966265255627E-02
    0.52164626568696175618E-02
    0.52160790556595127906E-02
    0.52167454977131580765E-02
    0.52166628418905194864E-02
    0.52177054079110421828E-02
    0.52179348887222880629E-02
    0.52197583104559809250E-02
    0.52192018889292953257E-02
    0.52203620394467714627E-02
    0.52199338156626497870E-02
    0.52183861764537389782E-02
    0.52178161245545005148E-02
    0.52166628420597365573E-02
    0.52167454975495623770E-02
    0.52160790558735846065E-02
    0.52164626566682838205E-02
    0.52175301967341651543E-02
    0.52185419039220701590E-02
    0.52179348887761807171E-02
    0.52177054078876754575E-02
    0.52226290197604913201E-02
    0.52228780489216117960E-02
    0.52252968616343297911E-02
    0.52252968616279737643E-02
    0.52228780489400042017E-02
    0.52226290197367178023E-02
    0.52204845856885281202E-02
    0.52198733578795652663E-02
    0.52182784355386310077E-02
    0.52182784354561700599E-02
    0.52198733579319070777E-02
    0.52204845856552821448E-02
    0.52211889006590376724E-02
    0.52211889006440921623E-02
    0.52235345056241104522E-02
    0.52250749334051740241E-02
    0.52280923735442243541E-02
    0.52292160391816545212E-02
    0.52272198211309002167E-02
    0.52285704683428906037E-02
    0.52261868742045350031E-02
    0.52239746879778718724E-02
    0.52216869593607372416E-02
    0.52207193121993449025E-02
    0.52219409015435624619E-02
    0.52213537998011009741E-02
    0.52240210704826584714E-02
    0.52246294649361526771E-02
    0.52349698139892916759E-02
    0.52380736106895746385E-02
    0.52434041849252922135E-02
    0.52455705351509909762E-02
    0.52422054160131117614E-02
    0.52447013251916765886E-02
    0.52404884128015877948E-02
    0.52364821223538646558E-02
    0.52323167105614281497E-02
    0.52304240790438912348E-02
    0.52325643511110884326E-02
    0.52311509344740176469E-02
    0.52364019263244467386E-02
    0.52375803755598778280E-02
    0.52301254048898347324E-02
    0.52313289378292304396E-02
    0.52355708081343712082E-02
    0.52361361648648021075E-02
    0.52323649353460113462E-02
    0.52325808689959426093E-02
    0.52288615047262525584E-02
    0.52272194393316873118E-02
    0.52241760989139712779E-02
    0.52237179039650877971E-02
    0.52262664156026194043E-02
    0.52265518185590324751E-02
    0.52288835986613255158E-02
    0.52291743749733983135E-02
    0.52443181797559067572E-02
    0.52470865297470584837E-02
    0.52543874372289389382E-02
    0.52558971272255597743E-02
    0.52498611852006349734E-02
    0.52508237156674185050E-02
    0.52445478378380467818E-02
    0.52412446382387734012E-02
    0.52358787335890473805E-02
    0.52346644569213800560E-02
    0.52387004131699468207E-02
    0.52384740405120250664E-02
    0.52434222010232477140E-02
    0.52442000405463883722E-02
    0.52285704683725274869E-02
    0.52272198211414204472E-02
    0.52292160392022769139E-02
    0.52280923735555737825E-02
    0.52250749334303596069E-02
    0.52235345056124270896E-02
    0.52213537998419658551E-02
    0.52219409015239800359E-02
    0.52207193122442967920E-02
    0.52216869593435348562E-02
    0.52239746880101620152E-02
    0.52261868742215986106E-02
    0.52246294649587248990E-02
    0.52240210704933703889E-02
    0.52325808690152145197E-02
    0.52323649353541428625E-02
    0.52361361648810243741E-02
    0.52355708081451065444E-02
    0.52313289378424577061E-02
    0.52301254048853678194E-02
    0.52265518185715988120E-02
    0.52262664155923880052E-02
    0.52237179039906662947E-02
    0.52241760989049030109E-02
    0.52272194393515455588E-02
    0.52288615047327065971E-02
    0.52291743749873862562E-02
    0.52288835986667994357E-02
    0.52447013252540294892E-02
    0.52422054160639157405E-02
    0.52455705352067137637E-02
    0.52434041849729225160E-02
    0.52380736107303345686E-02
    0.52349698140130010091E-02
    0.52311509345004322813E-02
    0.52325643511354257356E-02
    0.52304240790743443054E-02
    0.52323167105903338470E-02
    0.52364821224005313194E-02
    0.52404884128598380744E-02
    0.52375803756042607282E-02
    0.52364019263617224767E-02
    0.52508237157244301921E-02
    0.52498611852508569528E-02
    0.52558971272863436175E-02
    0.52543874372833485401E-02
    0.52470865297877620353E-02
    0.52443181797804079916E-02
    0.52384740405320784698E-02
    0.52387004131913498389E-02
    0.52346644569468085001E-02
    0.52358787336132294257E-02
    0.52412446382783988222E-02
    0.52445478378841670075E-02
    0.52442000405872671309E-02
    0.52434222010591911844E-02
    0.52430277719049218563E-02
    0.52439630181022487895E-02
    0.52502537327887002436E-02
    0.52502537327850278340E-02
    0.52439630180993908326E-02
    0.52430277718925073077E-02
    0.52372939860760060748E-02
    0.52359653585509506254E-02
    0.52315649585609686270E-02
    0.52315649585559786949E-02
    0.52359653585603094586E-02
    0.52372939860858480285E-02
    0.52396000865645459693E-02
    0.52396000865619239348E-02
    0.52624639232209807771E-02
    0.52652326915766040419E-02
    0.52758220820826916622E-02
    0.52768084297318768386E-02
    0.52669505078606132162E-02
    0.52664258408424147184E-02
    0.52569326001247335123E-02
    0.52538665273507952416E-02
    0.52463558191611584652E-02
    0.52456861771563167984E-02
    0.52523907844852042379E-02
    0.52534052816482108839E-02
    0.52588143078698343369E-02
    0.52592817501871192212E-02
    0.52664258409074425626E-02
    0.52669505079149690416E-02
    0.52768084297945350505E-02
    0.52758220821329648159E-02
    0.52652326916119351549E-02
    0.52624639232389299609E-02
    0.52534052816554160578E-02
    0.52523907845036339401E-02
    0.52456861771756693735E-02
    0.52463558191855573509E-02
    0.52538665273928596838E-02
    0.52569326001826195000E-02
    0.52592817502278687430E-02
    0.52588143079038886935E-02
    0.52948462225944920717E-02
    0.52974748005796597899E-02
    0.53134407186649582761E-02
    0.53134407186535628775E-02
    0.52974748005596618977E-02
    0.52948462225478080609E-02
    0.52803402637789306762E-02
    0.52772193672072599188E-02
    0.52661528569154245419E-02
    0.52661528569241345885E-02
    0.52772193672282500729E-02
    0.52803402638279652373E-02
    0.52864755190058431919E-02
    0.52864755189998124257E-02
    0.52554942699644131149E-02
    0.52610746681542603503E-02
    0.52703101827859186179E-02
    0.52741883763617151970E-02
    0.52684411129670276688E-02
    0.52728467721643561966E-02
    0.52655752273550035167E-02
    0.52585730849594612343E-02
    0.52513231216398644288E-02
    0.52479706327813171671E-02
    0.52516192933246639424E-02
    0.52489887256147622907E-02
    0.52583094512054359346E-02
    0.52604057857721549241E-02
    0.52914351156713151231E-02
    0.53011896413821153751E-02
    0.53172615284732618890E-02
    0.53239545342332874819E-02
    0.53139189280326506667E-02
    0.53214154181022727680E-02
    0.53088996281045932463E-02
    0.52968470325535825863E-02
    0.52843108354225804685E-02
    0.52785094310593876424E-02
    0.52847941866648283360E-02
    0.52801581035303996048E-02
    0.52964007388712399521E-02
    0.53000306872765167929E-02
    0.52698705136239093125E-02
    0.52752948723120366564E-02
    0.52879678818898720807E-02
    0.52910765126876584119E-02
    0.52809285664242415492E-02
    0.52830059833467845481E-02
    0.52721850955937035049E-02
    0.52661951566146296758E-02
    0.52569091685959832422E-02
    0.52545232170294296770E-02
    0.52611248727984219128E-02
    0.52600791289140634219E-02
    0.52694269262707153084E-02
    0.52709933601434253575E-02
    0.53153533031190334374E-02
    0.53253709125547585984E-02
    0.53476323952176092399E-02
    0.53533617503739357874E-02
    0.53356727553341542353E-02
    0.53393855050760793621E-02
    0.53205326182007477501E-02
    0.53099955593151866931E-02
    0.52938316882088273102E-02
    0.52895122907328437356E-02
    0.53007840877456954831E-02
    0.52984936690650520988E-02
    0.53153654017939807458E-02
    0.53182210232860334040E-02
    0.53538380774491830041E-02
    0.53704215249636456930E-02
    0.53980740935561542446E-02
    0.54090741816588032778E-02
    0.53915733375588153001E-02
    0.54038173521395891849E-02
    0.53826496102857340417E-02
    0.53623399276065868493E-02
    0.53410168330957292007E-02
    0.53311350819848224436E-02
    0.53420415625240530097E-02
    0.53342544017180139673E-02
    0.53618978347802119869E-02
    0.53679677997471005393E-02
    0.54604037424885436963E-02
    0.54873845255364863890E-02
    0.55341789689090864837E-02
    0.55511508774690639101E-02
    0.55208090297618446843E-02
    0.55397088761923746897E-02
    0.55049402035451354409E-02
    0.54717925745167506416E-02
    0.54363706483059439159E-02
    0.54200836279649422175E-02
    0.54388626918836068674E-02
    0.54265046503904727782E-02
    0.54720540619855179143E-02
    0.54817714663781694565E-02
    0.53962436944271123876E-02
    0.54139701694135592899E-02
    0.54534431074961592020E-02
    0.54631817082168784849E-02
    0.54314594707459322789E-02
    0.54370410788303312477E-02
    0.54040734092135802452E-02
    0.53862498314424427440E-02
    0.53581142686123456667E-02
    0.53507257786504641706E-02
    0.53705323153568264999E-02
    0.53664843277271617392E-02
    0.53961268921991819431E-02
    0.54009900511549939137E-02
    0.55393473054354304408E-02
    0.55692539500385562085E-02
    0.56389909530592851120E-02
    0.56538858287868941355E-02
    0.55963838457007298449E-02
    0.56028140323487228905E-02
    0.55455200537679726763E-02
    0.55168566167544527343E-02
    0.54683881295965472771E-02
    0.54565157439241908019E-02
    0.54919887032977903960E-02
    0.54861788563777607805E-02
    0.55363630635830987300E-02
    0.55439778402548026484E-02
    0.52972136870807016301E-02
    0.53032171132102613048E-02
    0.53213320014937146724E-02
    0.53241144066598095758E-02
    0.53079593079469362948E-02
    0.53081734963234972896E-02
    0.52919966279725630387E-02
    0.52858997216490141366E-02
    0.52729772740421013838E-02
    0.52711829122272851542E-02
    0.52819221834272400695E-02
    0.52824271444174069820E-02
    0.52931905735488192499E-02
    0.52944648218436465500E-02
    0.53592247451071774525E-02
    0.53712398686602946113E-02
    0.54031679859297280025E-02
    0.54093144441940540709E-02
    0.53815167251030845974E-02
    0.53828615624545595592E-02
    0.53544934976116368916E-02
    0.53431208610052165903E-02
    0.53204336913320292302E-02
    0.53166697073309399091E-02
    0.53346689984299783260E-02
    0.53341657182069289120E-02
    0.53547248644418531105E-02
    0.53574659579124061376E-02
    0.53441191939468616484E-02
    0.53507762840571213708E-02
    0.53772282813117893568E-02
    0.53794069117478297837E-02
    0.53543458953796566405E-02
    0.53523038123764283755E-02
    0.53282240414065304424E-02
    0.53213271159524592677E-02
    0.53026495013219826155E-02
    0.53013950185245399538E-02
    0.53184607927127380139E-02
    0.53213314196099720937E-02
    0.53344067656940696506E-02
    0.53353482342196976301E-02
    0.54304632092797800944E-02
    0.54452764578915031218E-02
    0.54908908458627539786E-02
    0.54979280722486020827E-02
    0.54565208840045963806E-02
    0.54561047164782845026E-02
    0.54143637579348461233E-02
    0.54002212361634136656E-02
    0.53677236329993799346E-02
    0.53640076438289212291E-02
    0.53915040247487083791E-02
    0.53933488305789208106E-02
    0.54196684189281273125E-02
    0.54225897831239209743E-02
    0.54716876956620212960E-02
    0.54946689230934066955E-02
    0.55523240406756312407E-02
    0.55641765211100124508E-02
    0.55142441099253055800E-02
    0.55166568050143685240E-02
    0.54658502745146770110E-02
    0.54455330473498816252E-02
    0.54051360673817681890E-02
    0.53980895900530932036E-02
    0.54295900185260467796E-02
    0.54275214182863389806E-02
    0.54656927027669967994E-02
    0.54708918090285709943E-02
    0.56775969302640515862E-02
    0.57195533446350380058E-02
    0.58250374129409721383E-02
    0.58453724750750059649E-02
    0.57529721465329674776E-02
    0.57542517862523723943E-02
    0.56624487979228567414E-02
    0.56280885932789527157E-02
    0.55558062576561975318E-02
    0.55438598058802504923E-02
    0.56009850957551418280E-02
    0.55973466450475488007E-02
    0.56661690353118224564E-02
    0.56750314078947931146E-02
    0.55872085432268209226E-02
    0.56185265643560432236E-02
    0.57009784191260530831E-02
    0.57176623341788105834E-02
    0.56448940450730079529E-02
    0.56471732926602069558E-02
    0.55718962389239264435E-02
    0.55444038917723979451E-02
    0.54859232860458686035E-02
    0.54775007545391028035E-02
    0.55243071929751775065E-02
    0.55234416075919433656E-02
    0.55757856237624641924E-02
    0.55825896735091458042E-02
    0.58808627226568065127E-02
    0.59436318418452415216E-02
    0.60976450252256146276E-02
    0.61314620772775279764E-02
    0.59965683822947460704E-02
    0.60009260484284558668E-02
    0.58615708257159417766E-02
    0.58107885269724586161E-02
    0.57032688443470281117E-02
    0.56867478321173201700E-02
    0.57709737310803537955E-02
    0.57654696533892277679E-02
    0.58668341812173462752E-02
    0.58804217755389258729E-02
    0.52728467723121954028E-02
    0.52684411130966678910E-02
    0.52741883765020204991E-02
    0.52703101829110459570E-02
    0.52610746682566836285E-02
    0.52554942700436804368E-02
    0.52489887256781568928E-02
    0.52516192934018738822E-02
    0.52479706328538633028E-02
    0.52513231217235951942E-02
    0.52585730850693715790E-02
    0.52655752274942966076E-02
    0.52604057858805950906E-02
    0.52583094513047575272E-02
    0.52830059834967366475E-02
    0.52809285665658921294E-02
    0.52910765128542933469E-02
    0.52879678820461021443E-02
    0.52752948724315313483E-02
    0.52698705137169052359E-02
    0.52600791289826292346E-02
    0.52611248728795757465E-02
    0.52545232170993433699E-02
    0.52569091686766496185E-02
    0.52661951567216777267E-02
    0.52721850957205395466E-02
    0.52709933602585849755E-02
    0.52694269263785890878E-02
    0.53214154184239486137E-02
    0.53139189283211412523E-02
    0.53239545345469246190E-02
    0.53172615287582760887E-02
    0.53011896416179579705E-02
    0.52914351158651349097E-02
    0.52801581036857588372E-02
    0.52847941868488929051E-02
    0.52785094312288076759E-02
    0.52843108356164670419E-02
    0.52968470327972938874E-02
    0.53088996284056406277E-02
    0.53000306875206834589E-02
    0.52964007390986006171E-02
    0.53393855054193351678E-02
    0.53356727556663373011E-02
    0.53533617507624800189E-02
    0.53476323955893466031E-02
    0.53253709128459085151E-02
    0.53153533033618149267E-02
    0.52984936692501167360E-02
    0.53007840879533097908E-02
    0.52895122909092642458E-02
    0.52938316884069283944E-02
    0.53099955595679428424E-02
    0.53205326184930209002E-02
    0.53182210235606991108E-02
    0.53153654020559708282E-02
    0.53081734965159379711E-02
    0.53079593081253369918E-02
    0.53241144068678827178E-02
    0.53213320016814620594E-02
    0.53032171133532432852E-02
    0.52972136871908947348E-02
    0.52824271444920191734E-02
    0.52819221835227574136E-02
    0.52711829123086896554E-02
    0.52729772741379908260E-02
    0.52858997217827847354E-02
    0.52919966281393115981E-02
    0.52944648219854706026E-02
    0.52931905736797969439E-02
    0.53523038125920779223E-02
    0.53543458955554179557E-02
    0.53794069119396711182E-02
    0.53772282814614725741E-02
    0.53507762841639334994E-02
    0.53441191940003952149E-02
    0.53213314196344759302E-02
    0.53184607927822700676E-02
    0.53013950185938430240E-02
    0.53026495014234162340E-02
    0.53213271160927793149E-02
    0.53282240415999746613E-02
    0.53353482343520657050E-02
    0.53344067658055551243E-02
    0.53828615629186978356E-02
    0.53815167255477480007E-02
    0.54093144447185138868E-02
    0.54031679864158478274E-02
    0.53712398690446000460E-02
    0.53592247454292783054E-02
    0.53341657184444099538E-02
    0.53346689987000556893E-02
    0.53166697075576561243E-02
    0.53204336915854549828E-02
    0.53431208613403157262E-02
    0.53544934980080697781E-02
    0.53574659582769426636E-02
    0.53547248647875010999E-02
    0.54561047170648500210E-02
    0.54565208845365155074E-02
    0.54979280728483940002E-02
    0.54908908463986039888E-02
    0.54452764583052849778E-02
    0.54304632095973463801E-02
    0.53933488308044504750E-02
    0.53915040250445238346E-02
    0.53640076440920475553E-02
    0.53677236333184901243E-02
    0.54002212365772657779E-02
    0.54143637584473667049E-02
    0.54225897835509613218E-02
    0.54196684193207186539E-02
    0.54038173527955384381E-02
    0.53915733381563659549E-02
    0.54090741823085413537E-02
    0.53980740941577433356E-02
    0.53704215254637343788E-02
    0.53538380778729143666E-02
    0.53342544020617589651E-02
    0.53420415629198856819E-02
    0.53311350823479711908E-02
    0.53410168335059210465E-02
    0.53623399281113775031E-02
    0.53826496108973428956E-02
    0.53679678002569626571E-02
    0.53618978352595993500E-02
    0.54370410795577103422E-02
    0.54314594714562148062E-02
    0.54631817090516777286E-02
    0.54534431082970133767E-02
    0.54139701700533565329E-02
    0.53962436949771064656E-02
    0.53664843281562794181E-02
    0.53705323158220194882E-02
    0.53507257790465596534E-02
    0.53581142690462910810E-02
    0.53862498319871372418E-02
    0.54040734098309275643E-02
    0.54009900517504290732E-02
    0.53961268927721402905E-02
    0.55397088774598339175E-02
    0.55208090309403099957E-02
    0.55511508787695522729E-02
    0.55341789701150037942E-02
    0.54873845265435931134E-02
    0.54604037433550849101E-02
    0.54265046511022072689E-02
    0.54388626926846544637E-02
    0.54200836286990008647E-02
    0.54363706491255183589E-02
    0.54717925755097549315E-02
    0.55049402047263520238E-02
    0.54817714673900484051E-02
    0.54720540629437167124E-02
    0.56028140337929088072E-02
    0.55963838471424177598E-02
    0.56538858304930267665E-02
    0.56389909547042973634E-02
    0.55692539513594336437E-02
    0.55393473065961200408E-02
    0.54861788572895106228E-02
    0.54919887042689649256E-02
    0.54565157447483362413E-02
    0.54683881304905057955E-02
    0.55168566178618073936E-02
    0.55455200550057360404E-02
    0.55439778414718664246E-02
    0.55363630647623923720E-02
    0.55166568060227086367E-02
    0.55142441109139531119E-02
    0.55641765222744126243E-02
    0.55523240417823926246E-02
    0.54946689239774833616E-02
    0.54716876964340478359E-02
    0.54275214188706025209E-02
    0.54295900191616459918E-02
    0.53980895905842004798E-02
    0.54051360679611137883E-02
    0.54455330480959827227E-02
    0.54658502753748318403E-02
    0.54708918098499226615E-02
    0.54656927035567738973E-02
    0.56471732940217836058E-02
    0.56448940463525842243E-02
    0.57176623356533350789E-02
    0.57009784204810247735E-02
    0.56185265654378471409E-02
    0.55872085441263106068E-02
    0.55234416082765979555E-02
    0.55243071937646284764E-02
    0.54775007552274159253E-02
    0.54859232868251115930E-02
    0.55444038927638088915E-02
    0.55718962400916139180E-02