# vtk DataFile Version 3.0
LAPLACIEN  2D
ASCII
DATASET UNSTRUCTURED_GRID
FIELD FieldData 1
TIME 1 1 double
1.0000
 POINTS        7297  float
   1.5625000000000000E-002  0.96875000000000000        0.0000000000000000     
   3.1250000000000000E-002  0.96875000000000000        0.0000000000000000     
   3.1250000000000000E-002  0.98437500000000000        0.0000000000000000     
   9.3749999999999997E-003  0.97812500000000002        0.0000000000000000     
   2.0312500000000001E-002  0.97968750000000004        0.0000000000000000     
   2.1874999999999999E-002  0.99062499999999998        0.0000000000000000     
   1.0937499999999999E-002  0.98906249999999996        0.0000000000000000     
   4.6875000000000000E-002  0.96875000000000000        0.0000000000000000     
   6.2500000000000000E-002  0.96875000000000000        0.0000000000000000     
   6.2500000000000000E-002  0.98437500000000000        0.0000000000000000     
   4.0625000000000001E-002  0.97812500000000002        0.0000000000000000     
   5.1562499999999997E-002  0.97968750000000004        0.0000000000000000     
   5.3124999999999999E-002  0.99062499999999998        0.0000000000000000     
   4.2187500000000003E-002  0.98906249999999996        0.0000000000000000     
   1.5625000000000000E-002  0.93750000000000000        0.0000000000000000     
   3.1250000000000000E-002  0.93750000000000000        0.0000000000000000     
   3.1250000000000000E-002  0.95312500000000000        0.0000000000000000     
   9.3749999999999997E-003  0.94687500000000002        0.0000000000000000     
   2.0312500000000001E-002  0.94843750000000004        0.0000000000000000     
   2.1874999999999999E-002  0.95937499999999998        0.0000000000000000     
   1.0937499999999999E-002  0.95781249999999996        0.0000000000000000     
   4.6875000000000000E-002  0.93750000000000000        0.0000000000000000     
   6.2500000000000000E-002  0.93750000000000000        0.0000000000000000     
   6.2500000000000000E-002  0.95312500000000000        0.0000000000000000     
   4.0625000000000001E-002  0.94687500000000002        0.0000000000000000     
   5.1562499999999997E-002  0.94843750000000004        0.0000000000000000     
   5.3124999999999999E-002  0.95937499999999998        0.0000000000000000     
   4.2187500000000003E-002  0.95781249999999996        0.0000000000000000     
   7.8125000000000000E-002  0.96875000000000000        0.0000000000000000     
   9.3750000000000000E-002  0.96875000000000000        0.0000000000000000     
   9.3750000000000000E-002  0.98437500000000000        0.0000000000000000     
   7.1874999999999994E-002  0.97812500000000002        0.0000000000000000     
   8.2812499999999997E-002  0.97968750000000004        0.0000000000000000     
   8.4375000000000006E-002  0.99062499999999998        0.0000000000000000     
   7.3437500000000003E-002  0.98906249999999996        0.0000000000000000     
  0.10937500000000000       0.96875000000000000        0.0000000000000000     
  0.12500000000000000       0.96875000000000000        0.0000000000000000     
  0.12500000000000000       0.98437500000000000        0.0000000000000000     
  0.10312499999999999       0.97812500000000002        0.0000000000000000     
  0.11406250000000000       0.97968750000000004        0.0000000000000000     
  0.11562500000000001       0.99062499999999998        0.0000000000000000     
  0.10468750000000000       0.98906249999999996        0.0000000000000000     
   7.8125000000000000E-002  0.93750000000000000        0.0000000000000000     
   9.3750000000000000E-002  0.93750000000000000        0.0000000000000000     
   9.3750000000000000E-002  0.95312500000000000        0.0000000000000000     
   7.1874999999999994E-002  0.94687500000000002        0.0000000000000000     
   8.2812499999999997E-002  0.94843750000000004        0.0000000000000000     
   8.4375000000000006E-002  0.95937499999999998        0.0000000000000000     
   7.3437500000000003E-002  0.95781249999999996        0.0000000000000000     
  0.10937500000000000       0.93750000000000000        0.0000000000000000     
  0.12500000000000000       0.93750000000000000        0.0000000000000000     
  0.12500000000000000       0.95312500000000000        0.0000000000000000     
  0.10312499999999999       0.94687500000000002        0.0000000000000000     
  0.11406250000000000       0.94843750000000004        0.0000000000000000     
  0.11562500000000001       0.95937499999999998        0.0000000000000000     
  0.10468750000000000       0.95781249999999996        0.0000000000000000     
   1.5625000000000000E-002  0.90625000000000000        0.0000000000000000     
   3.1250000000000000E-002  0.90625000000000000        0.0000000000000000     
   3.1250000000000000E-002  0.92187500000000000        0.0000000000000000     
   9.3749999999999997E-003  0.91562500000000002        0.0000000000000000     
   2.0312500000000001E-002  0.91718750000000004        0.0000000000000000     
   2.1874999999999999E-002  0.92812499999999998        0.0000000000000000     
   1.0937499999999999E-002  0.92656249999999996        0.0000000000000000     
   4.6875000000000000E-002  0.90625000000000000        0.0000000000000000     
   6.2500000000000000E-002  0.90625000000000000        0.0000000000000000     
   6.2500000000000000E-002  0.92187500000000000        0.0000000000000000     
   4.0625000000000001E-002  0.91562500000000002        0.0000000000000000     
   5.1562499999999997E-002  0.91718750000000004        0.0000000000000000     
   5.3124999999999999E-002  0.92812499999999998        0.0000000000000000     
   4.2187500000000003E-002  0.92656249999999996        0.0000000000000000     
   1.5625000000000000E-002  0.87500000000000000        0.0000000000000000     
   3.1250000000000000E-002  0.87500000000000000        0.0000000000000000     
   3.1250000000000000E-002  0.89062500000000000        0.0000000000000000     
   9.3749999999999997E-003  0.88437500000000002        0.0000000000000000     
   2.0312500000000001E-002  0.88593750000000004        0.0000000000000000     
   2.1874999999999999E-002  0.89687499999999998        0.0000000000000000     
   1.0937499999999999E-002  0.89531249999999996        0.0000000000000000     
   4.6875000000000000E-002  0.87500000000000000        0.0000000000000000     
   6.2500000000000000E-002  0.87500000000000000        0.0000000000000000     
   6.2500000000000000E-002  0.89062500000000000        0.0000000000000000     
   4.0625000000000001E-002  0.88437500000000002        0.0000000000000000     
   5.1562499999999997E-002  0.88593750000000004        0.0000000000000000     
   5.3124999999999999E-002  0.89687499999999998        0.0000000000000000     
   4.2187500000000003E-002  0.89531249999999996        0.0000000000000000     
   7.8125000000000000E-002  0.90625000000000000        0.0000000000000000     
   9.3750000000000000E-002  0.90625000000000000        0.0000000000000000     
   9.3750000000000000E-002  0.92187500000000000        0.0000000000000000     
   7.1874999999999994E-002  0.91562500000000002        0.0000000000000000     
   8.2812499999999997E-002  0.91718750000000004        0.0000000000000000     
   8.4375000000000006E-002  0.92812499999999998        0.0000000000000000     
   7.3437500000000003E-002  0.92656249999999996        0.0000000000000000     
  0.10937500000000000       0.90625000000000000        0.0000000000000000     
  0.12500000000000000       0.90625000000000000        0.0000000000000000     
  0.12500000000000000       0.92187500000000000        0.0000000000000000     
  0.10312499999999999       0.91562500000000002        0.0000000000000000     
  0.11406250000000000       0.91718750000000004        0.0000000000000000     
  0.11562500000000001       0.92812499999999998        0.0000000000000000     
  0.10468750000000000       0.92656249999999996        0.0000000000000000     
   7.8125000000000000E-002  0.87500000000000000        0.0000000000000000     
   9.3750000000000000E-002  0.87500000000000000        0.0000000000000000     
   9.3750000000000000E-002  0.89062500000000000        0.0000000000000000     
   7.1874999999999994E-002  0.88437500000000002        0.0000000000000000     
   8.2812499999999997E-002  0.88593750000000004        0.0000000000000000     
   8.4375000000000006E-002  0.89687499999999998        0.0000000000000000     
   7.3437500000000003E-002  0.89531249999999996        0.0000000000000000     
  0.10937500000000000       0.87500000000000000        0.0000000000000000     
  0.12500000000000000       0.87500000000000000        0.0000000000000000     
  0.12500000000000000       0.89062500000000000        0.0000000000000000     
  0.10312499999999999       0.88437500000000002        0.0000000000000000     
  0.11406250000000000       0.88593750000000004        0.0000000000000000     
  0.11562500000000001       0.89687499999999998        0.0000000000000000     
  0.10468750000000000       0.89531249999999996        0.0000000000000000     
  0.14062500000000000       0.96875000000000000        0.0000000000000000     
  0.15625000000000000       0.96875000000000000        0.0000000000000000     
  0.15625000000000000       0.98437500000000000        0.0000000000000000     
  0.13437499999999999       0.97812500000000002        0.0000000000000000     
  0.14531250000000001       0.97968750000000004        0.0000000000000000     
  0.14687500000000001       0.99062499999999998        0.0000000000000000     
  0.13593749999999999       0.98906249999999996        0.0000000000000000     
  0.17187500000000000       0.96875000000000000        0.0000000000000000     
  0.18750000000000000       0.96875000000000000        0.0000000000000000     
  0.18750000000000000       0.98437500000000000        0.0000000000000000     
  0.16562499999999999       0.97812500000000002        0.0000000000000000     
  0.17656250000000001       0.97968750000000004        0.0000000000000000     
[...]
 CELL_DATA       14336
 SCALARS Nutrient float
 LOOKUP_TABLE default
    0.12745996912490239073E-02
    0.12738661052141056745E-02
    0.12784246123983030851E-02
    0.12784246123798735997E-02
    0.12738661052689188163E-02
    0.12745996911755687764E-02
    0.12708353910254900892E-02
    0.12685790896424661237E-02
    0.12661502359911861858E-02
    0.12661502356344671912E-02
    0.12685790898380479557E-02
    0.12708353909775024337E-02
    0.12704315418121010783E-02
    0.12704315417509683388E-02
    0.12889154191375389816E-02
    0.12926924924203161277E-02
    0.13022849019115594494E-02
    0.13050374323108323085E-02
    0.12981883689720057594E-02
    0.13018795055028029549E-02
    0.12942843342245247216E-02
    0.12875013635829319139E-02
    0.12802081315457910973E-02
    0.12774017670620189946E-02
    0.12819780307649878033E-02
    0.12812681902596206786E-02
    0.12884606400850619461E-02
    0.12900825417454248999E-02
    0.13018795055404713910E-02
    0.12981883689796504689E-02
    0.13050374323213217477E-02
    0.13022849019132401796E-02
    0.12926924924440276292E-02
    0.12889154191223384672E-02
    0.12812681903033354934E-02
    0.12819780307407888445E-02
    0.12774017671285334968E-02
    0.12802081315213343152E-02
    0.12875013636331751436E-02
    0.12942843342579805985E-02
    0.12900825417752569396E-02
    0.12884606400939183600E-02
    0.13171543674212217705E-02
    0.13181575496956144701E-02
    0.13304996438963006058E-02
    0.13304996438976363429E-02
    0.13181575496996292707E-02
    0.13171543674125824139E-02
    0.13052993092743441980E-02
    0.13014984890363221794E-02
    0.12918188111732632414E-02
    0.12918188111560682287E-02
    0.13014984890502006177E-02
    0.13052993092711048188E-02
    0.13089772514201969585E-02
    0.13089772514165273678E-02
    0.13226214647643222497E-02
    0.13309842272031483391E-02
    0.13459558292122867501E-02
    0.13515461936890169926E-02
    0.13421636336364824258E-02
    0.13489417407537029371E-02
    0.13372578407133124505E-02
    0.13256940319181132089E-02
    0.13132600861501240487E-02
    0.13075832823431791842E-02
    0.13144414288375862784E-02
    0.13107995523907213509E-02
    0.13257913564629665581E-02
    0.13290839521223503632E-02
    0.13768021369224146995E-02
    0.13899763942157804773E-02
    0.14107957999638996542E-02
    0.14193007664545077926E-02
    0.14070054184862909943E-02
    0.14169413391159405274E-02
    0.14008290477635092133E-02
    0.13842608845869852630E-02
    0.13663930480954445453E-02
    0.13576955463497023674E-02
    0.13670813983590018436E-02
    0.13604119420672117387E-02
    0.13835981379010629539E-02
    0.13886198935780073860E-02
    0.13531507792463978897E-02
    0.13587272483174344349E-02
    0.13769148946223221022E-02
    0.13795891413541040618E-02
    0.13640556621959908350E-02
    0.13657269614433444754E-02
    0.13492579126756730750E-02
    0.13408811647400143124E-02
    0.13257590809801938266E-02
    0.13230377653853685801E-02
    0.13355119470287721891E-02
    0.13365990809948336167E-02
    0.13480969172554489125E-02
    0.13496661722082769520E-02
    0.14108703752461991803E-02
    0.14212284910312374467E-02
    0.14461343789449816917E-02
    0.14515630866662383204E-02
    0.14320372362301610203E-02
    0.14363373926985737328E-02
    0.14145653904301753925E-02
    0.14013846110168708733E-02
    0.13802912943703163871E-02
    0.13747749139170855042E-02
    0.13905032880403471809E-02
    0.13889677380613844274E-02
    0.14086633934190346488E-02
    0.14118462843919191065E-02
    0.13489417407951530704E-02
    0.13421636336656671967E-02
    0.13515461937156330718E-02
    0.13459558292319674048E-02
    0.13309842272241601772E-02
    0.13226214647688878251E-02
    0.13107995524021156652E-02
    0.13144414288497325953E-02
    0.13075832823796057752E-02
    0.13132600861745359448E-02
    0.13256940319589045809E-02
    0.13372578407655406375E-02
    0.13290839521524100853E-02
    0.13257913564864733623E-02
    0.13657269614601157820E-02
    0.13640556622098473725E-02
    0.13795891413732382785E-02
    0.13769148946409300472E-02
    0.13587272483283291489E-02
    0.13531507792456593312E-02
    0.13365990809898449856E-02
    0.13355119470277252835E-02
    0.13230377653950882357E-02
    0.13257590809847557157E-02
    0.13408811647541798474E-02
    0.13492579126913202808E-02
    0.13496661722200461835E-02
    0.13480969172634269058E-02
    0.14169413392374984560E-02
    0.14070054185875127597E-02
    0.14193007665594349273E-02
    0.14107958000532572120E-02
    0.13899763942855788111E-02
    0.13768021369663632682E-02
    0.13604119420968830995E-02
    0.13670813984088105251E-02
    0.13576955463995420571E-02
    0.13663930481580524503E-02
    0.13842608846758165490E-02
    0.14008290478865583536E-02
    0.13886198936607562979E-02
    0.13835981379726441497E-02
    0.14363373927995966555E-02
    0.14320372363207363540E-02
    0.14515630867724975059E-02
    0.14461343790418824777E-02
    0.14212284910985280208E-02
    0.14108703752871985023E-02
    0.13889677380824643534E-02
    0.13905032880771512910E-02
    0.13747749139471749334E-02
    0.13802912944130907649E-02
    0.14013846110830093742E-02
    0.14145653905167062184E-02
    0.14118462844609222864E-02
    0.14086633934801324770E-02
    0.14055171264416984819E-02
    0.14086676698402342267E-02
    0.14308976609388839030E-02
    0.14308976609352013019E-02
    0.14086676698348177695E-02
    0.14055171264283599763E-02
    0.13836146264799317578E-02
    0.13779323620176605388E-02
    0.13594891514074546827E-02
    0.13594891514074483943E-02
    0.13779323620269788228E-02
    0.13836146265021863084E-02
    0.13923078458577802657E-02
    0.13923078458554273302E-02
    0.14697663803042008458E-02
    0.14779822546695767400E-02
    0.15083301280733058675E-02
    0.15110956837021043229E-02
    0.14833800306787645051E-02
    0.14824242084513659587E-02
    0.14538390203479669739E-02
    0.14433044021000779149E-02
    0.14179676135408869446E-02
    0.14152912977823746583E-02
    0.14379691827396524993E-02
    0.14412826035668370277E-02
    0.14587081720238265735E-02
    0.14602832581351672583E-02
    0.14824242085616484016E-02
    0.14833800307714937149E-02
    0.15110956838057683620E-02
    0.15083301281581169319E-02
    0.14779822547284823114E-02
    0.14697663803364588962E-02
    0.14412826035744047588E-02
    0.14379691827706795465E-02
    0.14152912978087166512E-02
    0.14179676135822342955E-02
    0.14433044021704311433E-02
    0.14538390204515390727E-02
    0.14602832582035932089E-02
    0.14587081720814306686E-02
    0.15573985956708795778E-02
    0.15637497953472189859E-02
    0.16015839527792905331E-02
    0.16015839527618643684E-02
    0.15637497953146382770E-02
    0.15573985955957155274E-02
    0.15203487514638591629E-02
    0.15117953657275971010E-02
    0.14808032819093504013E-02
    0.14808032819255963035E-02
    0.15117953657622282531E-02
    0.15203487515464519497E-02
    0.15363294846453766883E-02
    0.15363294846355661765E-02
    0.14532273677143451619E-02
    0.14716359449171692499E-02
    0.14993851169509974947E-02
    0.15111335757453862698E-02
    0.14951242201527866447E-02
    0.15086241956055789024E-02
    0.14872771189730321206E-02
    0.14649954169398955554E-02
    0.14409852185047027084E-02
    0.14290047818833230553E-02
    0.14413259764896073009E-02
    0.14315526789898060014E-02
    0.14636400261638050566E-02
    0.14705601425978492066E-02
    0.15561205702016355033E-02
    0.15808655500733714925E-02
    0.16178482800559145123E-02
    0.16335444800244158445E-02
    0.16121788200941637205E-02
    0.16300005074630875487E-02
    0.16017410729376117384E-02
    0.15722885209260857153E-02
    0.15405497536293050100E-02
    0.15246414283308347502E-02
    0.15407874004368603792E-02
    0.15275084721512674230E-02
    0.15703856009902478989E-02
    0.15796025805805665246E-02
    0.14933433032131683896E-02
    0.15090507441091322288E-02
    0.15424849131048961638E-02
    0.15509556087631311792E-02
    0.15257677619970070812E-02
    0.15326658123634481073E-02
    0.15040000995327335292E-02
    0.14855115855450121230E-02
    0.14573316725051998263E-02
    0.14489094642628121828E-02
    0.14688255582228607228E-02
    0.14647193636774333975E-02
    0.14935731626366305011E-02
    0.14984743826632830783E-02
    0.16069969267583396333E-02
    0.16293630865371064656E-02
    0.16749167684556468070E-02
    0.16870288198273560975E-02
    0.16529872864289526808E-02
    0.16625475232847537494E-02
    0.16239913879157272941E-02
    0.15989563156538618913E-02
    0.15613368055571311740E-02
    0.15496176810316389470E-02
    0.15756190806480853232E-02
    0.15689430756381061820E-02
    0.16090736406900989913E-02
    0.16159617377428277252E-02
    0.16939962199695455299E-02
    0.17270511069939591120E-02
    0.17772890464988397568E-02
    0.17979822328205228958E-02
    0.17683892474516954042E-02
    0.17917168505479333547E-02
    0.17537126775838240544E-02
    0.17145637077487999988E-02
    0.16723066195674779737E-02
    0.16512428757218618105E-02
    0.16729126578558714804E-02
    0.16554277920395178529E-02
    0.17124589457666809355E-02
    0.17246312490622416579E-02
    0.18816837772103827374E-02
    0.19258757424436274801E-02
    0.19961395093837249436E-02
    0.20230210588381069767E-02
    0.19801631657674787987E-02
    0.20104007100462950586E-02
    0.19583231159121861943E-02
    0.19056381345353506050E-02
    0.18483322354260023172E-02
    0.18202346381881067457E-02
    0.18503565236720578065E-02
    0.18277336313677575597E-02
    0.19041975950432751211E-02
    0.19202636750775439571E-02
    0.17647272202286228872E-02
    0.17961597437499195878E-02
    0.18607295929399172030E-02
    0.18774083230075524608E-02
    0.18283114165241524073E-02
    0.18402701444737916241E-02
    0.17863049329795519654E-02
    0.17526853131214629230E-02
    0.17012382794166277383E-02
    0.16855098865611749161E-02
    0.17211990119074061303E-02
    0.17119176185734416833E-02
    0.17674190081225990556E-02
    0.17767530833952026922E-02
    0.19904134512114830119E-02
    0.20346184110555990375E-02
    0.21304560252762270479E-02
    0.21523607389555073251E-02
    0.20767964206693163322E-02
    0.20896141969983768674E-02
    0.20106473629629291987E-02
    0.19656440930303177225E-02
    0.18927908654762539125E-02
    0.18720999203577512807E-02
    0.19242985925705465185E-02
    0.19129189972075383297E-02
    0.19903036434400175371E-02
    0.20025502709122939768E-02
    0.15631156270773285521E-02
    0.15772362620841940632E-02
    0.16184266126172425909E-02
    0.16243703852651719590E-02
    0.15885868603111867776E-02
    0.15897131585778986190E-02
    0.15519003334482422626E-02
    0.15357751450714184939E-02
    0.15017199304568308246E-02
    0.14962461845188222177E-02
    0.15247800891922177330E-02
    0.15259340820550093294E-02
    0.15534681752186238046E-02
    0.15567440667455551429E-02
    0.16953029879273496128E-02
    0.17174412706039737971E-02
    0.17751289856578335129E-02
    0.17853685554148723651E-02
    0.17363893761546370272E-02
    0.17394962235197351536E-02
    0.16874269010427405367E-02
    0.16641207516687548523E-02
    0.16175989770194213520E-02
    0.16088805918888814724E-02
    0.16463170251753995316E-02
    0.16452803986659325641E-02
    0.16863057334580435712E-02
    0.16916944908063659154E-02
    0.16675435835396591484E-02
    0.16806139276948706476E-02
    0.17324336639814739893E-02
    0.17359633187811703871E-02
    0.16870502585598007913E-02
    0.16825253580280033310E-02
    0.16331503258604081977E-02
    0.16182813811730565028E-02
    0.15762034813607958203E-02
    0.15733071589003125301E-02
    0.16123186542816648256E-02
    0.16190347014161006467E-02
    0.16467737016268451950E-02
    0.16485911184638468371E-02
    0.18267787660896986617E-02
    0.18499892740170519045E-02
    0.19238237179233111471E-02
    0.19330819213594276768E-02
    0.18660418986132171811E-02
    0.18638506346551580832E-02
    0.17945393070486648657E-02
    0.17705768214217522828E-02
    0.17118178402438159573E-02
    0.17052462233804403357E-02
    0.17565503732114345816E-02
    0.17611642441265405561E-02
    0.18058460023051448474E-02
    0.18102536242116497658E-02
    0.18868574641747418597E-02
    0.19212232484375072264E-02
    0.20065829283598215528E-02
    0.20229723027518969544E-02
    0.19505858208408392157E-02
    0.19550838769887548749E-02
    0.18790731953466006422E-02
    0.18456460831113119352E-02
    0.17794245998016113095E-02
    0.17665963285281884292E-02
    0.18189320292067597245E-02
    0.18156613902880597809E-02
    0.18767908663008384985E-02
    0.18850102602225233313E-02
    0.21777515651175164899E-02
    0.22315578162724440670E-02
    0.23658684179163535707E-02
    0.23906764120382199487E-02
    0.22748854678143288696E-02
    0.22780328198591030635E-02
    0.21601489777195587161E-02
    0.21122824377270642791E-02
    0.20129796251429068685E-02
    0.19949053698536060170E-02
    0.20739624791649706632E-02
    0.20689935494031530538E-02
    0.21619599774234271074E-02
    0.21739259006772690408E-02
    0.20656628108874303465E-02
    0.21065771846208300108E-02
    0.22193371334714956204E-02
    0.22385959479356582619E-02
    0.21386907002586283758E-02
    0.21393415099154608830E-02
    0.20347876475121308600E-02
    0.19963938724910437750E-02
    0.19095176624195184419E-02
    0.18975014284849051147E-02
    0.19697462431441611387E-02
    0.19711248779374340029E-02
    0.20442641421477476295E-02
    0.20528745761058423899E-02
    0.24475532571704779368E-02
    0.25202808504636185424E-02
    0.27058359604795727965E-02
    0.27420481707884714409E-02
    0.25788561722975694712E-02
    0.25811646097089022307E-02
    0.24114696084722208116E-02
    0.23495168684983772263E-02
    0.22122853335979149499E-02
    0.21919382471779010231E-02
    0.23029324442311611271E-02
    0.22997230322521875108E-02
    0.24229463957200665647E-02
    0.24383569295488038454E-02
    0.15086241958959369178E-02
    0.14951242204084651526E-02
    0.15111335760159877364E-02
    0.14993851171925687976E-02
    0.14716359451150946933E-02
    0.14532273678670413770E-02
    0.14315526791081119740E-02
    0.14413259766432029701E-02
    0.14290047820266803865E-02
    0.14409852186744493037E-02
    0.14649954171583956866E-02
    0.14872771192506501099E-02
    0.14705601428124364521E-02
    0.14636400263601878971E-02
    0.15326658126405252967E-02
    0.15257677622544213968E-02
    0.15509556090551319778E-02
    0.15424849133769554486E-02
    0.15090507443200527025E-02
    0.14933433033765053984E-02
    0.14647193637966984554E-02
    0.14688255583712296701E-02
    0.14489094643897995791E-02
    0.14573316726581985337E-02
    0.14855115857450860214E-02
    0.15040000997740652234E-02
    0.14984743828737919890E-02
    0.14935731628326282330E-02
    0.16300005080469651131E-02
    0.16121788206223063543E-02
    0.16335444805862609028E-02
    0.16178482805694683385E-02
    0.15808655505077653328E-02
    0.15561205705623452292E-02
    0.15275084724489706913E-02
    0.15407874007893728862E-02
    0.15246414286597268287E-02
    0.15405497540025522331E-02
    0.15722885213817622274E-02
    0.16017410734884337132E-02
    0.15796025810356786011E-02
    0.15703856014160865167E-02
    0.16625475238742964870E-02
    0.16529872869893034917E-02
    0.16870288204568499504E-02
    0.16749167690527540231E-02
    0.16293630870206855712E-02
    0.16069969271631393080E-02
    0.15689430759597928697E-02
    0.15756190810141282397E-02
    0.15496176813538065867E-02
    0.15613368059209714253E-02
    0.15989563161027599714E-02
    0.16239913884344373690E-02
    0.16159617382166607206E-02
    0.16090736411405548532E-02
    0.15897131588963680452E-02
    0.15885868606015990032E-02
    0.16243703855915239687E-02
    0.16184266129107946659E-02
    0.15772362623132235322E-02
    0.15631156272545132079E-02
    0.15259340821770874582E-02
    0.15247800893522013045E-02
    0.14962461846571412614E-02
    0.15017199306233677478E-02
    0.15357751452980219521E-02
    0.15519003337332840011E-02
    0.15567440669801381123E-02
    0.15534681754344949623E-02
    0.16825253583503698134E-02
    0.16870502588200260094E-02
    0.17359633190545695289E-02
    0.17324336641949854895E-02
    0.16806139278503398182E-02
    0.16675435836171314651E-02
    0.16190347014533119831E-02
    0.16123186543890082132E-02
    0.15733071590101135873E-02
    0.15762034815225379678E-02
    0.16182813813894370188E-02
    0.16331503261580362224E-02
    0.16485911186633942470E-02
    0.16467737017946794745E-02
    0.17394962242255195429E-02
    0.17363893768200478959E-02
    0.17853685561691008590E-02
    0.17751289863551719672E-02
    0.17174412711716917617E-02
    0.16953029884046769919E-02
    0.16452803990337819783E-02
    0.16463170255986371484E-02
    0.16088805922585365168E-02
    0.16175989774347831075E-02
    0.16641207521968341687E-02
    0.16874269016661032263E-02
    0.16916944913641866321E-02
    0.16863057339856694743E-02
    0.18638506354595474074E-02
    0.18660418993345980355E-02
    0.19330819221481554838E-02
    0.19238237186252967088E-02
    0.18499892745737990443E-02
    0.18267787665173465961E-02
    0.17611642444454217622E-02
    0.17565503736312129430E-02
    0.17052462237671238594E-02
    0.17118178407114009124E-02
    0.17705768220081866127E-02
    0.17945393077701320226E-02
    0.18102536248029428394E-02
    0.18058460028480710115E-02
    0.17917168516198259294E-02
    0.17683892484371792342E-02
    0.17979822338704397767E-02
    0.17772890474757638106E-02
    0.17270511078307057996E-02
    0.16939962206898740577E-02
    0.16554277926490153314E-02
    0.16729126585487818363E-02
    0.16512428763694193389E-02
    0.16723066202868567404E-02
    0.17145637086041435725E-02
    0.17537126785913284641E-02
    0.17246312499229804385E-02
    0.17124589465815510253E-02
    0.18402701456003563944E-02
    0.18283114176089521920E-02
    0.18774083242322696201E-02
    0.18607295941089081054E-02
    0.17961597447173518853E-02
    0.17647272210671476663E-02
    0.17119176192603301635E-02
    0.17211990126580224963E-02
    0.16855098872272677481E-02
    0.17012382801457263774E-02
    0.17526853140002528024E-02
    0.17863049339697527253E-02
    0.17767530843281502048E-02
    0.17674190090190733567E-02
    0.20104007119121649304E-02
    0.19801631675138110442E-02
    0.20230210607239500209E-02
    0.19961395111437549993E-02
    0.19258757439581872251E-02
    0.18816837785363858468E-02
    0.18277336325024395348E-02
    0.18503565249321889119E-02
    0.18202346393649366466E-02
    0.18483322367176648407E-02
    0.19056381360493654300E-02
    0.19583231176659838223E-02
    0.19202636766124353117E-02
    0.19041975965065078679E-02
    0.20896141990240525016E-02
    0.20767964226630188443E-02
    0.21523607412320621378E-02
    0.21304560274633421203E-02
    0.20346184128708431731E-02
    0.19904134528193491958E-02
    0.19129189985308621587E-02
    0.19242985939869452008E-02
    0.18720999216093785547E-02
    0.18927908668279127147E-02
    0.19656440946418198869E-02
    0.20106473647517383169E-02
    0.20025502726370384560E-02
    0.19903036451099104936E-02
    0.19550838783863803798E-02
    0.19505858221912260320E-02
    0.20229723042885631480E-02
    0.20065829298148169652E-02
    0.19212232496346062869E-02
    0.18868574652231373881E-02
    0.18156613911191458489E-02
    0.18189320301181509127E-02
    0.17665963293225976725E-02
    0.17794246006688468464E-02
    0.18456460841839148791E-02
    0.18790731965756257704E-02
    0.18850102613705422942E-02
    0.18767908674027162022E-02
    0.21393415116360094998E-02
    0.21386907018623121414E-02
    0.22385959497355661409E-02
    0.22193371351232611503E-02
    0.21065771859699916786E-02
    0.20656628120133491491E-02
    0.19711248788278749357E-02
    0.19697462441753805194E-02
    0.18975014294125122812E-02
    0.19095176634676973466E-02
    0.19963938737829001538E-02
    0.20347876490242979876E-02