# vtk DataFile Version 3.0
LAPLACIEN  2D
ASCII
DATASET UNSTRUCTURED_GRID
 POINTS        7297  float
   1.5625000000000000E-002  0.96875000000000000        0.0000000000000000     
   3.1250000000000000E-002  0.96875000000000000        0.0000000000000000     
   3.1250000000000000E-002  0.98437500000000000        0.0000000000000000     
   9.3749999999999997E-003  0.97812500000000002        0.0000000000000000     
   2.0312500000000001E-002  0.97968750000000004        0.0000000000000000     
   2.1874999999999999E-002  0.99062499999999998        0.0000000000000000     
   1.0937499999999999E-002  0.98906249999999996        0.0000000000000000     
   4.6875000000000000E-002  0.96875000000000000        0.0000000000000000     
   6.2500000000000000E-002  0.96875000000000000        0.0000000000000000     
   6.2500000000000000E-002  0.98437500000000000        0.0000000000000000     
   4.0625000000000001E-002  0.97812500000000002        0.0000000000000000     
   5.1562499999999997E-002  0.97968750000000004        0.0000000000000000     
   5.3124999999999999E-002  0.99062499999999998        0.0000000000000000     
   4.2187500000000003E-002  0.98906249999999996        0.0000000000000000     
   1.5625000000000000E-002  0.93750000000000000        0.0000000000000000     
   3.1250000000000000E-002  0.93750000000000000        0.0000000000000000     
   3.1250000000000000E-002  0.95312500000000000        0.0000000000000000     
   9.3749999999999997E-003  0.94687500000000002        0.0000000000000000     
   2.0312500000000001E-002  0.94843750000000004        0.0000000000000000     
   2.1874999999999999E-002  0.95937499999999998        0.0000000000000000     
   1.0937499999999999E-002  0.95781249999999996        0.0000000000000000     
   4.6875000000000000E-002  0.93750000000000000        0.0000000000000000     
   6.2500000000000000E-002  0.93750000000000000        0.0000000000000000     
   6.2500000000000000E-002  0.95312500000000000        0.0000000000000000     
   4.0625000000000001E-002  0.94687500000000002        0.0000000000000000     
   5.1562499999999997E-002  0.94843750000000004        0.0000000000000000     
   5.3124999999999999E-002  0.95937499999999998        0.0000000000000000     
   4.2187500000000003E-002  0.95781249999999996        0.0000000000000000     
   7.8125000000000000E-002  0.96875000000000000        0.0000000000000000     
   9.3750000000000000E-002  0.96875000000000000        0.0000000000000000     
   9.3750000000000000E-002  0.98437500000000000        0.0000000000000000     
   7.1874999999999994E-002  0.97812500000000002        0.0000000000000000     
   8.2812499999999997E-002  0.97968750000000004        0.0000000000000000     
   8.4375000000000006E-002  0.99062499999999998        0.0000000000000000     
   7.3437500000000003E-002  0.98906249999999996        0.0000000000000000     
  0.10937500000000000       0.96875000000000000        0.0000000000000000     
  0.12500000000000000       0.96875000000000000        0.0000000000000000     
  0.12500000000000000       0.98437500000000000        0.0000000000000000     
  0.10312499999999999       0.97812500000000002        0.0000000000000000     
  0.11406250000000000       0.97968750000000004        0.0000000000000000     
  0.11562500000000001       0.99062499999999998        0.0000000000000000     
  0.10468750000000000       0.98906249999999996        0.0000000000000000     
   7.8125000000000000E-002  0.93750000000000000        0.0000000000000000     
   9.3750000000000000E-002  0.93750000000000000        0.0000000000000000     
   9.3750000000000000E-002  0.95312500000000000        0.0000000000000000     
   7.1874999999999994E-002  0.94687500000000002        0.0000000000000000     
   8.2812499999999997E-002  0.94843750000000004        0.0000000000000000     
   8.4375000000000006E-002  0.95937499999999998        0.0000000000000000     
   7.3437500000000003E-002  0.95781249999999996        0.0000000000000000     
  0.10937500000000000       0.93750000000000000        0.0000000000000000     
  0.12500000000000000       0.93750000000000000        0.0000000000000000     
  0.12500000000000000       0.95312500000000000        0.0000000000000000     
  0.10312499999999999       0.94687500000000002        0.0000000000000000     
  0.11406250000000000       0.94843750000000004        0.0000000000000000     
  0.11562500000000001       0.95937499999999998        0.0000000000000000     
  0.10468750000000000       0.95781249999999996        0.0000000000000000     
   1.5625000000000000E-002  0.90625000000000000        0.0000000000000000     
   3.1250000000000000E-002  0.90625000000000000        0.0000000000000000     
   3.1250000000000000E-002  0.92187500000000000        0.0000000000000000     
   9.3749999999999997E-003  0.91562500000000002        0.0000000000000000     
   2.0312500000000001E-002  0.91718750000000004        0.0000000000000000     
   2.1874999999999999E-002  0.92812499999999998        0.0000000000000000     
   1.0937499999999999E-002  0.92656249999999996        0.0000000000000000     
   4.6875000000000000E-002  0.90625000000000000        0.0000000000000000     
   6.2500000000000000E-002  0.90625000000000000        0.0000000000000000     
   6.2500000000000000E-002  0.92187500000000000        0.0000000000000000     
   4.0625000000000001E-002  0.91562500000000002        0.0000000000000000     
   5.1562499999999997E-002  0.91718750000000004        0.0000000000000000     
   5.3124999999999999E-002  0.92812499999999998        0.0000000000000000     
   4.2187500000000003E-002  0.92656249999999996        0.0000000000000000     
   1.5625000000000000E-002  0.87500000000000000        0.0000000000000000     
   3.1250000000000000E-002  0.87500000000000000        0.0000000000000000     
   3.1250000000000000E-002  0.89062500000000000        0.0000000000000000     
   9.3749999999999997E-003  0.88437500000000002        0.0000000000000000     
   2.0312500000000001E-002  0.88593750000000004        0.0000000000000000     
   2.1874999999999999E-002  0.89687499999999998        0.0000000000000000     
   1.0937499999999999E-002  0.89531249999999996        0.0000000000000000     
   4.6875000000000000E-002  0.87500000000000000        0.0000000000000000     
   6.2500000000000000E-002  0.87500000000000000        0.0000000000000000     
   6.2500000000000000E-002  0.89062500000000000        0.0000000000000000     
   4.0625000000000001E-002  0.88437500000000002        0.0000000000000000     
   5.1562499999999997E-002  0.88593750000000004        0.0000000000000000     
   5.3124999999999999E-002  0.89687499999999998        0.0000000000000000     
   4.2187500000000003E-002  0.89531249999999996        0.0000000000000000     
   7.8125000000000000E-002  0.90625000000000000        0.0000000000000000     
   9.3750000000000000E-002  0.90625000000000000        0.0000000000000000     
   9.3750000000000000E-002  0.92187500000000000        0.0000000000000000     
   7.1874999999999994E-002  0.91562500000000002        0.0000000000000000     
   8.2812499999999997E-002  0.91718750000000004        0.0000000000000000     
   8.4375000000000006E-002  0.92812499999999998        0.0000000000000000     
   7.3437500000000003E-002  0.92656249999999996        0.0000000000000000     
  0.10937500000000000       0.90625000000000000        0.0000000000000000     
  0.12500000000000000       0.90625000000000000        0.0000000000000000     
  0.12500000000000000       0.92187500000000000        0.0000000000000000     
  0.10312499999999999       0.91562500000000002        0.0000000000000000     
  0.11406250000000000       0.91718750000000004        0.0000000000000000     
  0.11562500000000001       0.92812499999999998        0.0000000000000000     
  0.10468750000000000       0.92656249999999996        0.0000000000000000     
   7.8125000000000000E-002  0.87500000000000000        0.0000000000000000     
   9.3750000000000000E-002  0.87500000000000000        0.0000000000000000     
   9.3750000000000000E-002  0.89062500000000000        0.0000000000000000     
   7.1874999999999994E-002  0.88437500000000002        0.0000000000000000     
   8.2812499999999997E-002  0.88593750000000004        0.0000000000000000     
   8.4375000000000006E-002  0.89687499999999998        0.0000000000000000     
   7.3437500000000003E-002  0.89531249999999996        0.0000000000000000     
  0.10937500000000000       0.87500000000000000        0.0000000000000000     
  0.12500000000000000       0.87500000000000000        0.0000000000000000     
  0.12500000000000000       0.89062500000000000        0.0000000000000000     
  0.10312499999999999       0.88437500000000002        0.0000000000000000     
  0.11406250000000000       0.88593750000000004        0.0000000000000000     
  0.11562500000000001       0.89687499999999998        0.0000000000000000     
  0.10468750000000000       0.89531249999999996        0.0000000000000000     
  0.14062500000000000       0.96875000000000000        0.0000000000000000     
  0.15625000000000000       0.96875000000000000        0.0000000000000000     
  0.15625000000000000       0.98437500000000000        0.0000000000000000     
  0.13437499999999999       0.97812500000000002        0.0000000000000000     
  0.14531250000000001       0.97968750000000004        0.0000000000000000     
  0.14687500000000001       0.99062499999999998        0.0000000000000000     
  0.13593749999999999       0.98906249999999996        0.0000000000000000     
  0.17187500000000000       0.96875000000000000        0.0000000000000000     
  0.18750000000000000       0.96875000000000000        0.0000000000000000     
  0.18750000000000000       0.98437500000000000        0.0000000000000000     
  0.16562499999999999       0.97812500000000002        0.0000000000000000     
  0.17656250000000001       0.97968750000000004        0.0000000000000000     
  0.17812500000000001       0.99062499999999998        0.0000000000000000     
[...]
 CELL_DATA       14336
 SCALARS Nutrients float
 LOOKUP_TABLE default
    0.11775898923512888398E-04
    0.11684831539395144762E-04
    0.12344775065459733510E-04
    0.12344775064721900051E-04
    0.11684831537810197040E-04
    0.11775898919728565418E-04
    0.11248816099783064850E-04
    0.10940712198388097487E-04
    0.10608272571886726883E-04
    0.10608272572309426817E-04
    0.10940712200185360794E-04
    0.11248816104668595036E-04
    0.11200271636104727329E-04
    0.11200271635612785840E-04
    0.13931465510234908469E-04
    0.14505928088014467884E-04
    0.16070071771203184438E-04
    0.16498854128708377207E-04
    0.15328505715823699252E-04
    0.15895944392958579372E-04
    0.14663643359518913496E-04
    0.13642736602462125347E-04
    0.12567740839082619156E-04
    0.12173649121976780181E-04
    0.12852148249508272448E-04
    0.12765546813858882398E-04
    0.13817664745922602029E-04
    0.14053084340669303113E-04
    0.15895944402538749010E-04
    0.15328505722219285895E-04
    0.16498854133151190376E-04
    0.16070071774660688225E-04
    0.14505928091165818389E-04
    0.13931465511588399356E-04
    0.12765546815281718178E-04
    0.12852148252933760084E-04
    0.12173649126146743709E-04
    0.12567740844285297112E-04
    0.13642736609565484250E-04
    0.14663643370568078822E-04
    0.14053084346173368944E-04
    0.13817664750417719483E-04
    0.18786032835636586763E-04
    0.19036709152395956931E-04
    0.21476327928404956481E-04
    0.21476327928539702482E-04
    0.19036709151333018673E-04
    0.18786032832432701580E-04
    0.16621655904484275581E-04
    0.16006482956433958255E-04
    0.14396567200150560073E-04
    0.14396567200802758501E-04
    0.16006482957661044721E-04
    0.16621655907398011321E-04
    0.17332724886820022699E-04
    0.17332724886490696289E-04
    0.19697897811284245315E-04
    0.21247264655905889091E-04
    0.24286307995829535132E-04
    0.25413903738468787534E-04
    0.23401453062102474568E-04
    0.24758842027680981566E-04
    0.22360306333812936507E-04
    0.20134631270290951190E-04
    0.17835561275685709795E-04
    0.16852891026147213786E-04
    0.18091531898895649047E-04
    0.17499513921780995623E-04
    0.20181967692533342098E-04
    0.20797547085374165740E-04
    0.31206904045136290475E-04
    0.34323285389997614154E-04
    0.39685448242463068516E-04
    0.41858149285196852882E-04
    0.38467489188007690959E-04
    0.40969903885970452553E-04
    0.36736144721831464916E-04
    0.32710929813822701203E-04
    0.28523951419934045299E-04
    0.26621284691912654310E-04
    0.28777195472631332659E-04
    0.27360557702415030386E-04
    0.32635661840988469239E-04
    0.33818597942531799074E-04
    0.26345745678648097005E-04
    0.27557722076440209431E-04
    0.31834834037290742602E-04
    0.32402177685760310134E-04
    0.28597637137317627129E-04
    0.28810325494478375880E-04
    0.25062178712629572708E-04
    0.23411261416031379617E-04
    0.20343603611346566069E-04
    0.19884158520759881320E-04
    0.22452785034506209881E-04
    0.22741927735053497992E-04
    0.25091125549533139084E-04
    0.25382326890543444465E-04
    0.40652473618309464126E-04
    0.43432879708483007153E-04
    0.50790454723401599001E-04
    0.52301168669617314761E-04
    0.46209608667371411983E-04
    0.47163220533890291787E-04
    0.40843356154873681574E-04
    0.37527430249252398853E-04
    0.32124660886280379630E-04
    0.30908347875953408736E-04
    0.34977766411839476726E-04
    0.34757062547818276445E-04
    0.39732397167221221814E-04
    0.40511155084574196306E-04
    0.24758842046742512755E-04
    0.23401453077628774839E-04
    0.25413903753418397280E-04
    0.24286308008229463899E-04
    0.21247264666048678341E-04
    0.19697897817738233185E-04
    0.17499513926162697059E-04
    0.18091531907703175560E-04
    0.16852891036288163281E-04
    0.17835561287552055239E-04
    0.20134631285386162512E-04
    0.22360306354906977464E-04
    0.20797547098525416120E-04
    0.20181967703993270970E-04
    0.28810325506912338431E-04
    0.28597637148126289308E-04
    0.32402177698154380821E-04
    0.31834834048382794900E-04
    0.27557722083026768122E-04
    0.26345745680523580416E-04
    0.22741927734317826161E-04
    0.22452785037997906694E-04
    0.19884158524954476566E-04
    0.20343603617366273371E-04
    0.23411261424401830352E-04
    0.25062178724071696947E-04
    0.25382326898466397530E-04
    0.25091125556147477068E-04
    0.40969903940948650654E-04
    0.38467489234860708573E-04
    0.41858149334575261958E-04
    0.39685448285668450551E-04
    0.34323285423557459324E-04
    0.31206904068957052462E-04
    0.27360557719319151718E-04
    0.28777195497523188136E-04
    0.26621284715296055916E-04
    0.28523951448967807185E-04
    0.32710929853459567312E-04
    0.36736144775834003035E-04
    0.33818597980425247761E-04
    0.32635661874845399357E-04
    0.47163220584617007909E-04
    0.46209608714038434714E-04
    0.52301168725032182063E-04
    0.50790454774531163993E-04
    0.43432879744319222875E-04
    0.40652473641993365917E-04
    0.34757062562097246162E-04
    0.34977766433651496689E-04
    0.30908347893769506725E-04
    0.32124660909894248737E-04
    0.37527430282894880557E-04
    0.40843356197427925665E-04
    0.40511155120411021892E-04
    0.39732397199743261888E-04
    0.39361800426151694564E-04
    0.40310131068870517926E-04
    0.46663274160236068474E-04
    0.46663274157726804519E-04
    0.40310131064800294222E-04
    0.39361800417034848560E-04
    0.33575809575602278702E-04
    0.32237381638853748614E-04
    0.27798316630348592033E-04
    0.27798316631665633399E-04
    0.32237381643411084026E-04
    0.33575809587481983550E-04
    0.35906410751845241000E-04
    0.35906410750583853087E-04
    0.58991909836101734377E-04
    0.61781132303386030596E-04
    0.72470318821570397149E-04
    0.73453998661928451668E-04
    0.63493691692171594343E-04
    0.62942481098300257793E-04
    0.53365531026650808201E-04
    0.50286614669606221858E-04
    0.42711792697255639617E-04
    0.42043156555418298036E-04
    0.48813907084127355820E-04
    0.49844565127728073797E-04
    0.55293964951386211375E-04
    0.55760209436552147871E-04
    0.62942481158838366607E-04
    0.63493691744044122426E-04
    0.73453998721249177625E-04
    0.72470318870251223772E-04
    0.61781132336432661892E-04
    0.58991909854027817900E-04
    0.49844565133131195323E-04
    0.48813907102401596990E-04
    0.42043156570991222388E-04
    0.42711792721000988566E-04
    0.50286614707763423052E-04
    0.53365531081497316395E-04
    0.55760209474435621898E-04
    0.55293964983636089599E-04
    0.91694788222896871370E-04
    0.94362482692312961105E-04
    0.11050428099378436359E-03
    0.11050428098330457381E-03
    0.94362482672777968991E-04
    0.91694788178285719575E-04
    0.77040473530983367024E-04
    0.73895370139728799863E-04
    0.62718649108385346827E-04
    0.62718649117526743234E-04
    0.73895370159502506190E-04
    0.77040473578598504226E-04
    0.83249496692617972393E-04
    0.83249496686951457501E-04
    0.51840475742429370054E-04
    0.57435257275596878466E-04
    0.66717108305488795838E-04
    0.70601849510569173038E-04
    0.64815843139846645270E-04
    0.69228560350214764598E-04
    0.61927924954880434133E-04
    0.54900678109049475515E-04
    0.47618998193400871707E-04
    0.44255042278535933057E-04
    0.47925431845400232023E-04
    0.45292084953783610880E-04
    0.54646004557640328366E-04
    0.56747106132147677471E-04
    0.87931666610834913807E-04
    0.97703428958503669272E-04
    0.11383895669866231110E-03
    0.12053426327275993800E-03
    0.11044500565861421965E-03
    0.11794644617712593819E-03
    0.10539070514943349238E-03
    0.93307667248525196901E-04
    0.80729572878552829213E-04
    0.74912311511374235365E-04
    0.81230105645767301001E-04
    0.76593079244895506869E-04
    0.92877404778866307707E-04
    0.96512567232938151250E-04
    0.66381555608114217910E-04
    0.71820431411724256258E-04
    0.84578997020861841714E-04
    0.87682172709497926293E-04
    0.77447034776396408637E-04
    0.79502593209777630795E-04
    0.68614777284980890508E-04
    0.62611874544311752334E-04
    0.53270864140421169449E-04
    0.50884437541492548744E-04
    0.57541241094583604808E-04
    0.56508673946009502058E-04
    0.65892042432562494348E-04
    0.67457558139358476295E-04
    0.11212081951877401326E-03
    0.12214750665275847887E-03
    0.14453488431342943147E-03
    0.15024617265184934435E-03
    0.13242259494675797001E-03
    0.13609371840243348847E-03
    0.11714457083430919893E-03
    0.10659516451953996428E-03
    0.90353087518618512399E-04
    0.86038432203520075984E-04
    0.97396201476281703702E-04
    0.95135478911061364363E-04
    0.11204654474814210716E-03
    0.11489657512525757745E-03
    0.15053098879745817535E-03
    0.16712873990660129611E-03
    0.19486294448442243983E-03
    0.20585806443946966324E-03
    0.18828371894348818415E-03
    0.20052567604904870100E-03
    0.17931099758324042272E-03
    0.15896535023211577674E-03
    0.13759106661959200893E-03
    0.12769177094496813739E-03
    0.13864402756287277007E-03
    0.13086216294476158751E-03
    0.15855130242110806061E-03
    0.16462512739480125463E-03
    0.25733366261215990817E-03
    0.28431784431336230281E-03
    0.33121873885181511016E-03
    0.34816841341647362593E-03
    0.31772627239897414551E-03
    0.33661017029211872179E-03
    0.30178882145501896095E-03
    0.26860807067904832147E-03
    0.23312588804880627290E-03
    0.21682062927505844040E-03
    0.23566188435913065042E-03
    0.22332285025332919686E-03
    0.26891194491273978304E-03
    0.27862952820338035857E-03
    0.19336109699815806195E-03
    0.21108640481687111008E-03
    0.25073746166941331907E-03
    0.26043163450865084883E-03
    0.22851141303746483422E-03
    0.23401744344290052887E-03
    0.20091414550292373666E-03
    0.18308840933234889268E-03
    0.15484697558697875681E-03
    0.14746955183822109512E-03
    0.16740891259181068032E-03
    0.16341815848770651948E-03
    0.19309484089147097496E-03
    0.19794373568455701437E-03
    0.33692334285935113909E-03
    0.36680029691868085671E-03
    0.43677321642161467952E-03
    0.45158290205083508355E-03
    0.39380253221882099762E-03
    0.40010559399831542452E-03
    0.34263175683481159788E-03
    0.31398392398850131753E-03
    0.26538159494768603225E-03
    0.25353514547323652934E-03
    0.28919986263109748788E-03
    0.28349193744037378111E-03
    0.33368890650408832704E-03
    0.34127348059377274206E-03
    0.94053517023326646822E-04
    0.10008037157438732471E-03
    0.11835616068071682272E-03
    0.12112547443417841599E-03
    0.10480166212849999306E-03
    0.10496533174736674189E-03
    0.88657511828545436296E-04
    0.82546716934257002613E-04
    0.69523318985256020290E-04
    0.67735386772590383021E-04
    0.78582211303410194766E-04
    0.79119181243215300019E-04
    0.89939361740686268182E-04
    0.91208444414677257331E-04
    0.15654092696673797629E-03
    0.16857580860158832012E-03
    0.20074869179039742410E-03
    0.20685611624118125794E-03
    0.17879217427879833435E-03
    0.18004251093570297539E-03
    0.15147435532572909277E-03
    0.14009679594430735246E-03
    0.11725936972257579359E-03
    0.11351276515100239251E-03
    0.13168567180404071185E-03
    0.13124589169948114808E-03
    0.15187078038067462608E-03
    0.15459701386475284890E-03
    0.14152438834617023971E-03
    0.14823722727564576950E-03
    0.17497918359424239503E-03
    0.17714398363171196473E-03
    0.15178605104177472925E-03
    0.14966101812637758509E-03
    0.12533748971534447122E-03
    0.11841441257971799760E-03
    0.99554461933881149946E-04
    0.98306606215535225889E-04
    0.11556194763379432468E-03
    0.11847985406110532740E-03
    0.13166833543772307638E-03
    0.13260459226201545173E-03
    0.22875904890902392188E-03
    0.24363153916641663095E-03
    0.28970883881395933027E-03
    0.29669423706851414096E-03
    0.25479679408976871769E-03
    0.25421938709227384330E-03
    0.21209318755494407276E-03
    0.19793182577789944238E-03
    0.16515177136683308360E-03
    0.16146059843987205468E-03
    0.18927210065847728071E-03
    0.19121931026366010067E-03
    0.21768512892410209376E-03
    0.22058680096726532380E-03
    0.26969246185582732445E-03
    0.29267284812402170240E-03
    0.35068838365494129933E-03
    0.36245520798957925248E-03
    0.31211720264517781248E-03
    0.31436503875398731341E-03
    0.26326525221015504435E-03
    0.24296040726990168670E-03
    0.20235028050495440033E-03
    0.19533960607372532646E-03
    0.22711056143934215974E-03
    0.22516231943181652512E-03
    0.26339669722022295917E-03
    0.26856363831502945124E-03
    0.47654797591120472925E-03
    0.51845677099151903870E-03
    0.62444194210682397051E-03
    0.64461212524386955671E-03
    0.55162004995856425693E-03
    0.55262124246115054260E-03
    0.46041178514918647746E-03
    0.42610455023677347398E-03
    0.35353047737697438800E-03
    0.34165526682569463072E-03
    0.39918754480325140642E-03
    0.39575910114922596130E-03
    0.46461748388717150245E-03
    0.47341521263108269670E-03
    0.38685363459320702088E-03
    0.41821325351283237864E-03
    0.50136745979879404969E-03
    0.51792384673285602522E-03
    0.44437840217399613872E-03
    0.44635895268795591989E-03
    0.37049859335869255892E-03
    0.34301731894747562084E-03
    0.28411331124002063564E-03
    0.27575094736714134006E-03
    0.32307151585537119323E-03
    0.32240436816826690842E-03
    0.37491587574042676070E-03
    0.38166834908027710057E-03
    0.68245183054030291586E-03
    0.74519749800678778632E-03
    0.90023456214715605501E-03
    0.93377938651341614064E-03
    0.79770539469871328160E-03
    0.80154524868268238122E-03
    0.66134426889651704799E-03
    0.61064026595149137420E-03
    0.50251370772009141142E-03
    0.48612166913888557986E-03
    0.57114423134596169380E-03
    0.56601259277382683782E-03
    0.66751994542707765272E-03
    0.68099829756254083839E-03
    0.69228560488292912147E-04
    0.64815843261297414091E-04
    0.70601849641325554238E-04
    0.66717108422918163933E-04
    0.57435257369815626125E-04
    0.51840475815866591256E-04
    0.45292085009873576994E-04
    0.47925431916724431283E-04
    0.44255042343863565954E-04
    0.47618998271070174446E-04
    0.54900678210567363578E-04
    0.61927925085952928029E-04
    0.56747106232492201285E-04
    0.54646004649597003388E-04
    0.79502593350882003447E-04
    0.77447034910650290520E-04
    0.87682172867849610923E-04
    0.84578997170638517151E-04
    0.71820431524395006808E-04
    0.66381555696198651321E-04
    0.56508674008723543646E-04
    0.57541241170668298638E-04
    0.50884437604393777837E-04
    0.53270864215305183912E-04
    0.62611874643737712963E-04
    0.68614777403803200897E-04
    0.67457558247265215394E-04
    0.65892042533860763708E-04
    0.11794644648541904278E-03
    0.11044500593521198832E-03
    0.12053426357318176192E-03
    0.11383895697245279574E-03
    0.97703429183011269825E-04
    0.87931666794837005799E-04
    0.76593079390647908445E-04
    0.81230105819951224037E-04
    0.74912311670673634666E-04
    0.80729573062447368349E-04
    0.93307667480639221082E-04
    0.10539070543859994250E-03
    0.96512567465659667462E-04
    0.92877404995302036638E-04
    0.13609371873345325952E-03
    0.13242259526803664533E-03
    0.15024617302859165574E-03
    0.14453488467571320216E-03
    0.12214750693400775947E-03
    0.11212081975317384733E-03
    0.95135479087763075894E-04
    0.97396201675007328959E-04
    0.86038432370301107244E-04
    0.90353087707248318076E-04
    0.10659516476146656022E-03
    0.11714457111480626006E-03
    0.11489657538941161897E-03
    0.11204654500028749832E-03
    0.10496533193269951586E-03
    0.10480166230126535952E-03
    0.12112547463606985739E-03
    0.11835616086423761026E-03
    0.10008037171271756281E-03
    0.94053517130469822989E-04
    0.79119181314265995728E-04
    0.78582211395142887171E-04
    0.67735386848918907143E-04
    0.69523319076557552596E-04
    0.82546717062048904022E-04
    0.88657511988698997174E-04
    0.91208444551089230086E-04
    0.89939361866949823999E-04
    0.14966101833748565297E-03
    0.15178605121433837990E-03
    0.17714398382000898810E-03
    0.17497918374237528445E-03
    0.14823722738047860571E-03
    0.14152438839908066098E-03
    0.11847985408475051640E-03
    0.11556194770167906873E-03
    0.98306606282220124053E-04
    0.99554462032752066825E-04
    0.11841441271649006100E-03
    0.12533748990435229754E-03
    0.13260459239145002785E-03
    0.13166833554691071903E-03
    0.18004251138987003417E-03
    0.17879217471488919504E-03
    0.20685611675656689792E-03
    0.20074869226989071379E-03
    0.16857580897857837171E-03
    0.15654092728291857037E-03
    0.13124589193091890115E-03
    0.13168567206718305722E-03
    0.11351276536990327192E-03
    0.11725936996814410266E-03
    0.14009679627056782834E-03
    0.15147435571214677014E-03
    0.15459701422098875013E-03
    0.15187078071870468575E-03
    0.25421938767221125433E-03
    0.25479679461625452793E-03
    0.29669423766280844873E-03
    0.28970883934647959296E-03
    0.24363153957605818991E-03
    0.22875904922360550749E-03
    0.19121931048594038405E-03
    0.18927210095004756967E-03
    0.16146059869772956498E-03
    0.16515177168079222874E-03
    0.19793182618580858179E-03
    0.21209318806035713984E-03
    0.22058680138904696554E-03
    0.21768512931201716275E-03
    0.20052567668779543338E-03
    0.18828371952530275572E-03
    0.20585806507217570900E-03
    0.19486294507107314940E-03
    0.16712874039170584704E-03
    0.15053098920756751333E-03
    0.13086216327547705012E-03
    0.13864402794497852119E-03
    0.12769177129452028460E-03
    0.13759106701593910795E-03
    0.15896535072161115673E-03
    0.17931099817909893607E-03
    0.16462512788942453143E-03
    0.15855130288587427983E-03
    0.23401744415425248603E-03
    0.22851141373351807531E-03
    0.26043163532815487293E-03
    0.25073746245803677163E-03
    0.21108640544356143298E-03
    0.19336109753639085036E-03
    0.16341815890539901140E-03
    0.16740891304455415454E-03
    0.14746955222118992537E-03
    0.15484697600786633833E-03
    0.18308840986268156066E-03
    0.20091414610483768178E-03
    0.19794373626601266081E-03
    0.19309484145121138003E-03
    0.33661017153707305672E-03
    0.31772627355808877921E-03
    0.34816841469649908222E-03
    0.33121874003873942116E-03
    0.28431784530181966565E-03
    0.25733366346143303396E-03
    0.22332285094822136584E-03
    0.23566188514257316159E-03
    0.21682062999157556381E-03
    0.23312588885058806382E-03
    0.26860807165283604944E-03
    0.30178882261687185566E-03
    0.27862952919609402808E-03
    0.26891194585249906688E-03
    0.40010559542332532843E-03
    0.39380253364320472057E-03
    0.45158290373914608713E-03
    0.43677321805199274948E-03
    0.36680029822368768631E-03
    0.33692334400526252136E-03
    0.28349193833781735890E-03
    0.28919986358641209135E-03
    0.25353514628101815956E-03
    0.26538159582481968442E-03
    0.31398392507801028018E-03
    0.34263175805384753778E-03
    0.34127348179370986438E-03
    0.33368890766703767541E-03
    0.31436503974997462296E-03
    0.31211720362281527132E-03
    0.36245520914291498018E-03
    0.35068838475341726447E-03
    0.29267284899860541948E-03
    0.26969246261956990925E-03
    0.22516232000764331914E-03
    0.22711056206520534480E-03
    0.19533960659392086675E-03
    0.20235028107353690780E-03
    0.24296040800434026545E-03
    0.26326525305719427998E-03
    0.26856363912551947269E-03
    0.26339669799983484854E-03
    0.44635895404195215360E-03
    0.44437840344739533080E-03
    0.51792384820149579665E-03
    0.50136746115074493600E-03
    0.41821325458969818871E-03
    0.38685363548871009361E-03
    0.32240436884798745693E-03
    0.32307151663887119421E-03
    0.27575094804786813660E-03
    0.28411331201220519803E-03
    0.34301731993131216823E-03
    0.37049859451765329013E-03