# vtk DataFile Version 3.0
LAPLACIEN  2D
ASCII
DATASET UNSTRUCTURED_GRID
FIELD FieldData 1
TIME 1 1 double
5.7000
 POINTS        7297  float
   1.5625000000000000E-002  0.96875000000000000        0.0000000000000000     
   3.1250000000000000E-002  0.96875000000000000        0.0000000000000000     
   3.1250000000000000E-002  0.98437500000000000        0.0000000000000000     
   9.3749999999999997E-003  0.97812500000000002        0.0000000000000000     
   2.0312500000000001E-002  0.97968750000000004        0.0000000000000000     
   2.1874999999999999E-002  0.99062499999999998        0.0000000000000000     
   1.0937499999999999E-002  0.98906249999999996        0.0000000000000000     
   4.6875000000000000E-002  0.96875000000000000        0.0000000000000000     
   6.2500000000000000E-002  0.96875000000000000        0.0000000000000000     
   6.2500000000000000E-002  0.98437500000000000        0.0000000000000000     
   4.0625000000000001E-002  0.97812500000000002        0.0000000000000000     
   5.1562499999999997E-002  0.97968750000000004        0.0000000000000000     
   5.3124999999999999E-002  0.99062499999999998        0.0000000000000000     
   4.2187500000000003E-002  0.98906249999999996        0.0000000000000000     
   1.5625000000000000E-002  0.93750000000000000        0.0000000000000000     
   3.1250000000000000E-002  0.93750000000000000        0.0000000000000000     
   3.1250000000000000E-002  0.95312500000000000        0.0000000000000000     
   9.3749999999999997E-003  0.94687500000000002        0.0000000000000000     
   2.0312500000000001E-002  0.94843750000000004        0.0000000000000000     
   2.1874999999999999E-002  0.95937499999999998        0.0000000000000000     
   1.0937499999999999E-002  0.95781249999999996        0.0000000000000000     
   4.6875000000000000E-002  0.93750000000000000        0.0000000000000000     
   6.2500000000000000E-002  0.93750000000000000        0.0000000000000000     
   6.2500000000000000E-002  0.95312500000000000        0.0000000000000000     
   4.0625000000000001E-002  0.94687500000000002        0.0000000000000000     
   5.1562499999999997E-002  0.94843750000000004        0.0000000000000000     
   5.3124999999999999E-002  0.95937499999999998        0.0000000000000000     
   4.2187500000000003E-002  0.95781249999999996        0.0000000000000000     
   7.8125000000000000E-002  0.96875000000000000        0.0000000000000000     
   9.3750000000000000E-002  0.96875000000000000        0.0000000000000000     
   9.3750000000000000E-002  0.98437500000000000        0.0000000000000000     
   7.1874999999999994E-002  0.97812500000000002        0.0000000000000000     
   8.2812499999999997E-002  0.97968750000000004        0.0000000000000000     
   8.4375000000000006E-002  0.99062499999999998        0.0000000000000000     
   7.3437500000000003E-002  0.98906249999999996        0.0000000000000000     
  0.10937500000000000       0.96875000000000000        0.0000000000000000     
  0.12500000000000000       0.96875000000000000        0.0000000000000000     
  0.12500000000000000       0.98437500000000000        0.0000000000000000     
  0.10312499999999999       0.97812500000000002        0.0000000000000000     
  0.11406250000000000       0.97968750000000004        0.0000000000000000     
  0.11562500000000001       0.99062499999999998        0.0000000000000000     
  0.10468750000000000       0.98906249999999996        0.0000000000000000     
   7.8125000000000000E-002  0.93750000000000000        0.0000000000000000     
   9.3750000000000000E-002  0.93750000000000000        0.0000000000000000     
   9.3750000000000000E-002  0.95312500000000000        0.0000000000000000     
   7.1874999999999994E-002  0.94687500000000002        0.0000000000000000     
   8.2812499999999997E-002  0.94843750000000004        0.0000000000000000     
   8.4375000000000006E-002  0.95937499999999998        0.0000000000000000     
   7.3437500000000003E-002  0.95781249999999996        0.0000000000000000     
  0.10937500000000000       0.93750000000000000        0.0000000000000000     
  0.12500000000000000       0.93750000000000000        0.0000000000000000     
  0.12500000000000000       0.95312500000000000        0.0000000000000000     
  0.10312499999999999       0.94687500000000002        0.0000000000000000     
  0.11406250000000000       0.94843750000000004        0.0000000000000000     
  0.11562500000000001       0.95937499999999998        0.0000000000000000     
  0.10468750000000000       0.95781249999999996        0.0000000000000000     
   1.5625000000000000E-002  0.90625000000000000        0.0000000000000000     
   3.1250000000000000E-002  0.90625000000000000        0.0000000000000000     
   3.1250000000000000E-002  0.92187500000000000        0.0000000000000000     
   9.3749999999999997E-003  0.91562500000000002        0.0000000000000000     
   2.0312500000000001E-002  0.91718750000000004        0.0000000000000000     
   2.1874999999999999E-002  0.92812499999999998        0.0000000000000000     
   1.0937499999999999E-002  0.92656249999999996        0.0000000000000000     
   4.6875000000000000E-002  0.90625000000000000        0.0000000000000000     
   6.2500000000000000E-002  0.90625000000000000        0.0000000000000000     
   6.2500000000000000E-002  0.92187500000000000        0.0000000000000000     
   4.0625000000000001E-002  0.91562500000000002        0.0000000000000000     
   5.1562499999999997E-002  0.91718750000000004        0.0000000000000000     
   5.3124999999999999E-002  0.92812499999999998        0.0000000000000000     
   4.2187500000000003E-002  0.92656249999999996        0.0000000000000000     
   1.5625000000000000E-002  0.87500000000000000        0.0000000000000000     
   3.1250000000000000E-002  0.87500000000000000        0.0000000000000000     
   3.1250000000000000E-002  0.89062500000000000        0.0000000000000000     
   9.3749999999999997E-003  0.88437500000000002        0.0000000000000000     
   2.0312500000000001E-002  0.88593750000000004        0.0000000000000000     
   2.1874999999999999E-002  0.89687499999999998        0.0000000000000000     
   1.0937499999999999E-002  0.89531249999999996        0.0000000000000000     
   4.6875000000000000E-002  0.87500000000000000        0.0000000000000000     
   6.2500000000000000E-002  0.87500000000000000        0.0000000000000000     
   6.2500000000000000E-002  0.89062500000000000        0.0000000000000000     
   4.0625000000000001E-002  0.88437500000000002        0.0000000000000000     
   5.1562499999999997E-002  0.88593750000000004        0.0000000000000000     
   5.3124999999999999E-002  0.89687499999999998        0.0000000000000000     
   4.2187500000000003E-002  0.89531249999999996        0.0000000000000000     
   7.8125000000000000E-002  0.90625000000000000        0.0000000000000000     
   9.3750000000000000E-002  0.90625000000000000        0.0000000000000000     
   9.3750000000000000E-002  0.92187500000000000        0.0000000000000000     
   7.1874999999999994E-002  0.91562500000000002        0.0000000000000000     
   8.2812499999999997E-002  0.91718750000000004        0.0000000000000000     
   8.4375000000000006E-002  0.92812499999999998        0.0000000000000000     
   7.3437500000000003E-002  0.92656249999999996        0.0000000000000000     
  0.10937500000000000       0.90625000000000000        0.0000000000000000     
  0.12500000000000000       0.90625000000000000        0.0000000000000000     
  0.12500000000000000       0.92187500000000000        0.0000000000000000     
  0.10312499999999999       0.91562500000000002        0.0000000000000000     
  0.11406250000000000       0.91718750000000004        0.0000000000000000     
  0.11562500000000001       0.92812499999999998        0.0000000000000000     
  0.10468750000000000       0.92656249999999996        0.0000000000000000     
   7.8125000000000000E-002  0.87500000000000000        0.0000000000000000     
   9.3750000000000000E-002  0.87500000000000000        0.0000000000000000     
   9.3750000000000000E-002  0.89062500000000000        0.0000000000000000     
   7.1874999999999994E-002  0.88437500000000002        0.0000000000000000     
   8.2812499999999997E-002  0.88593750000000004        0.0000000000000000     
   8.4375000000000006E-002  0.89687499999999998        0.0000000000000000     
   7.3437500000000003E-002  0.89531249999999996        0.0000000000000000     
  0.10937500000000000       0.87500000000000000        0.0000000000000000     
  0.12500000000000000       0.87500000000000000        0.0000000000000000     
  0.12500000000000000       0.89062500000000000        0.0000000000000000     
  0.10312499999999999       0.88437500000000002        0.0000000000000000     
  0.11406250000000000       0.88593750000000004        0.0000000000000000     
  0.11562500000000001       0.89687499999999998        0.0000000000000000     
  0.10468750000000000       0.89531249999999996        0.0000000000000000     
  0.14062500000000000       0.96875000000000000        0.0000000000000000     
  0.15625000000000000       0.96875000000000000        0.0000000000000000     
  0.15625000000000000       0.98437500000000000        0.0000000000000000     
  0.13437499999999999       0.97812500000000002        0.0000000000000000     
  0.14531250000000001       0.97968750000000004        0.0000000000000000     
  0.14687500000000001       0.99062499999999998        0.0000000000000000     
  0.13593749999999999       0.98906249999999996        0.0000000000000000     
  0.17187500000000000       0.96875000000000000        0.0000000000000000     
  0.18750000000000000       0.96875000000000000        0.0000000000000000     
  0.18750000000000000       0.98437500000000000        0.0000000000000000     
  0.16562499999999999       0.97812500000000002        0.0000000000000000     
  0.17656250000000001       0.97968750000000004        0.0000000000000000     
[...]
 CELL_DATA       14336
 SCALARS Nutrient float
 LOOKUP_TABLE default
    0.36329559074053728411E-02
    0.36328690804604451062E-02
    0.36335218811839541629E-02
    0.36335218811359318129E-02
    0.36328690806491678415E-02
    0.36329559072372191557E-02
    0.36324361342615105012E-02
    0.36321308900227390094E-02
    0.36318008503595702180E-02
    0.36318008492690063808E-02
    0.36321308905855327447E-02
    0.36324361340313525946E-02
    0.36323885569944599529E-02
    0.36323885568167344970E-02
    0.36350947233285322256E-02
    0.36356647755526418954E-02
    0.36372135122375989433E-02
    0.36376411796932152203E-02
    0.36364806435726700767E-02
    0.36370385867137322751E-02
    0.36358206668969167072E-02
    0.36348082541944022952E-02
    0.36337412812502294969E-02
    0.36333544070451290371E-02
    0.36340241212296066700E-02
    0.36339401491316822637E-02
    0.36349829633243071862E-02
    0.36352141158740398572E-02
    0.36370385867547727968E-02
    0.36364806435522051102E-02
    0.36376411797132807667E-02
    0.36372135122311314605E-02
    0.36356647756037160577E-02
    0.36350947232721753967E-02
    0.36339401492498681068E-02
    0.36340241211200931433E-02
    0.36333544071957325251E-02
    0.36337412811159150623E-02
    0.36348082542747807075E-02
    0.36358206668835862246E-02
    0.36352141159169092111E-02
    0.36349829633127361470E-02
    0.36399089242957704225E-02
    0.36401578520669072500E-02
    0.36425770820416964943E-02
    0.36425770820363773984E-02
    0.36401578520775215893E-02
    0.36399089242743760779E-02
    0.36377635359179263767E-02
    0.36371524937048424660E-02
    0.36355567340905130605E-02
    0.36355567340343904192E-02
    0.36371524937427925778E-02
    0.36377635358994333571E-02
    0.36384682352942152722E-02
    0.36384682352833706484E-02
    0.36408148360958457988E-02
    0.36423555256560190448E-02
    0.36453735163894216038E-02
    0.36464972435608241329E-02
    0.36445007282569028689E-02
    0.36458518963644421726E-02
    0.36434678144813903780E-02
    0.36412550089742709049E-02
    0.36389673039018601702E-02
    0.36379978758921110299E-02
    0.36392211299717445137E-02
    0.36386336189010329116E-02
    0.36413011560922458991E-02
    0.36419103511047901459E-02
    0.36522514346457629793E-02
    0.36553553481500754979E-02
    0.36606857971048668149E-02
    0.36628521143398473474E-02
    0.36594871895985949667E-02
    0.36619830491280529194E-02
    0.36577703898859922731E-02
    0.36537639644438880092E-02
    0.36495984080550420044E-02
    0.36477054948835241355E-02
    0.36498459484663003764E-02
    0.36484324099402636564E-02
    0.36536836997773142373E-02
    0.36548621874458822080E-02
    0.36474061370647412397E-02
    0.36486097390067105672E-02
    0.36528517425479267201E-02
    0.36534172321187343389E-02
    0.36496460066775403448E-02
    0.36498621740689517721E-02
    0.36461424738536527164E-02
    0.36445002421263204655E-02
    0.36414561464377997665E-02
    0.36409982069626916669E-02
    0.36435467898382695520E-02
    0.36438322601622689587E-02
    0.36461644228098374042E-02
    0.36464550540572702141E-02
    0.36615988603891911658E-02
    0.36643670353135875291E-02
    0.36716672375691019638E-02
    0.36731767763625799116E-02
    0.36671417542349245798E-02
    0.36681045371451557677E-02
    0.36618292784535069057E-02
    0.36585260522350939068E-02
    0.36531601721025001341E-02
    0.36519459504269860019E-02
    0.36559815687778204028E-02
    0.36557550553531054614E-02
    0.36607032001640454552E-02
    0.36614810042716679390E-02
    0.36458518964063530918E-02
    0.36445007282823699106E-02
    0.36464972435936485705E-02
    0.36453735164131582588E-02
    0.36423555256864734164E-02
    0.36408148360971919442E-02
    0.36386336189370887054E-02
    0.36392211299691580410E-02
    0.36379978759343003722E-02
    0.36389673039025974277E-02
    0.36412550090124222446E-02
    0.36434678145131297461E-02
    0.36419103511355229406E-02
    0.36413011561135105731E-02
    0.36498621740988176389E-02
    0.36496460066963603598E-02
    0.36534172321432650636E-02
    0.36528517425657865657E-02
    0.36486097390232381452E-02
    0.36474061370644701892E-02
    0.36438322601727449537E-02
    0.36435467898369494275E-02
    0.36409982069866898315E-02
    0.36414561464403177177E-02
    0.36445002421512198189E-02
    0.36461424738731111096E-02
    0.36464550540771297621E-02
    0.36461644228221491704E-02
    0.36619830492156217605E-02
    0.36594871896731126157E-02
    0.36628521144194872011E-02
    0.36606857971745753767E-02
    0.36553553482091202809E-02
    0.36522514346866534474E-02
    0.36484324099792632759E-02
    0.36498459485087117633E-02
    0.36477054949285254645E-02
    0.36495984081027998090E-02
    0.36537639645100885265E-02
    0.36577703899677931586E-02
    0.36548621875102200660E-02
    0.36536836998340978082E-02
    0.36681045372250063903E-02
    0.36671417543054540995E-02
    0.36731767764431335309E-02
    0.36716672376408830865E-02
    0.36643670353686806120E-02
    0.36615988604253918090E-02
    0.36557550553824483090E-02
    0.36559815688135856304E-02
    0.36519459504643437056E-02
    0.36531601721430878929E-02
    0.36585260522920847771E-02
    0.36618292785214187277E-02
    0.36614810043294390013E-02
    0.36607032002158555739E-02
    0.36603084237728463791E-02
    0.36612434741877335730E-02
    0.36675336621879942728E-02
    0.36675336621831721752E-02
    0.36612434741817253582E-02
    0.36603084237549952072E-02
    0.36545748989991106749E-02
    0.36532461957571571963E-02
    0.36488457851791013774E-02
    0.36488457851772326465E-02
    0.36532461957675312764E-02
    0.36545748990155363378E-02
    0.36568807836862711989E-02
    0.36568807836832866072E-02
    0.36797419143571544892E-02
    0.36825101744768131556E-02
    0.36930974196527008302E-02
    0.36940835109241548957E-02
    0.36842277747658031505E-02
    0.36837033983747858278E-02
    0.36742117968309086912E-02
    0.36711460580290049098E-02
    0.36636362693987295155E-02
    0.36629666625186581286E-02
    0.36696704268817919442E-02
    0.36706847657857143673E-02
    0.36760929885318381453E-02
    0.36765603512604974092E-02
    0.36837033984569462347E-02
    0.36842277748336898190E-02
    0.36940835109991730124E-02
    0.36930974197123610063E-02
    0.36825101745191833429E-02
    0.36797419143783380649E-02
    0.36706847657954444313E-02
    0.36696704269072524807E-02
    0.36629666625448841118E-02
    0.36636362694338047569E-02
    0.36711460580829487384E-02
    0.36742117969052199081E-02
    0.36765603513118460914E-02
    0.36760929885749616362E-02
    0.37121166335337203897E-02
    0.37147442757206922299E-02
    0.37307057599860801028E-02
    0.37307057599729499808E-02
    0.37147442756970748372E-02
    0.37121166334788627955E-02
    0.36976143674841721078E-02
    0.36944940962995564265E-02
    0.36834300838364392172E-02
    0.36834300838469486057E-02
    0.36944940963236695165E-02
    0.36976143675410606294E-02
    0.37037479132512648311E-02
    0.37037479132442717271E-02
    0.36727748514564762493E-02
    0.36783545232272822460E-02
    0.36875886007846584574E-02
    0.36914660173906930704E-02
    0.36857199822803231141E-02
    0.36901249043807230095E-02
    0.36828547657461832045E-02
    0.36758536394465627338E-02
    0.36686043960515164579E-02
    0.36652524875453833253E-02
    0.36689003894878080038E-02
    0.36662701353081510874E-02
    0.36755899564421307298E-02
    0.36776858369823558007E-02
    0.37087088650405823642E-02
    0.37184611841478798326E-02
    0.37345287835442784845E-02
    0.37412198204936370632E-02
    0.37311873487620547847E-02
    0.37386818579956122670E-02
    0.37261695190479661617E-02
    0.37141200464694073234E-02
    0.37015867094817426521E-02
    0.36957867987953570664E-02
    0.37020697346935079602E-02
    0.36974347625593701264E-02
    0.37136737578279499332E-02
    0.37173026425415169743E-02
    0.36871477143063081071E-02
    0.36925711704601780518E-02
    0.37052414416831784896E-02
    0.37083492289036413744E-02
    0.36982041056747871378E-02
    0.37002814377782760127E-02
    0.36894628532206821640E-02
    0.36834739250260141626E-02
    0.36741894363789941516E-02
    0.36718037387422639353E-02
    0.36784040370047765486E-02
    0.36773582828081977959E-02
    0.36867046859847987621E-02
    0.36882708682282332353E-02
    0.37326194845582276981E-02
    0.37426343285057654502E-02
    0.37648891565186829930E-02
    0.37706167651202571536E-02
    0.37529336521729289057E-02
    0.37566457400769067386E-02
    0.37377985911413386458E-02
    0.37272642632730033224E-02
    0.37111047185814259250E-02
    0.37067863160490316723E-02
    0.37180547442144796892E-02
    0.37157647841027487481E-02
    0.37326321630038062499E-02
    0.37354870342889111290E-02
    0.37710942453678566837E-02
    0.37876726243069578672E-02
    0.38153158655326448005E-02
    0.38263125468353414473E-02
    0.38088177222700323431E-02
    0.38210577563524022494E-02
    0.37998971667764333722E-02
    0.37795940274412652415E-02
    0.37582774913330892035E-02
    0.37483990478681373203E-02
    0.37593017218955433918E-02
    0.37515169593173572013E-02
    0.37791520093084268912E-02
    0.37852199226655613984E-02
    0.38776240125449994156E-02
    0.39045954610364419501E-02
    0.39513731026430539903E-02
    0.39683392043397044263E-02
    0.39380081017285576556E-02
    0.39569011345359401954E-02
    0.39221450243430355451E-02
    0.38890094429685022857E-02
    0.38535998128368157377E-02
    0.38373187257119832812E-02
    0.38560908940262574908E-02
    0.38437371200061615402E-02
    0.38892707149226976582E-02
    0.38989846193257476741E-02
    0.38134844160767414345E-02
    0.38312052791676298388E-02
    0.38706644392424386508E-02
    0.38804000857895395299E-02
    0.38486890498718806866E-02
    0.38542691840346165501E-02
    0.38213129797254113615E-02
    0.38034951857267651834E-02
    0.37753688464296974656E-02
    0.37679825685508119143E-02
    0.37877822761535483338E-02
    0.37837353719023755251E-02
    0.38133683604884131314E-02
    0.38182300343522785485E-02
    0.39565384798895559398E-02
    0.39864347236410026601E-02
    0.40561466068117883743E-02
    0.40710366061537470866E-02
    0.40135551503371206042E-02
    0.40199833543254903656E-02
    0.39627100377190522043E-02
    0.39340566246688973492E-02
    0.38856055074350877472E-02
    0.38737372040864043871E-02
    0.39091971935244608852E-02
    0.39033890395929458396E-02
    0.39535556887331331152E-02
    0.39611679075090390836E-02
    0.37144837323459028652E-02
    0.37204855564746874483E-02
    0.37385955147544920087E-02
    0.37413769846937759873E-02
    0.37252267959250748644E-02
    0.37254412740947537470E-02
    0.37092687646200894064E-02
    0.37031732028186660835E-02
    0.36902536610895902980E-02
    0.36884596293075789727E-02
    0.36991962400779593301E-02
    0.36997010395340389211E-02
    0.37104619584938623722E-02
    0.37117358723664606139E-02
    0.37764762994075802907E-02
    0.37884876732666964046E-02
    0.38204051014106548551E-02
    0.38265494919436874449E-02
    0.37987614977385195623E-02
    0.38001062778170871873E-02
    0.37717475762277575570E-02
    0.37603784213043728833E-02
    0.37376981598041206928E-02
    0.37339351688875023656E-02
    0.37519286832993926223E-02
    0.37514254824446324928E-02
    0.37719782576278921594E-02
    0.37747184956623000898E-02
    0.37613747543523345582E-02
    0.37680297645693878322E-02
    0.37944731351489007810E-02
    0.37966509976897181051E-02
    0.37715985095442923145E-02
    0.37695573334771835701E-02
    0.37454850842821270709E-02
    0.37385901931284467974E-02
    0.37199179573487593971E-02
    0.37186637224800879985E-02
    0.37357243789944210785E-02
    0.37385940840382490477E-02
    0.37516655277960346895E-02
    0.37526067375595745235E-02
    0.38476896892485927190E-02
    0.38624977390059314283E-02
    0.39080961643949080689E-02
    0.39151308562238446020E-02
    0.38737386989538694429E-02
    0.38733230581638258827E-02
    0.38315967673144108417E-02
    0.38174588526280737490E-02
    0.37849723035154369047E-02
    0.37812574149148335013E-02
    0.38087441622100303221E-02
    0.38105883562042450891E-02
    0.38368989710488845754E-02
    0.38398193971040388457E-02
    0.38889009908083240971E-02
    0.39118741952521686803E-02
    0.39695088415017589639E-02
    0.39813573862904983250E-02
    0.39314430098452701756E-02
    0.39338554228535247553E-02
    0.38830671196995853421E-02
    0.38627565030104949774E-02
    0.38223735994561158259E-02
    0.38153293332813024118E-02
    0.38468184086380857213E-02
    0.38447503725206858168E-02
    0.38829085331425761130E-02
    0.38881059683490313758E-02
    0.40947371852625103969E-02
    0.41366790657023392794E-02
    0.42421258193929504282E-02
    0.42624541959120831533E-02
    0.41700866038465898497E-02
    0.41713663573059046180E-02
    0.40795960346318195511E-02
    0.40452477352120605816E-02
    0.39729912336568893455E-02
    0.39610488502702535102E-02
    0.40181532896856071019E-02
    0.40145156715703945310E-02
    0.40833140404088015193E-02
    0.40921734385858821864E-02
    0.40043791291021913620E-02
    0.40356861649684947282E-02
    0.41181083477496577272E-02
    0.41347867270793469199E-02
    0.40620448566232210397E-02
    0.40643238177037422851E-02
    0.39890738441102288614E-02
    0.39615910145510578252E-02
    0.39031312643968809131E-02
    0.38947116032872482021E-02
    0.39415009869850090377E-02
    0.39406353325238440213E-02
    0.39929609844277800038E-02
    0.39997626978034751810E-02
    0.42979290562486140853E-02
    0.43606771473883171319E-02
    0.45146369746390472427E-02
    0.45484434461465069952E-02
    0.44135962380074519537E-02
    0.44179533519408094658E-02
    0.42786464053320323597E-02
    0.42278814848384959138E-02
    0.41203998556423124949E-02
    0.41038843351849105603E-02
    0.41880799149843842000E-02
    0.41825773020401054228E-02
    0.42839066853501382715E-02
    0.42974898329549236081E-02
    0.36901249045683853951E-02
    0.36857199824472035125E-02
    0.36914660175692026213E-02
    0.36875886009454694921E-02
    0.36783545233615654556E-02
    0.36727748515641613775E-02
    0.36662701353972599293E-02
    0.36689003895939978003E-02
    0.36652524876452127582E-02
    0.36686043961651976578E-02
    0.36758536395895403774E-02
    0.36828547659225035343E-02
    0.36776858371242375327E-02
    0.36755899565735685591E-02
    0.37002814379655840811E-02
    0.36982041058503550314E-02
    0.37083492291043037778E-02
    0.37052414418704353836E-02
    0.36925711706072908425E-02
    0.36871477144228008600E-02
    0.36773582828984290038E-02
    0.36784040371115314313E-02
    0.36718037388368917999E-02
    0.36741894364875284269E-02
    0.36834739251638257997E-02
    0.36894628533826988315E-02
    0.36882708683736342876E-02
    0.36867046861212924430E-02
    0.37386818583743999800E-02
    0.37311873491045330006E-02
    0.37412198208626435379E-02
    0.37345287838816245210E-02
    0.37184611844316294189E-02
    0.37087088652778903673E-02
    0.36974347627553409701E-02
    0.37020697349214918247E-02
    0.36957867990070128461E-02
    0.37015867097206374935E-02
    0.37141200467622694122E-02
    0.37261695194026949948E-02
    0.37173026428352685425E-02
    0.37136737581032305995E-02
    0.37566457404747915887E-02
    0.37529336525557897494E-02
    0.37706167655599271554E-02
    0.37648891569381265527E-02
    0.37426343288405237129E-02
    0.37326194848396197952E-02
    0.37157647843242980895E-02
    0.37180547444626331835E-02
    0.37067863162651847227E-02
    0.37111047188225086864E-02
    0.37272642635725722858E-02
    0.37377985914854466344E-02
    0.37354870346099498975E-02
    0.37326321633102382130E-02
    0.37254412743187559874E-02
    0.37252267961307532207E-02
    0.37413769849284081795E-02
    0.37385955149653298663E-02
    0.37204855566377540571E-02
    0.37144837324713784500E-02
    0.36997010396230159239E-02
    0.36991962401922832450E-02
    0.36884596294080194620E-02
    0.36902536612079843079E-02
    0.37031732029775372636E-02
    0.37092687648168096506E-02
    0.37117358725320603527E-02
    0.37104619586466824031E-02
    0.37695573337153719454E-02
    0.37715985097374576766E-02
    0.37966509978975002473E-02
    0.37944731353105162937E-02
    0.37680297646855496867E-02
    0.37613747544098324015E-02
    0.37385940840665514949E-02
    0.37357243790728193039E-02
    0.37186637225594320819E-02
    0.37199179574640773085E-02
    0.37385901932849574525E-02
    0.37454850844970614780E-02
    0.37526067377060164099E-02
    0.37516655279193570488E-02
    0.38001062783300666031E-02
    0.37987614982272015739E-02
    0.38265494925118354042E-02
    0.38204051019364499743E-02
    0.37884876736870337806E-02
    0.37764762997601107955E-02
    0.37514254827111801274E-02
    0.37519286836033070680E-02
    0.37339351691481293891E-02
    0.37376981600951942816E-02
    0.37603784216805966750E-02
    0.37717475766707764424E-02
    0.37747184960667144391E-02
    0.37719782580111849493E-02
    0.38733230587901135329E-02
    0.38737386995199660916E-02
    0.39151308568565416218E-02
    0.39080961649593879553E-02
    0.38624977394449387658E-02
    0.38476896895853333370E-02
    0.38105883564481762664E-02
    0.38087441625297754205E-02
    0.37812574152027650723E-02
    0.37849723038636345039E-02
    0.38174588530740880682E-02
    0.38315967678650892682E-02
    0.38398193975612013654E-02
    0.38368989714691000871E-02
    0.38210577570854629970E-02
    0.38088177229411413448E-02
    0.38263125475602871584E-02
    0.38153158662060510098E-02
    0.37876726248737319254E-02
    0.37710942458531611886E-02
    0.37515169597192887276E-02
    0.37593017223532540841E-02
    0.37483990482912537233E-02
    0.37582774918063664368E-02
    0.37795940280140483819E-02
    0.37998971674611660247E-02
    0.37852199232439190726E-02
    0.37791520098544111560E-02
    0.38542691848366091370E-02
    0.38486890506523640035E-02
    0.38804000866953626894E-02
    0.38706644401103442246E-02
    0.38312052798698099064E-02
    0.38134844166833724993E-02
    0.37837353723855584632E-02
    0.37877822766772288252E-02
    0.37679825690043705459E-02
    0.37753688469246882327E-02
    0.38034951863370985818E-02
    0.38213129804140245904E-02
    0.38182300350129935208E-02
    0.38133683611244564328E-02
    0.39569011359027756597E-02
    0.39380081030027033751E-02
    0.39683392057378091486E-02
    0.39513731039426654504E-02
    0.39045954621316236212E-02
    0.38776240134938341764E-02
    0.38437371207963549717E-02
    0.38560908949098384596E-02
    0.38373187265263830441E-02
    0.38535998137402215601E-02
    0.38890094440509003458E-02
    0.39221450256194129863E-02
    0.38989846204276071631E-02
    0.38892707159687745118E-02
    0.40199833558667496733E-02
    0.40135551518710810628E-02
    0.40710366079531384517E-02
    0.40561466085458448491E-02
    0.39864347250455562169E-02
    0.39565384811276523708E-02
    0.39033890405789305710E-02
    0.39091971945747578873E-02
    0.38737372049883833994E-02
    0.38856055084108571257E-02
    0.39340566258632622687E-02
    0.39627100390501393545E-02
    0.39611679088128520440E-02
    0.39535556899967655431E-02
    0.39338554239305911428E-02
    0.39314430108974458833E-02
    0.39813573875182861617E-02
    0.39695088426676527343E-02
    0.39118741961909628616E-02
    0.38889009916288543728E-02
    0.38447503731515019626E-02
    0.38468184093254620924E-02
    0.38153293338639652360E-02
    0.38223736000912115346E-02
    0.38627565038164861019E-02
    0.38830671206257915025E-02
    0.38881059692291029990E-02
    0.38829085339886094258E-02
    0.40643238191249856164E-02
    0.40620448579563768476E-02
    0.41347867286066182849E-02
    0.41181083491524488049E-02
    0.40356861660942131703E-02
    0.40043791300387650972E-02
    0.39406353332444394796E-02
    0.39415009878162850579E-02
    0.38947116040180603143E-02
    0.39031312652231739402E-02
    0.39615910155933690279E-02
    0.39890738453353660406E-02