# vtk DataFile Version 3.0
LAPLACIEN  2D
ASCII
DATASET UNSTRUCTURED_GRID
 POINTS        7297  float
   1.5625000000000000E-002  0.96875000000000000        0.0000000000000000     
   3.1250000000000000E-002  0.96875000000000000        0.0000000000000000     
   3.1250000000000000E-002  0.98437500000000000        0.0000000000000000     
   9.3749999999999997E-003  0.97812500000000002        0.0000000000000000     
   2.0312500000000001E-002  0.97968750000000004        0.0000000000000000     
   2.1874999999999999E-002  0.99062499999999998        0.0000000000000000     
   1.0937499999999999E-002  0.98906249999999996        0.0000000000000000     
   4.6875000000000000E-002  0.96875000000000000        0.0000000000000000     
   6.2500000000000000E-002  0.96875000000000000        0.0000000000000000     
   6.2500000000000000E-002  0.98437500000000000        0.0000000000000000     
   4.0625000000000001E-002  0.97812500000000002        0.0000000000000000     
   5.1562499999999997E-002  0.97968750000000004        0.0000000000000000     
   5.3124999999999999E-002  0.99062499999999998        0.0000000000000000     
   4.2187500000000003E-002  0.98906249999999996        0.0000000000000000     
   1.5625000000000000E-002  0.93750000000000000        0.0000000000000000     
   3.1250000000000000E-002  0.93750000000000000        0.0000000000000000     
   3.1250000000000000E-002  0.95312500000000000        0.0000000000000000     
   9.3749999999999997E-003  0.94687500000000002        0.0000000000000000     
   2.0312500000000001E-002  0.94843750000000004        0.0000000000000000     
   2.1874999999999999E-002  0.95937499999999998        0.0000000000000000     
   1.0937499999999999E-002  0.95781249999999996        0.0000000000000000     
   4.6875000000000000E-002  0.93750000000000000        0.0000000000000000     
   6.2500000000000000E-002  0.93750000000000000        0.0000000000000000     
   6.2500000000000000E-002  0.95312500000000000        0.0000000000000000     
   4.0625000000000001E-002  0.94687500000000002        0.0000000000000000     
   5.1562499999999997E-002  0.94843750000000004        0.0000000000000000     
   5.3124999999999999E-002  0.95937499999999998        0.0000000000000000     
   4.2187500000000003E-002  0.95781249999999996        0.0000000000000000     
   7.8125000000000000E-002  0.96875000000000000        0.0000000000000000     
   9.3750000000000000E-002  0.96875000000000000        0.0000000000000000     
   9.3750000000000000E-002  0.98437500000000000        0.0000000000000000     
   7.1874999999999994E-002  0.97812500000000002        0.0000000000000000     
   8.2812499999999997E-002  0.97968750000000004        0.0000000000000000     
   8.4375000000000006E-002  0.99062499999999998        0.0000000000000000     
   7.3437500000000003E-002  0.98906249999999996        0.0000000000000000     
  0.10937500000000000       0.96875000000000000        0.0000000000000000     
  0.12500000000000000       0.96875000000000000        0.0000000000000000     
  0.12500000000000000       0.98437500000000000        0.0000000000000000     
  0.10312499999999999       0.97812500000000002        0.0000000000000000     
  0.11406250000000000       0.97968750000000004        0.0000000000000000     
  0.11562500000000001       0.99062499999999998        0.0000000000000000     
  0.10468750000000000       0.98906249999999996        0.0000000000000000     
   7.8125000000000000E-002  0.93750000000000000        0.0000000000000000     
   9.3750000000000000E-002  0.93750000000000000        0.0000000000000000     
   9.3750000000000000E-002  0.95312500000000000        0.0000000000000000     
   7.1874999999999994E-002  0.94687500000000002        0.0000000000000000     
   8.2812499999999997E-002  0.94843750000000004        0.0000000000000000     
   8.4375000000000006E-002  0.95937499999999998        0.0000000000000000     
   7.3437500000000003E-002  0.95781249999999996        0.0000000000000000     
  0.10937500000000000       0.93750000000000000        0.0000000000000000     
  0.12500000000000000       0.93750000000000000        0.0000000000000000     
  0.12500000000000000       0.95312500000000000        0.0000000000000000     
  0.10312499999999999       0.94687500000000002        0.0000000000000000     
  0.11406250000000000       0.94843750000000004        0.0000000000000000     
  0.11562500000000001       0.95937499999999998        0.0000000000000000     
  0.10468750000000000       0.95781249999999996        0.0000000000000000     
   1.5625000000000000E-002  0.90625000000000000        0.0000000000000000     
   3.1250000000000000E-002  0.90625000000000000        0.0000000000000000     
   3.1250000000000000E-002  0.92187500000000000        0.0000000000000000     
   9.3749999999999997E-003  0.91562500000000002        0.0000000000000000     
   2.0312500000000001E-002  0.91718750000000004        0.0000000000000000     
   2.1874999999999999E-002  0.92812499999999998        0.0000000000000000     
   1.0937499999999999E-002  0.92656249999999996        0.0000000000000000     
   4.6875000000000000E-002  0.90625000000000000        0.0000000000000000     
   6.2500000000000000E-002  0.90625000000000000        0.0000000000000000     
   6.2500000000000000E-002  0.92187500000000000        0.0000000000000000     
   4.0625000000000001E-002  0.91562500000000002        0.0000000000000000     
   5.1562499999999997E-002  0.91718750000000004        0.0000000000000000     
   5.3124999999999999E-002  0.92812499999999998        0.0000000000000000     
   4.2187500000000003E-002  0.92656249999999996        0.0000000000000000     
   1.5625000000000000E-002  0.87500000000000000        0.0000000000000000     
   3.1250000000000000E-002  0.87500000000000000        0.0000000000000000     
   3.1250000000000000E-002  0.89062500000000000        0.0000000000000000     
   9.3749999999999997E-003  0.88437500000000002        0.0000000000000000     
   2.0312500000000001E-002  0.88593750000000004        0.0000000000000000     
   2.1874999999999999E-002  0.89687499999999998        0.0000000000000000     
   1.0937499999999999E-002  0.89531249999999996        0.0000000000000000     
   4.6875000000000000E-002  0.87500000000000000        0.0000000000000000     
   6.2500000000000000E-002  0.87500000000000000        0.0000000000000000     
   6.2500000000000000E-002  0.89062500000000000        0.0000000000000000     
   4.0625000000000001E-002  0.88437500000000002        0.0000000000000000     
   5.1562499999999997E-002  0.88593750000000004        0.0000000000000000     
   5.3124999999999999E-002  0.89687499999999998        0.0000000000000000     
   4.2187500000000003E-002  0.89531249999999996        0.0000000000000000     
   7.8125000000000000E-002  0.90625000000000000        0.0000000000000000     
   9.3750000000000000E-002  0.90625000000000000        0.0000000000000000     
   9.3750000000000000E-002  0.92187500000000000        0.0000000000000000     
   7.1874999999999994E-002  0.91562500000000002        0.0000000000000000     
   8.2812499999999997E-002  0.91718750000000004        0.0000000000000000     
   8.4375000000000006E-002  0.92812499999999998        0.0000000000000000     
   7.3437500000000003E-002  0.92656249999999996        0.0000000000000000     
  0.10937500000000000       0.90625000000000000        0.0000000000000000     
  0.12500000000000000       0.90625000000000000        0.0000000000000000     
  0.12500000000000000       0.92187500000000000        0.0000000000000000     
  0.10312499999999999       0.91562500000000002        0.0000000000000000     
  0.11406250000000000       0.91718750000000004        0.0000000000000000     
  0.11562500000000001       0.92812499999999998        0.0000000000000000     
  0.10468750000000000       0.92656249999999996        0.0000000000000000     
   7.8125000000000000E-002  0.87500000000000000        0.0000000000000000     
   9.3750000000000000E-002  0.87500000000000000        0.0000000000000000     
   9.3750000000000000E-002  0.89062500000000000        0.0000000000000000     
   7.1874999999999994E-002  0.88437500000000002        0.0000000000000000     
   8.2812499999999997E-002  0.88593750000000004        0.0000000000000000     
   8.4375000000000006E-002  0.89687499999999998        0.0000000000000000     
   7.3437500000000003E-002  0.89531249999999996        0.0000000000000000     
  0.10937500000000000       0.87500000000000000        0.0000000000000000     
  0.12500000000000000       0.87500000000000000        0.0000000000000000     
  0.12500000000000000       0.89062500000000000        0.0000000000000000     
  0.10312499999999999       0.88437500000000002        0.0000000000000000     
  0.11406250000000000       0.88593750000000004        0.0000000000000000     
  0.11562500000000001       0.89687499999999998        0.0000000000000000     
  0.10468750000000000       0.89531249999999996        0.0000000000000000     
  0.14062500000000000       0.96875000000000000        0.0000000000000000     
  0.15625000000000000       0.96875000000000000        0.0000000000000000     
  0.15625000000000000       0.98437500000000000        0.0000000000000000     
  0.13437499999999999       0.97812500000000002        0.0000000000000000     
  0.14531250000000001       0.97968750000000004        0.0000000000000000     
  0.14687500000000001       0.99062499999999998        0.0000000000000000     
  0.13593749999999999       0.98906249999999996        0.0000000000000000     
  0.17187500000000000       0.96875000000000000        0.0000000000000000     
  0.18750000000000000       0.96875000000000000        0.0000000000000000     
  0.18750000000000000       0.98437500000000000        0.0000000000000000     
  0.16562499999999999       0.97812500000000002        0.0000000000000000     
  0.17656250000000001       0.97968750000000004        0.0000000000000000     
  0.17812500000000001       0.99062499999999998        0.0000000000000000     
[...]
 CELL_DATA       14336
 SCALARS Nutrients float
 LOOKUP_TABLE default
    0.25572821252870762011E-03
    0.25503510734906808437E-03
    0.25942538032465824530E-03
    0.25942538031978047393E-03
    0.25503510735120217372E-03
    0.25572821250206443592E-03
    0.25212884549530648060E-03
    0.24999497324538837943E-03
    0.24769117948576817789E-03
    0.24769117943372094418E-03
    0.24999497328365599983E-03
    0.25212884551142086906E-03
    0.25176082254595530006E-03
    0.25176082253447565904E-03
    0.26960314646086506974E-03
    0.27321304388867818837E-03
    0.28259310155010001738E-03
    0.28515204231379412099E-03
    0.27836746656042480209E-03
    0.28179981884563062768E-03
    0.27447852957090398485E-03
    0.26801562192686306492E-03
    0.26104926701240162377E-03
    0.25836516239268007009E-03
    0.26280491394122429578E-03
    0.26216130140803439470E-03
    0.26902216039317985779E-03
    0.27055989596351661753E-03
    0.28179981887235469335E-03
    0.27836746657415633102E-03
    0.28515204231851218938E-03
    0.28259310155327022453E-03
    0.27321304389815173012E-03
    0.26960314646144067268E-03
    0.26216130141879060182E-03
    0.26280491394773726086E-03
    0.25836516241688916619E-03
    0.26104926702577390231E-03
    0.26801562195518941877E-03
    0.27447852960959883513E-03
    0.27055989598170145267E-03
    0.26902216040535414715E-03
    0.29753819135352761044E-03
    0.29873492687968383405E-03
    0.31135813625530870839E-03
    0.31135813625860793560E-03
    0.29873492688093717176E-03
    0.29753819135098689107E-03
    0.28565930086389294601E-03
    0.28201033180998928002E-03
    0.27245926448668219069E-03
    0.27245926448504504541E-03
    0.28201033181320415630E-03
    0.28565930086580054552E-03
    0.28950654442249940806E-03
    0.28950654442191090313E-03
    0.30257448506547585717E-03
    0.31055489412889955006E-03
    0.32548892702092288663E-03
    0.33069050793586759465E-03
    0.32106962893111194116E-03
    0.32740612643276158786E-03
    0.31593997930035483705E-03
    0.30478631883510250372E-03
    0.29271673910057880190E-03
    0.28728622453280151794E-03
    0.29408918629431741142E-03
    0.29076976866282259505E-03
    0.30514670209974933306E-03
    0.30825967242880194814E-03
    0.35631283692140003436E-03
    0.36896274800635127161E-03
    0.39019717772774691229E-03
    0.39814209262585228445E-03
    0.38509283646113133537E-03
    0.39446451254760290768E-03
    0.37832045363299371399E-03
    0.36207479456465239834E-03
    0.34439884234412776335E-03
    0.33596459235352111672E-03
    0.34556327771995153965E-03
    0.33946491944088430992E-03
    0.36194768440582519462E-03
    0.36673835912327882843E-03
    0.33488119152072401115E-03
    0.34045767593506346500E-03
    0.35957387089070999217E-03
    0.36192650166387937321E-03
    0.34521656899753980913E-03
    0.34616000001420470797E-03
    0.32912345774647680388E-03
    0.32114004203077586462E-03
    0.30588014749996885518E-03
    0.30338734868649343008E-03
    0.31626489466405916526E-03
    0.31762317924974661516E-03
    0.32908849085497667757E-03
    0.33050003414372128080E-03
    0.39540853273898625940E-03
    0.40551081843625489667E-03
    0.43235021605779071002E-03
    0.43703854084120976123E-03
    0.41502545973422802711E-03
    0.41792739093107414547E-03
    0.39469647392074768766E-03
    0.38210711188471635502E-03
    0.36030666825184759104E-03
    0.35528071465095362224E-03
    0.37232178425995499397E-03
    0.37167855535720332755E-03
    0.39116054228677883849E-03
    0.39399134085927494438E-03
    0.32740612646571938234E-03
    0.32106962895506668343E-03
    0.33069050795464695206E-03
    0.32548892703493880179E-03
    0.31055489414207238961E-03
    0.30257448506966982222E-03
    0.29076976866360338325E-03
    0.29408918630763602195E-03
    0.28728622455913635503E-03
    0.29271673912613566972E-03
    0.30478631886784172305E-03
    0.31593997934830178077E-03
    0.30825967245174084718E-03
    0.30514670211869115816E-03
    0.34616000002298354717E-03
    0.34521656900700483988E-03
    0.36192650167788824106E-03
    0.35957387090670896732E-03
    0.34045767594228278780E-03
    0.33488119152004378271E-03
    0.31762317924064197320E-03
    0.31626489466315342277E-03
    0.30338734868935984378E-03
    0.30588014750397850587E-03
    0.32114004203838007918E-03
    0.32912345775725306875E-03
    0.33050003415049521334E-03
    0.32908849085993896249E-03
    0.39446451266041918527E-03
    0.38509283655403526428E-03
    0.39814209272140296770E-03
    0.39019717780855645755E-03
    0.36896274806742741575E-03
    0.35631283695825591512E-03
    0.33946491946116409471E-03
    0.34556327776283520502E-03
    0.33596459239489383794E-03
    0.34439884240032207037E-03
    0.36207479464591606167E-03
    0.37832045375053098731E-03
    0.36673835919788310518E-03
    0.36194768446949485878E-03
    0.41792739102290699105E-03
    0.41502545981816874824E-03
    0.43703854094223046128E-03
    0.43235021615162445071E-03
    0.40551081849870369497E-03
    0.39540853277608912142E-03
    0.37167855537180872344E-03
    0.37232178429105419488E-03
    0.35528071467301193228E-03
    0.36030666828760978286E-03
    0.38210711194297883190E-03
    0.39469647399894208306E-03
    0.39399134092145908894E-03
    0.39116054234185029153E-03
    0.39079487763304476908E-03
    0.39469984183804679217E-03
    0.41943054719960543887E-03
    0.41943054719686847891E-03
    0.39469984183372499968E-03
    0.39079487762351994458E-03
    0.36699422233513033119E-03
    0.36124292523634154387E-03
    0.34160971046619140017E-03
    0.34160971046686561129E-03
    0.36124292524395042051E-03
    0.36699422235615734812E-03
    0.37686913187133969398E-03
    0.37686913186956642711E-03
    0.46331642734976470014E-03
    0.47211294834060413403E-03
    0.50671513134097068143E-03
    0.50893601494915387436E-03
    0.47653696755445615731E-03
    0.47373857551299757918E-03
    0.44156810045590377941E-03
    0.43125923966844597690E-03
    0.40356327325001062952E-03
    0.40127494925903814870E-03
    0.42677376124319388925E-03
    0.43101636436653075705E-03
    0.44967746350420241064E-03
    0.45098432528352811735E-03
    0.47373857562102585734E-03
    0.47653696764696440663E-03
    0.50893601505462657958E-03
    0.50671513142870724857E-03
    0.47211294840070655620E-03
    0.46331642738398396385E-03
    0.43101636437229161108E-03
    0.42677376127274783101E-03
    0.40127494928189681679E-03
    0.40356327328826805843E-03
    0.43125923973674822011E-03
    0.44156810055829035736E-03
    0.45098432535107689425E-03
    0.44967746356132072896E-03
    0.56460743498296681129E-03
    0.57290489613808827114E-03
    0.61811501986164891966E-03
    0.61811501984394812657E-03
    0.57290489610467370228E-03
    0.56460743490612159707E-03
    0.52111591825135001200E-03
    0.51182817690938024486E-03
    0.47605211404086331594E-03
    0.47605211405816642367E-03
    0.51182817694562035300E-03
    0.52111591833813985380E-03
    0.54068360507245711785E-03
    0.54068360506230931078E-03
    0.43340335382941884597E-03
    0.45125255208877071856E-03
    0.48016946545061757251E-03
    0.49122753496512341995E-03
    0.47373262928498700419E-03
    0.48661931841151062931E-03
    0.46478603792246439520E-03
    0.44253829932438946320E-03
    0.41829704882920178697E-03
    0.40648344889610319537E-03
    0.41946755136651459311E-03
    0.41048724620093947953E-03
    0.44204101083037257392E-03
    0.44872365317374316709E-03
    0.53895607144224257860E-03
    0.56321442293940445108E-03
    0.60239688522008988120E-03
    0.61730374351165169609E-03
    0.59352623670533689957E-03
    0.61074823031123811300E-03
    0.58136405395453919984E-03
    0.55146847399429048571E-03
    0.51883285639788066616E-03
    0.50287778892427333847E-03
    0.52031577991396645196E-03
    0.50801469462190523407E-03
    0.55079235813530259044E-03
    0.55980947417767941421E-03
    0.48292917820699386364E-03
    0.49809671298436648899E-03
    0.53483959267746500072E-03
    0.54206864399825146952E-03
    0.51267783925015690278E-03
    0.51739037675413435124E-03
    0.48602475052795016640E-03
    0.46825470528721999022E-03
    0.43846589332254150674E-03
    0.43080655517851193601E-03
    0.45332535635039474973E-03
    0.45090017566324041946E-03
    0.47944255912806704213E-03
    0.48377065393512399876E-03
    0.60469128244255944057E-03
    0.62620131148799376784E-03
    0.67677254516581620853E-03
    0.68705416352399738787E-03
    0.64672839225837742364E-03
    0.65320174684772305210E-03
    0.61039394548474267162E-03
    0.58613868406080554992E-03
    0.54569528037079213355E-03
    0.53501278905479228258E-03
    0.56527074024235372893E-03
    0.56121782742891718893E-03
    0.60102290821575888539E-03
    0.60709172376257041631E-03
    0.68227905900315624719E-03
    0.71498944687226073397E-03
    0.76866978895959484856E-03
    0.78847890343474423287E-03
    0.75539588982416266353E-03
    0.77816750552831589604E-03
    0.73827224794380502237E-03
    0.69806462488895772069E-03
    0.65405377052187452930E-03
    0.63263474315574286418E-03
    0.65637788934142307640E-03
    0.64003409047439278022E-03
    0.69760278372009681524E-03
    0.70964156506516306785E-03
    0.87873769516367097095E-03
    0.92272781427393737053E-03
    0.99778402451225901675E-03
    0.10236479401140815594E-02
    0.97613016578943303820E-03
    0.10058364384507988577E-02
    0.95105365969436791562E-03
    0.89664134806801505315E-03
    0.83662126401082216771E-03
    0.80780710498216262445E-03
    0.84089089000523797261E-03
    0.81958503944044045018E-03
    0.89730904571318724754E-03
    0.91331186393863177282E-03
    0.77427363683550947532E-03
    0.80446802465637646477E-03
    0.87601048762249607554E-03
    0.89016001885988986150E-03
    0.83240433796116504277E-03
    0.84024519366993359517E-03
    0.78024314003367564469E-03
    0.74744314853898198309E-03
    0.69170952312651821925E-03
    0.67730423845739412200E-03
    0.71922174997382016561E-03
    0.71366126314731663689E-03
    0.76884754035711063910E-03
    0.77708091448557882214E-03
    0.10159332928770189747E-02
    0.10583883835725946439E-02
    0.11632612174372050293E-02
    0.11818008560507385369E-02
    0.10950124997833271621E-02
    0.11025298635642484177E-02
    0.10156219286876792471E-02
    0.97152388912343380211E-03
    0.89278348484187960987E-03
    0.87374691247182206550E-03
    0.93438446349006091043E-03
    0.92799477507490455916E-03
    0.10049869535211392469E-02
    0.10157977423385145845E-02
    0.56908211016053959590E-03
    0.58343645531939720538E-03
    0.63106532906868635212E-03
    0.63570914873032019574E-03
    0.59247106779886527655E-03
    0.59035633121043743724E-03
    0.54678766242750149150E-03
    0.53124894255140444558E-03
    0.49326471967618321611E-03
    0.48870077591466000357E-03
    0.52226082396489683160E-03
    0.52556927030197550001E-03
    0.55428740795997123898E-03
    0.55692752110187142712E-03
    0.71853976401939215809E-03
    0.74038254094483811792E-03
    0.80706220347231787116E-03
    0.81502830487399972013E-03
    0.75529887964299305316E-03
    0.75346174087944056252E-03
    0.69304229616962956164E-03
    0.67076149741951320970E-03
    0.61837524868141823236E-03
    0.61121378223461463822E-03
    0.65642357223756110131E-03
    0.65911513079773293572E-03
    0.70115568059915089460E-03
    0.70544198949754836209E-03
    0.69744931413049727261E-03
    0.71225074589652888780E-03
    0.77461441336102896619E-03
    0.77725738012856886942E-03
    0.71708726446019304367E-03
    0.70873936973367998408E-03
    0.64969102152123681636E-03
    0.63449693948268578395E-03
    0.58521116033391940448E-03
    0.58296357951470167014E-03
    0.62994568576277493524E-03
    0.63891690321324140153E-03
    0.67055795136366027915E-03
    0.67193266268203357284E-03
    0.88673968904710636849E-03
    0.91112000075476665562E-03
    0.99905254335215759424E-03
    0.10061825956134706501E-02
    0.92333129634991758725E-03
    0.91493926468670064723E-03
    0.83220453252185269417E-03
    0.80855808160520752873E-03
    0.73976806755915891934E-03
    0.73475074570058108818E-03
    0.79791976772301419132E-03
    0.80686051168665166421E-03
    0.85541966940774294501E-03
    0.85876481070026238016E-03
    0.93271914472876221724E-03
    0.96603505813720172077E-03
    0.10631902665092982357E-02
    0.10760968073322430688E-02
    0.98924391751039459329E-03
    0.98678963750552760315E-03
    0.89951982023786210621E-03
    0.86767411538923465333E-03
    0.79337635131267159570E-03
    0.78288698875646960205E-03
    0.84621224048322387853E-03
    0.84859023170581911449E-03
    0.91037590124917657647E-03
    0.91691849239835740426E-03
    0.12516994875517277203E-02
    0.13034104423312968795E-02
    0.14523968258155868158E-02
    0.14722514863038742815E-02
    0.13380038470765290813E-02
    0.13318798849485547625E-02
    0.11996698138610226245E-02
    0.11541237958935209647E-02
    0.10443940042265526229E-02
    0.10296007552130738080E-02
    0.11232207342090634161E-02
    0.11261684663409093389E-02
    0.12191206700340254110E-02
    0.12287122682594160596E-02
    0.11632843747710376603E-02
    0.12044055130369919846E-02
    0.13350445482818590077E-02
    0.13505552857058333686E-02
    0.12297521432314596507E-02
    0.12213244456791326822E-02
    0.10992271956365650375E-02
    0.10620735265813349268E-02
    0.96206224875349422195E-03
    0.95277398711783567974E-03
    0.10413887195403950109E-02
    0.10497097205107934047E-02
    0.11262664169861048326E-02
    0.11330058705326041986E-02
    0.15901714282602729799E-02
    0.16616588820428657147E-02
    0.18688834852969191894E-02
    0.18993206790588856425E-02
    0.17098063304812735532E-02
    0.16996704018031538134E-02
    0.15081428650480181025E-02
    0.14487065445894272819E-02
    0.12951327212496652978E-02
    0.12789816672663886256E-02
    0.14113056683058397729E-02
    0.14181997614072701114E-02
    0.15437912942304187619E-02
    0.15563195859432936864E-02
    0.48661931869965486652E-03
    0.47373262953708314546E-03
    0.49122753523190762753E-03
    0.48016946568809617483E-03
    0.45125255228069461504E-03
    0.43340335397480423156E-03
    0.41048724630927621321E-03
    0.41946755151261056480E-03
    0.40648344903158455674E-03
    0.41829704899287706689E-03
    0.44253829953912887651E-03
    0.46478603820100059538E-03
    0.44872365338344239556E-03
    0.44204101102101385923E-03
    0.51739037702868426530E-03
    0.51267783950714675319E-03
    0.54206864429385344557E-03
    0.53483959295495104268E-03
    0.49809671319569115335E-03
    0.48292917836930960825E-03
    0.45090017577672998660E-03
    0.45332535649367244630E-03
    0.43080655529767171788E-03
    0.43846589346862105277E-03
    0.46825470548269584143E-03
    0.48602475076529790552E-03
    0.48377065414301775956E-03
    0.47944255932159008261E-03
    0.61074823091381068383E-03
    0.59352623724815008980E-03
    0.61730374408939527823E-03
    0.60239688574746359882E-03
    0.56321442338164422886E-03
    0.53895607180576917024E-03
    0.50801469491660970756E-03
    0.52031578026838574535E-03
    0.50287778925382721398E-03
    0.51883285677556845606E-03
    0.55146847446112885922E-03
    0.58136405452604103007E-03
    0.55980947464263290225E-03
    0.55079235856871175837E-03
    0.65320174745646885327E-03
    0.64672839283909789969E-03
    0.68705416418164027333E-03
    0.67677254579201029210E-03
    0.62620131199013495671E-03
    0.60469128286121185799E-03
    0.56121782775508737787E-03
    0.56527074061487388602E-03
    0.53501278937802016367E-03
    0.54569528073836865399E-03
    0.58613868452021052492E-03
    0.61039394601744480923E-03
    0.60709172425059171503E-03
    0.60102290867961559451E-03
    0.59035633153869818482E-03
    0.59247106810067040692E-03
    0.63570914907312703335E-03
    0.63106532937894435631E-03
    0.58343645555956706854E-03
    0.56908211034742905380E-03
    0.52556927042619200081E-03
    0.52226082412818852080E-03
    0.48870077605254406538E-03
    0.49326471984323134057E-03
    0.53124894278345959758E-03
    0.54678766272101626995E-03
    0.55692752134434662936E-03
    0.55428740818343365509E-03
    0.70873937007506911893E-03
    0.71708726473705989776E-03
    0.77725738042036833161E-03
    0.77461441359086193742E-03
    0.71225074606325045057E-03
    0.69744931421501137406E-03
    0.63891690325110304244E-03
    0.62994568587572722599E-03
    0.58296357962919829847E-03
    0.58521116050440032987E-03
    0.63449693971221929854E-03
    0.64969102183780238352E-03
    0.67193266289409842203E-03
    0.67055795154219953718E-03
    0.75346174162418423897E-03
    0.75529888034828044415E-03
    0.81502830567726602777E-03
    0.80706220421806313357E-03
    0.74038254154927334808E-03
    0.71853976452898420113E-03
    0.65911513118432950645E-03
    0.65642357268208496781E-03
    0.61121378261831920808E-03
    0.61837524911325010297E-03
    0.67076149797466874062E-03
    0.69304229682670519253E-03
    0.70544199008704372000E-03
    0.70115568115725794909E-03
    0.91493926554748171171E-03
    0.92333129712314585685E-03
    0.10061825964599983591E-02
    0.99905254410710231210E-03
    0.91112000135354993986E-03
    0.88673968950809015869E-03
    0.80686051202701384276E-03
    0.79791976817171472985E-03
    0.73475074611232247569E-03
    0.73976806805836083612E-03
    0.80855808223336781294E-03
    0.83220453329497438670E-03
    0.85876481133422325441E-03
    0.85541966999004223626E-03
    0.77816750666178616681E-03
    0.75539589086337749317E-03
    0.78847890454242415288E-03
    0.76866978998896902560E-03
    0.71498944774950627581E-03
    0.68227905975356325369E-03
    0.64003409110306415733E-03
    0.65637789006222821940E-03
    0.63263474382783263517E-03
    0.65405377127299439872E-03
    0.69806462578896890606E-03
    0.73827224901227271082E-03
    0.70964156596951539872E-03
    0.69760278457413891270E-03
    0.84024519486014309297E-03
    0.83240433910919788343E-03
    0.89016002016017970692E-03
    0.87601048886694191965E-03
    0.80446802568063418334E-03
    0.77427363772152447800E-03
    0.71366126386562475387E-03
    0.71922175076012727444E-03
    0.67730423914958727809E-03
    0.69170952388733833709E-03
    0.74744314946274044865E-03
    0.78024314107707625366E-03
    0.77708091546947971693E-03
    0.76884754130239658931E-03
    0.10058364404496697615E-02
    0.97613016765704272923E-03
    0.10236479421309675666E-02
    0.99778402639355751914E-03
    0.92272781588834530513E-03
    0.87873769657215942269E-03
    0.81958504063931196439E-03
    0.84089089134343250175E-03
    0.80780710623030960952E-03
    0.83662126538555550270E-03
    0.89664134968594892162E-03
    0.95105366157584585347E-03
    0.91331186557752532928E-03
    0.89730904727326537759E-03
    0.11025298657267798563E-02
    0.10950125019127978070E-02
    0.11818008584836699974E-02
    0.11632612197758109007E-02
    0.10583883855110815583E-02
    0.10159332945919368960E-02
    0.92799477648119489941E-03
    0.93438446499660807610E-03
    0.87374691379877710441E-03
    0.89278348627814510443E-03
    0.97152389084169301758E-03
    0.10156219305972457190E-02
    0.10157977441788011881E-02
    0.10049869553025528052E-02
    0.98678963899596883712E-03
    0.98924391895272153694E-03
    0.10760968089759766122E-02
    0.10631902680681957780E-02
    0.96603505941897978987E-03
    0.93271914585282616680E-03
    0.84859023259156512661E-03
    0.84621224145355099580E-03
    0.78288698959766628901E-03
    0.79337635223136044032E-03
    0.86767411653170434423E-03
    0.89951982154824381387E-03
    0.91691849362378634227E-03
    0.91037590242586509739E-03
    0.12213244475192367063E-02
    0.12297521449480955987E-02
    0.13505552876289556204E-02
    0.13350445500502849082E-02
    0.12044055144832897103E-02
    0.11632843759804758089E-02
    0.10497097214649346846E-02
    0.10413887206460862873E-02
    0.95277398811132395749E-03
    0.96206224987788549214E-03
    0.10620735279667189218E-02
    0.10992271972580568238E-02