# vtk DataFile Version 3.0
LAPLACIEN  2D
ASCII
DATASET UNSTRUCTURED_GRID
FIELD FieldData 1
TIME 1 1 double
3.2000
 POINTS        7297  float
   1.5625000000000000E-002  0.96875000000000000        0.0000000000000000     
   3.1250000000000000E-002  0.96875000000000000        0.0000000000000000     
   3.1250000000000000E-002  0.98437500000000000        0.0000000000000000     
   9.3749999999999997E-003  0.97812500000000002        0.0000000000000000     
   2.0312500000000001E-002  0.97968750000000004        0.0000000000000000     
   2.1874999999999999E-002  0.99062499999999998        0.0000000000000000     
   1.0937499999999999E-002  0.98906249999999996        0.0000000000000000     
   4.6875000000000000E-002  0.96875000000000000        0.0000000000000000     
   6.2500000000000000E-002  0.96875000000000000        0.0000000000000000     
   6.2500000000000000E-002  0.98437500000000000        0.0000000000000000     
   4.0625000000000001E-002  0.97812500000000002        0.0000000000000000     
   5.1562499999999997E-002  0.97968750000000004        0.0000000000000000     
   5.3124999999999999E-002  0.99062499999999998        0.0000000000000000     
   4.2187500000000003E-002  0.98906249999999996        0.0000000000000000     
   1.5625000000000000E-002  0.93750000000000000        0.0000000000000000     
   3.1250000000000000E-002  0.93750000000000000        0.0000000000000000     
   3.1250000000000000E-002  0.95312500000000000        0.0000000000000000     
   9.3749999999999997E-003  0.94687500000000002        0.0000000000000000     
   2.0312500000000001E-002  0.94843750000000004        0.0000000000000000     
   2.1874999999999999E-002  0.95937499999999998        0.0000000000000000     
   1.0937499999999999E-002  0.95781249999999996        0.0000000000000000     
   4.6875000000000000E-002  0.93750000000000000        0.0000000000000000     
   6.2500000000000000E-002  0.93750000000000000        0.0000000000000000     
   6.2500000000000000E-002  0.95312500000000000        0.0000000000000000     
   4.0625000000000001E-002  0.94687500000000002        0.0000000000000000     
   5.1562499999999997E-002  0.94843750000000004        0.0000000000000000     
   5.3124999999999999E-002  0.95937499999999998        0.0000000000000000     
   4.2187500000000003E-002  0.95781249999999996        0.0000000000000000     
   7.8125000000000000E-002  0.96875000000000000        0.0000000000000000     
   9.3750000000000000E-002  0.96875000000000000        0.0000000000000000     
   9.3750000000000000E-002  0.98437500000000000        0.0000000000000000     
   7.1874999999999994E-002  0.97812500000000002        0.0000000000000000     
   8.2812499999999997E-002  0.97968750000000004        0.0000000000000000     
   8.4375000000000006E-002  0.99062499999999998        0.0000000000000000     
   7.3437500000000003E-002  0.98906249999999996        0.0000000000000000     
  0.10937500000000000       0.96875000000000000        0.0000000000000000     
  0.12500000000000000       0.96875000000000000        0.0000000000000000     
  0.12500000000000000       0.98437500000000000        0.0000000000000000     
  0.10312499999999999       0.97812500000000002        0.0000000000000000     
  0.11406250000000000       0.97968750000000004        0.0000000000000000     
  0.11562500000000001       0.99062499999999998        0.0000000000000000     
  0.10468750000000000       0.98906249999999996        0.0000000000000000     
   7.8125000000000000E-002  0.93750000000000000        0.0000000000000000     
   9.3750000000000000E-002  0.93750000000000000        0.0000000000000000     
   9.3750000000000000E-002  0.95312500000000000        0.0000000000000000     
   7.1874999999999994E-002  0.94687500000000002        0.0000000000000000     
   8.2812499999999997E-002  0.94843750000000004        0.0000000000000000     
   8.4375000000000006E-002  0.95937499999999998        0.0000000000000000     
   7.3437500000000003E-002  0.95781249999999996        0.0000000000000000     
  0.10937500000000000       0.93750000000000000        0.0000000000000000     
  0.12500000000000000       0.93750000000000000        0.0000000000000000     
  0.12500000000000000       0.95312500000000000        0.0000000000000000     
  0.10312499999999999       0.94687500000000002        0.0000000000000000     
  0.11406250000000000       0.94843750000000004        0.0000000000000000     
  0.11562500000000001       0.95937499999999998        0.0000000000000000     
  0.10468750000000000       0.95781249999999996        0.0000000000000000     
   1.5625000000000000E-002  0.90625000000000000        0.0000000000000000     
   3.1250000000000000E-002  0.90625000000000000        0.0000000000000000     
   3.1250000000000000E-002  0.92187500000000000        0.0000000000000000     
   9.3749999999999997E-003  0.91562500000000002        0.0000000000000000     
   2.0312500000000001E-002  0.91718750000000004        0.0000000000000000     
   2.1874999999999999E-002  0.92812499999999998        0.0000000000000000     
   1.0937499999999999E-002  0.92656249999999996        0.0000000000000000     
   4.6875000000000000E-002  0.90625000000000000        0.0000000000000000     
   6.2500000000000000E-002  0.90625000000000000        0.0000000000000000     
   6.2500000000000000E-002  0.92187500000000000        0.0000000000000000     
   4.0625000000000001E-002  0.91562500000000002        0.0000000000000000     
   5.1562499999999997E-002  0.91718750000000004        0.0000000000000000     
   5.3124999999999999E-002  0.92812499999999998        0.0000000000000000     
   4.2187500000000003E-002  0.92656249999999996        0.0000000000000000     
   1.5625000000000000E-002  0.87500000000000000        0.0000000000000000     
   3.1250000000000000E-002  0.87500000000000000        0.0000000000000000     
   3.1250000000000000E-002  0.89062500000000000        0.0000000000000000     
   9.3749999999999997E-003  0.88437500000000002        0.0000000000000000     
   2.0312500000000001E-002  0.88593750000000004        0.0000000000000000     
   2.1874999999999999E-002  0.89687499999999998        0.0000000000000000     
   1.0937499999999999E-002  0.89531249999999996        0.0000000000000000     
   4.6875000000000000E-002  0.87500000000000000        0.0000000000000000     
   6.2500000000000000E-002  0.87500000000000000        0.0000000000000000     
   6.2500000000000000E-002  0.89062500000000000        0.0000000000000000     
   4.0625000000000001E-002  0.88437500000000002        0.0000000000000000     
   5.1562499999999997E-002  0.88593750000000004        0.0000000000000000     
   5.3124999999999999E-002  0.89687499999999998        0.0000000000000000     
   4.2187500000000003E-002  0.89531249999999996        0.0000000000000000     
   7.8125000000000000E-002  0.90625000000000000        0.0000000000000000     
   9.3750000000000000E-002  0.90625000000000000        0.0000000000000000     
   9.3750000000000000E-002  0.92187500000000000        0.0000000000000000     
   7.1874999999999994E-002  0.91562500000000002        0.0000000000000000     
   8.2812499999999997E-002  0.91718750000000004        0.0000000000000000     
   8.4375000000000006E-002  0.92812499999999998        0.0000000000000000     
   7.3437500000000003E-002  0.92656249999999996        0.0000000000000000     
  0.10937500000000000       0.90625000000000000        0.0000000000000000     
  0.12500000000000000       0.90625000000000000        0.0000000000000000     
  0.12500000000000000       0.92187500000000000        0.0000000000000000     
  0.10312499999999999       0.91562500000000002        0.0000000000000000     
  0.11406250000000000       0.91718750000000004        0.0000000000000000     
  0.11562500000000001       0.92812499999999998        0.0000000000000000     
  0.10468750000000000       0.92656249999999996        0.0000000000000000     
   7.8125000000000000E-002  0.87500000000000000        0.0000000000000000     
   9.3750000000000000E-002  0.87500000000000000        0.0000000000000000     
   9.3750000000000000E-002  0.89062500000000000        0.0000000000000000     
   7.1874999999999994E-002  0.88437500000000002        0.0000000000000000     
   8.2812499999999997E-002  0.88593750000000004        0.0000000000000000     
   8.4375000000000006E-002  0.89687499999999998        0.0000000000000000     
   7.3437500000000003E-002  0.89531249999999996        0.0000000000000000     
  0.10937500000000000       0.87500000000000000        0.0000000000000000     
  0.12500000000000000       0.87500000000000000        0.0000000000000000     
  0.12500000000000000       0.89062500000000000        0.0000000000000000     
  0.10312499999999999       0.88437500000000002        0.0000000000000000     
  0.11406250000000000       0.88593750000000004        0.0000000000000000     
  0.11562500000000001       0.89687499999999998        0.0000000000000000     
  0.10468750000000000       0.89531249999999996        0.0000000000000000     
  0.14062500000000000       0.96875000000000000        0.0000000000000000     
  0.15625000000000000       0.96875000000000000        0.0000000000000000     
  0.15625000000000000       0.98437500000000000        0.0000000000000000     
  0.13437499999999999       0.97812500000000002        0.0000000000000000     
  0.14531250000000001       0.97968750000000004        0.0000000000000000     
  0.14687500000000001       0.99062499999999998        0.0000000000000000     
  0.13593749999999999       0.98906249999999996        0.0000000000000000     
  0.17187500000000000       0.96875000000000000        0.0000000000000000     
  0.18750000000000000       0.96875000000000000        0.0000000000000000     
  0.18750000000000000       0.98437500000000000        0.0000000000000000     
  0.16562499999999999       0.97812500000000002        0.0000000000000000     
  0.17656250000000001       0.97968750000000004        0.0000000000000000     
[...]
 CELL_DATA       14336
 SCALARS Nutrient float
 LOOKUP_TABLE default
    0.27948031039849515096E-02
    0.27947004661506222312E-02
    0.27954380009704558364E-02
    0.27954380009327568259E-02
    0.27947004662932485933E-02
    0.27948031038522065661E-02
    0.27942116301296268666E-02
    0.27938644429694151246E-02
    0.27934890160852478454E-02
    0.27934890152513849187E-02
    0.27938644434012424415E-02
    0.27942116299570778255E-02
    0.27941565210197320292E-02
    0.27941565208833207476E-02
    0.27972024016453128636E-02
    0.27978415551829049872E-02
    0.27995632390079307726E-02
    0.28000410771817363376E-02
    0.27987589868850790142E-02
    0.27993861232511233449E-02
    0.27980299954579947348E-02
    0.27968926031836948733E-02
    0.27956920183695296508E-02
    0.27952504826098708950E-02
    0.27960064928473624991E-02
    0.27959077975104082263E-02
    0.27970832912121105368E-02
    0.27973457958951450548E-02
    0.27993861232973290057E-02
    0.27987589868808345796E-02
    0.28000410772081527067E-02
    0.27995632390111838128E-02
    0.27978415552281036410E-02
    0.27972024016047385489E-02
    0.27959077976030402915E-02
    0.27960064927685830682E-02
    0.27952504827299562602E-02
    0.27956920182735040328E-02
    0.27968926032545722050E-02
    0.27980299954611050940E-02
    0.27973457959366634928E-02
    0.27970832912104642842E-02
    0.28025173093779508042E-02
    0.28027810916224989331E-02
    0.28054102615007589158E-02
    0.28054102614949883582E-02
    0.28027810916272139115E-02
    0.28025173093534890348E-02
    0.28001648093272544712E-02
    0.27994852110093237235E-02
    0.27977162944971046589E-02
    0.27977162944554626219E-02
    0.27994852110413393463E-02
    0.28001648093202418516E-02
    0.28009320352517436993E-02
    0.28009320352425297156E-02
    0.28035232327586058314E-02
    0.28052117638895463989E-02
    0.28084852501936191822E-02
    0.28097066999334934650E-02
    0.28075538081011801143E-02
    0.28090237517703407592E-02
    0.28064396310426564796E-02
    0.28040246633672300837E-02
    0.28015187209568383035E-02
    0.28004464259777464043E-02
    0.28017910685888855297E-02
    0.28011363454119022828E-02
    0.28040701473044560461E-02
    0.28047381472641103907E-02
    0.28158758223056079562E-02
    0.28191985455765082060E-02
    0.28248583762929060925E-02
    0.28271640378061970410E-02
    0.28236121360773122624E-02
    0.28262708595003485819E-02
    0.28218033558290115531E-02
    0.28175258978242376760E-02
    0.28130659386091652271E-02
    0.28110258533015968982E-02
    0.28133200286890557018E-02
    0.28117906438167956581E-02
    0.28174299120989629644E-02
    0.28186920935575842349E-02
    0.28106147025719484429E-02
    0.28119117967663298345E-02
    0.28164464936704181400E-02
    0.28170591259428058931E-02
    0.28130433595077888702E-02
    0.28132950930381617552E-02
    0.28093061912868016322E-02
    0.28075178199051717930E-02
    0.28042164943946103206E-02
    0.28037091604149414620E-02
    0.28064669281239905049E-02
    0.28067679011604413503E-02
    0.28092961003598148316E-02
    0.28096148623911821121E-02
    0.28257225239592294319E-02
    0.28286550878585600688E-02
    0.28363217609281943070E-02
    0.28379199177797024417E-02
    0.28316100441972452857E-02
    0.28326529037265581711E-02
    0.28260538317993722478E-02
    0.28225352719434245244E-02
    0.28168366560041282684E-02
    0.28155274776264396612E-02
    0.28198054591381271385E-02
    0.28195454836919590057E-02
    0.28248110441791681249E-02
    0.28256425189583551927E-02
    0.28090237518355446779E-02
    0.28075538081491543257E-02
    0.28097066999878900564E-02
    0.28084852502368706090E-02
    0.28052117639336005689E-02
    0.28035232327747513364E-02
    0.28011363454523824888E-02
    0.28017910686042326283E-02
    0.28004464260271066597E-02
    0.28015187209770257143E-02
    0.28040246634208395443E-02
    0.28064396310971901141E-02
    0.28047381473114097947E-02
    0.28040701473424252399E-02
    0.28132950930872505264E-02
    0.28130433595428645452E-02
    0.28170591259820071742E-02
    0.28164464936996959354E-02
    0.28119117967903809081E-02
    0.28106147025762492561E-02
    0.28067679011718571318E-02
    0.28064669281322699064E-02
    0.28037091604435756750E-02
    0.28042164944105667408E-02
    0.28075178199420012734E-02
    0.28093061913255011446E-02
    0.28096148624224587427E-02
    0.28092961003827075436E-02
    0.28262708596320782785E-02
    0.28236121361922415958E-02
    0.28271640379273943640E-02
    0.28248583764003513952E-02
    0.28191985456679029796E-02
    0.28158758223743168836E-02
    0.28117906438792882040E-02
    0.28133200287605891927E-02
    0.28110258533730080911E-02
    0.28130659386875790651E-02
    0.28175258979250650086E-02
    0.28218033559513472884E-02
    0.28186920936567826622E-02
    0.28174299121889617194E-02
    0.28326529038461304918E-02
    0.28316100443023955492E-02
    0.28379199178947575426E-02
    0.28363217610299106854E-02
    0.28286550879389445526E-02
    0.28257225240147839512E-02
    0.28195454837381833148E-02
    0.28198054591970253373E-02
    0.28155274776856041401E-02
    0.28168366560715309491E-02
    0.28225352720308259646E-02
    0.28260538319042826857E-02
    0.28256425190455246137E-02
    0.28248110442580733233E-02
    0.28243405256402997865E-02
    0.28253185568514740597E-02
    0.28319358501864887526E-02
    0.28319358501794323311E-02
    0.28253185568407972704E-02
    0.28243405256125810737E-02
    0.28182719191839761264E-02
    0.28168504165173987794E-02
    0.28121567232673658210E-02
    0.28121567232683710932E-02
    0.28168504165310727372E-02
    0.28182719192104696906E-02
    0.28207074905993796861E-02
    0.28207074905953633676E-02
    0.28446873436297572847E-02
    0.28475694289744049245E-02
    0.28585570658232820063E-02
    0.28595846650360219957E-02
    0.28493719814584135205E-02
    0.28488491987962482124E-02
    0.28389681724895797846E-02
    0.28357406372763486677E-02
    0.28278621281418773147E-02
    0.28271471519824525713E-02
    0.28341770428914241434E-02
    0.28352352022175402076E-02
    0.28408943774090940522E-02
    0.28413871379924728229E-02
    0.28488491989084462237E-02
    0.28493719815497076803E-02
    0.28595846651329553077E-02
    0.28585570658993361866E-02
    0.28475694290293791788E-02
    0.28446873436564603169E-02
    0.28352352022319436166E-02
    0.28341770429284639590E-02
    0.28271471520211486142E-02
    0.28278621281946246177E-02
    0.28357406373513025996E-02
    0.28389681725922324800E-02
    0.28413871380624047304E-02
    0.28408943774679050812E-02
    0.28781727657848114529E-02
    0.28808694632442809203E-02
    0.28972607276365209411E-02
    0.28972607276201668355E-02
    0.28808694632143890327E-02
    0.28781727657154849639E-02
    0.28632217104688612551E-02
    0.28599886642796655024E-02
    0.28485235549549851181E-02
    0.28485235549683923621E-02
    0.28599886643095331039E-02
    0.28632217105396154215E-02
    0.28695466005432463709E-02
    0.28695466005345011962E-02
    0.28375941692559093418E-02
    0.28434529561060868826E-02
    0.28530784349861735942E-02
    0.28571293981863002572E-02
    0.28511712646689924520E-02
    0.28557755573456245803E-02
    0.28482053842775888371E-02
    0.28408754915284300212E-02
    0.28332673751419222910E-02
    0.28297294564746449871E-02
    0.28335593897976562097E-02
    0.28307711173851859282E-02
    0.28405832174514416590E-02
    0.28427841047409907298E-02
    0.28749539975246132285E-02
    0.28850327345843144317E-02
    0.29015389308884903703E-02
    0.29084290777293252822E-02
    0.28981660714603651660E-02
    0.29058871221791541736E-02
    0.28930413102502138163E-02
    0.28806189130019259521E-02
    0.28676765556204962190E-02
    0.28616592730186709431E-02
    0.28681469404435509622E-02
    0.28633199941277449885E-02
    0.28801339578753870803E-02
    0.28838844804465139232E-02
    0.28524646777193570640E-02
    0.28581128739805562212E-02
    0.28712111750618571869E-02
    0.28744418245379111873E-02
    0.28639972927008302238E-02
    0.28661914530650929589E-02
    0.28550043157291320368E-02
    0.28487421459347799131E-02
    0.28390608171891080699E-02
    0.28365408814967365235E-02
    0.28434118343403091966E-02
    0.28422902427205731617E-02
    0.28520582348525811561E-02
    0.28536996052460892638E-02
    0.28993594578095643541E-02
    0.29096461477905177784E-02
    0.29323754894499875698E-02
    0.29382516967450724582E-02
    0.29202515445396113290E-02
    0.29241080861417525008E-02
    0.29048598940268656465E-02
    0.28940078491528705047E-02
    0.28774016965576634623E-02
    0.28729176196529470147E-02
    0.28844787786016733676E-02
    0.28820788009738568421E-02
    0.28994503314301936503E-02
    0.29023970951971098803E-02
    0.29389380085616725186E-02
    0.29558748453669060792E-02
    0.29839867463495955112E-02
    0.29951985309122756453E-02
    0.29774623053964379034E-02
    0.29899455211365080082E-02
    0.29684315383200527046E-02
    0.29477268934999878783E-02
    0.29259676618220336122E-02
    0.29158497662533718227E-02
    0.29269728035948754455E-02
    0.29189717642016457799E-02
    0.29472393158135640374E-02
    0.29534399591683172318E-02
    0.30471726336544031552E-02
    0.30745179529395854495E-02
    0.31217756586779223452E-02
    0.31389622856312277867E-02
    0.31083874845620790457E-02
    0.31275290706072171078E-02
    0.30924141213586101538E-02
    0.30588656609815737496E-02
    0.30229978434559417327E-02
    0.30064653804428680128E-02
    0.30254656896184766585E-02
    0.30128820091049842746E-02
    0.30590777146962313399E-02
    0.30689294091480129670E-02
    0.29818178614235504344E-02
    0.29998425914206264080E-02
    0.30398049843240117392E-02
    0.30497053776184241541E-02
    0.30176680406007114210E-02
    0.30234100672898644654E-02
    0.29900343117385498257E-02
    0.29718698728283723248E-02
    0.29432639629047938762E-02
    0.29356896045055320098E-02
    0.29557966970410868603E-02
    0.29516150346576182362E-02
    0.29818094292235960974E-02
    0.29867742550559075836E-02
    0.31265678165653472582E-02
    0.31567830417678303251E-02
    0.32270070744728428756E-02
    0.32420675685308898532E-02
    0.31842604923896702246E-02
    0.31908574764044068776E-02
    0.31331616970467373630E-02
    0.31041494068557843634E-02
    0.30552046827345235962E-02
    0.30431359136455227166E-02
    0.30789091113482209075E-02
    0.30729517544737070152E-02
    0.31237090639301928578E-02
    0.31314297514573301989E-02
    0.28806194725574910294E-02
    0.28867952608503679411E-02
    0.29053666386996091983E-02
    0.29082238667350436903E-02
    0.28916927460467694612E-02
    0.28919457779126782164E-02
    0.28753397703626102679E-02
    0.28690245113430152060E-02
    0.28556724808877550353E-02
    0.28537938722528713616E-02
    0.28648843719367785184E-02
    0.28653905203420283569E-02
    0.28765063518864258420E-02
    0.28778271483729349345E-02
    0.29440300831367958827E-02
    0.29562623143193768153E-02
    0.29886864750163885836E-02
    0.29949322214378962942E-02
    0.29667468039919942142E-02
    0.29681579373526528753E-02
    0.29393342932098470710E-02
    0.29277011992513571684E-02
    0.29045394479184152847E-02
    0.29006603956284607651E-02
    0.29190291409671828733E-02
    0.29184929575934931770E-02
    0.29394826452420115027E-02
    0.29422864579358365064E-02
    0.29286165791839436322E-02
    0.29354007065731410435E-02
    0.29623339835019731579E-02
    0.29645460350478810251E-02
    0.29390406629492870152E-02
    0.29369674076057030593E-02
    0.29124030546301645818E-02
    0.29053377245779402060E-02
    0.28862012304489582243E-02
    0.28849077577097763554E-02
    0.29023967306806681098E-02
    0.29053365612299441451E-02
    0.29187029666964694162E-02
    0.29196656599851287216E-02
    0.30163424570483787258E-02
    0.30313259280780741056E-02
    0.30774584488889558838E-02
    0.30845525583246460183E-02
    0.30426921700111081090E-02
    0.30422722417840549619E-02
    0.30000238011029731200E-02
    0.29856715182441737749E-02
    0.29526728011424283743E-02
    0.29488872992286673143E-02
    0.29768227861480594729E-02
    0.29787027890745797210E-02
    0.30053895659613587450E-02
    0.30083480700240240041E-02
    0.30580397707709108812E-02
    0.30812650060212175111E-02
    0.31394333083011398931E-02
    0.31513989824170970250E-02
    0.31010798680890469016E-02
    0.31035764551599342997E-02
    0.30523067207745393017E-02
    0.30317033380123769443E-02
    0.29908074367893441176E-02
    0.29836246918818472122E-02
    0.30155022902291954770E-02
    0.30133764160108441645E-02
    0.30520277478243537823E-02
    0.30572999688495798576E-02
    0.32655565016752423346E-02
    0.33077643874249692060E-02
    0.34137501488400645230E-02
    0.34342008857856302743E-02
    0.33414327310342622872E-02
    0.33428041529534107887E-02
    0.32505529227541849965E-02
    0.32159002511321231783E-02
    0.31431190953818861911E-02
    0.31310258286706437771E-02
    0.31885223981105979309E-02
    0.31848122628908596618E-02
    0.32541311720716541850E-02
    0.32630705390523195679E-02
    0.31746051643511321444E-02
    0.32061177881319295919E-02
    0.32890984632087975556E-02
    0.33058513129606776140E-02
    0.32326359276928485174E-02
    0.32349280986397640873E-02
    0.31591418453321561295E-02
    0.31314168982030736975E-02
    0.30724152368336392870E-02
    0.30639028691062625102E-02
    0.31111530124149663727E-02
    0.31102983574102190979E-02
    0.31630547189449970645E-02
    0.31699053773614452485E-02
    0.34698150470525417760E-02
    0.35327804215679195834E-02
    0.36872996331150684028E-02
    0.37211843254285857652E-02
    0.35858713585987579166E-02
    0.35902487649599086617E-02
    0.34504104825216048123E-02
    0.33993934967528256254E-02
    0.32913618138976979619E-02
    0.32747416914585695050E-02
    0.33593991510417029085E-02
    0.33538935715911083642E-02
    0.34556773150367738924E-02
    0.34693140686832399031E-02
    0.28557755576036993918E-02
    0.28511712649012541446E-02
    0.28571293984322272339E-02
    0.28530784352095665130E-02
    0.28434529562963600270E-02
    0.28375941694127448239E-02
    0.28307711175191837757E-02
    0.28335593899539530602E-02
    0.28297294566222404646E-02
    0.28332673753075142235E-02
    0.28408754917297125882E-02
    0.28482053845191837756E-02
    0.28427841049415898157E-02
    0.28405832176390480998E-02
    0.28661914533183300603E-02
    0.28639972929360227316E-02
    0.28744418247988899259E-02
    0.28712111753038498108E-02
    0.28581128741764060680E-02
    0.28524646778767910257E-02
    0.28422902428486889956E-02
    0.28434118344913372582E-02
    0.28365408816346262232E-02
    0.28390608173459092912E-02
    0.28487421461266346917E-02
    0.28550043159528545531E-02
    0.28536996054446405087E-02
    0.28520582350392170191E-02
    0.29058871226604349874E-02
    0.28981660718993213291E-02
    0.29084290781975401588E-02
    0.29015389313192803226E-02
    0.28850327349534726946E-02
    0.28749539978389043564E-02
    0.28633199943954817761E-02
    0.28681469407492309227E-02
    0.28616592733051900155E-02
    0.28676765559391354313E-02
    0.28806189133825858655E-02
    0.28930413107010628099E-02
    0.28838844808286795765E-02
    0.28801339582359701715E-02
    0.29241080866376232064E-02
    0.29202515450131548425E-02
    0.29382516972767591321E-02
    0.29323754899549716452E-02
    0.29096461482033355618E-02
    0.28993594581597078794E-02
    0.28820788012600732052E-02
    0.28844787789216765062E-02
    0.28729176199394968784E-02
    0.28774016968748563489E-02
    0.28940078495359616330E-02
    0.29048598944635497555E-02
    0.29023970956009552402E-02
    0.28994503318158894659E-02
    0.28919457781928213126E-02
    0.28916927463008639497E-02
    0.29082238670172931745E-02
    0.29053666389516185492E-02
    0.28867952610493246776E-02
    0.28806194727101618741E-02
    0.28653905204563639812E-02
    0.28648843720840695519E-02
    0.28537938723868774490E-02
    0.28556724810454231847E-02
    0.28690245115463842117E-02
    0.28753397706124251935E-02
    0.28778271485807305208E-02
    0.28765063520779289054E-02
    0.29369674078843716405E-02
    0.29390406631737042882E-02
    0.29645460352845545531E-02
    0.29623339836850801597E-02
    0.29354007067062546157E-02
    0.29286165792486618283E-02
    0.29053365612649591047E-02
    0.29023967307747781594E-02
    0.28849077578071108223E-02
    0.28862012305888606369E-02
    0.29053377247635577864E-02
    0.29124030548836835758E-02
    0.29196656601568559374E-02
    0.29187029668410174182E-02
    0.29681579379537319577E-02
    0.29667468045600341869E-02
    0.29949322220852586662E-02
    0.29886864756140042905E-02
    0.29562623148048096898E-02
    0.29440300835442325539E-02
    0.29184929579120473878E-02
    0.29190291413315997034E-02
    0.29006603959496422146E-02
    0.29045394482765697630E-02
    0.29277011997014550267E-02
    0.29393342937367073105E-02
    0.29422864584119955492E-02
    0.29394826456929958047E-02
    0.30422722424826124932E-02
    0.30426921706393004856E-02
    0.30845525590176589396E-02
    0.30774584495055512003E-02
    0.30313259285631223051E-02
    0.30163424574200302201E-02
    0.29787027893517633789E-02
    0.29768227865109970175E-02
    0.29488872995614588343E-02
    0.29526728015429513051E-02
    0.29856715187485506971E-02
    0.30000238017229017076E-02
    0.30083480705359040390E-02
    0.30053895664317203419E-02
    0.29899455220098055362E-02
    0.29774623062008547664E-02
    0.29951985317738681266E-02
    0.29839867471530743225E-02
    0.29558748460542512253E-02
    0.29389380091577378164E-02
    0.29189717647080028889E-02
    0.29269728041638330869E-02
    0.29158497667843056265E-02
    0.29259676624088229099E-02
    0.29477268941958275315E-02
    0.29684315391374864988E-02
    0.29534399598705411011E-02
    0.29472393164798119103E-02
    0.30234100682275540616E-02
    0.30176680415086470401E-02
    0.30497053786536529145E-02
    0.30398049853139143435E-02
    0.29998425922359416712E-02
    0.29818178621325900322E-02
    0.29516150352380731911E-02
    0.29557966976701123378E-02
    0.29356896050624276852E-02
    0.29432639635096559567E-02
    0.29718698735574670608E-02
    0.29900343125563201563E-02
    0.29867742558348422260E-02
    0.29818094299737972139E-02
    0.31275290721571652117E-02
    0.31083874860117904904E-02
    0.31389622872088720519E-02
    0.31217756601495619956E-02
    0.30745179541960061982E-02
    0.30471726347533448394E-02
    0.30128820100379077179E-02
    0.30254656906524616221E-02
    0.30064653814036315996E-02
    0.30229978445122226635E-02
    0.30588656622277622318E-02
    0.30924141228097028720E-02
    0.30689294104146681505E-02
    0.30590777159030481044E-02
    0.31908574781243878062E-02
    0.31842604940932332964E-02
    0.32420675705023579809E-02
    0.32270070763707990602E-02
    0.31567830433260435190E-02
    0.31265678179450894988E-02
    0.30729517555951302819E-02
    0.30789091125429449147E-02
    0.30431359146893669811E-02
    0.30552046838595095513E-02
    0.31041494082096146058E-02
    0.31331616985490516950E-02
    0.31314297529202355166E-02
    0.31237090653483748359E-02
    0.31035764563626198204E-02
    0.31010798692571962462E-02
    0.31513989837612292957E-02
    0.31394333095751962744E-02
    0.30812650070599942147E-02
    0.30580397716798751913E-02
    0.30133764167260893019E-02
    0.30155022910104425059E-02
    0.29836246925578533383E-02
    0.29908074375251916983E-02
    0.30317033389273277851E-02
    0.30523067218210663161E-02
    0.30572999698366505258E-02
    0.30520277487728203480E-02
    0.32349281001706449781E-02
    0.32326359291245092970E-02
    0.33058513145853064309E-02
    0.32890984646997693981E-02
    0.32061177893384497188E-02
    0.31746051653559728863E-02
    0.31102983581964161602E-02
    0.31111530133226621662E-02
    0.30639028699146007156E-02
    0.30724152377457339055E-02
    0.31314168993386844002E-02
    0.31591418466627779402E-02