# vtk DataFile Version 3.0
LAPLACIEN  2D
ASCII
DATASET UNSTRUCTURED_GRID
FIELD FieldData 1
TIME 1 1 double
12.0000
 POINTS        7297  float
   1.5625000000000000E-002  0.96875000000000000        0.0000000000000000     
   3.1250000000000000E-002  0.96875000000000000        0.0000000000000000     
   3.1250000000000000E-002  0.98437500000000000        0.0000000000000000     
   9.3749999999999997E-003  0.97812500000000002        0.0000000000000000     
   2.0312500000000001E-002  0.97968750000000004        0.0000000000000000     
   2.1874999999999999E-002  0.99062499999999998        0.0000000000000000     
   1.0937499999999999E-002  0.98906249999999996        0.0000000000000000     
   4.6875000000000000E-002  0.96875000000000000        0.0000000000000000     
   6.2500000000000000E-002  0.96875000000000000        0.0000000000000000     
   6.2500000000000000E-002  0.98437500000000000        0.0000000000000000     
   4.0625000000000001E-002  0.97812500000000002        0.0000000000000000     
   5.1562499999999997E-002  0.97968750000000004        0.0000000000000000     
   5.3124999999999999E-002  0.99062499999999998        0.0000000000000000     
   4.2187500000000003E-002  0.98906249999999996        0.0000000000000000     
   1.5625000000000000E-002  0.93750000000000000        0.0000000000000000     
   3.1250000000000000E-002  0.93750000000000000        0.0000000000000000     
   3.1250000000000000E-002  0.95312500000000000        0.0000000000000000     
   9.3749999999999997E-003  0.94687500000000002        0.0000000000000000     
   2.0312500000000001E-002  0.94843750000000004        0.0000000000000000     
   2.1874999999999999E-002  0.95937499999999998        0.0000000000000000     
   1.0937499999999999E-002  0.95781249999999996        0.0000000000000000     
   4.6875000000000000E-002  0.93750000000000000        0.0000000000000000     
   6.2500000000000000E-002  0.93750000000000000        0.0000000000000000     
   6.2500000000000000E-002  0.95312500000000000        0.0000000000000000     
   4.0625000000000001E-002  0.94687500000000002        0.0000000000000000     
   5.1562499999999997E-002  0.94843750000000004        0.0000000000000000     
   5.3124999999999999E-002  0.95937499999999998        0.0000000000000000     
   4.2187500000000003E-002  0.95781249999999996        0.0000000000000000     
   7.8125000000000000E-002  0.96875000000000000        0.0000000000000000     
   9.3750000000000000E-002  0.96875000000000000        0.0000000000000000     
   9.3750000000000000E-002  0.98437500000000000        0.0000000000000000     
   7.1874999999999994E-002  0.97812500000000002        0.0000000000000000     
   8.2812499999999997E-002  0.97968750000000004        0.0000000000000000     
   8.4375000000000006E-002  0.99062499999999998        0.0000000000000000     
   7.3437500000000003E-002  0.98906249999999996        0.0000000000000000     
  0.10937500000000000       0.96875000000000000        0.0000000000000000     
  0.12500000000000000       0.96875000000000000        0.0000000000000000     
  0.12500000000000000       0.98437500000000000        0.0000000000000000     
  0.10312499999999999       0.97812500000000002        0.0000000000000000     
  0.11406250000000000       0.97968750000000004        0.0000000000000000     
  0.11562500000000001       0.99062499999999998        0.0000000000000000     
  0.10468750000000000       0.98906249999999996        0.0000000000000000     
   7.8125000000000000E-002  0.93750000000000000        0.0000000000000000     
   9.3750000000000000E-002  0.93750000000000000        0.0000000000000000     
   9.3750000000000000E-002  0.95312500000000000        0.0000000000000000     
   7.1874999999999994E-002  0.94687500000000002        0.0000000000000000     
   8.2812499999999997E-002  0.94843750000000004        0.0000000000000000     
   8.4375000000000006E-002  0.95937499999999998        0.0000000000000000     
   7.3437500000000003E-002  0.95781249999999996        0.0000000000000000     
  0.10937500000000000       0.93750000000000000        0.0000000000000000     
  0.12500000000000000       0.93750000000000000        0.0000000000000000     
  0.12500000000000000       0.95312500000000000        0.0000000000000000     
  0.10312499999999999       0.94687500000000002        0.0000000000000000     
  0.11406250000000000       0.94843750000000004        0.0000000000000000     
  0.11562500000000001       0.95937499999999998        0.0000000000000000     
  0.10468750000000000       0.95781249999999996        0.0000000000000000     
   1.5625000000000000E-002  0.90625000000000000        0.0000000000000000     
   3.1250000000000000E-002  0.90625000000000000        0.0000000000000000     
   3.1250000000000000E-002  0.92187500000000000        0.0000000000000000     
   9.3749999999999997E-003  0.91562500000000002        0.0000000000000000     
   2.0312500000000001E-002  0.91718750000000004        0.0000000000000000     
   2.1874999999999999E-002  0.92812499999999998        0.0000000000000000     
   1.0937499999999999E-002  0.92656249999999996        0.0000000000000000     
   4.6875000000000000E-002  0.90625000000000000        0.0000000000000000     
   6.2500000000000000E-002  0.90625000000000000        0.0000000000000000     
   6.2500000000000000E-002  0.92187500000000000        0.0000000000000000     
   4.0625000000000001E-002  0.91562500000000002        0.0000000000000000     
   5.1562499999999997E-002  0.91718750000000004        0.0000000000000000     
   5.3124999999999999E-002  0.92812499999999998        0.0000000000000000     
   4.2187500000000003E-002  0.92656249999999996        0.0000000000000000     
   1.5625000000000000E-002  0.87500000000000000        0.0000000000000000     
   3.1250000000000000E-002  0.87500000000000000        0.0000000000000000     
   3.1250000000000000E-002  0.89062500000000000        0.0000000000000000     
   9.3749999999999997E-003  0.88437500000000002        0.0000000000000000     
   2.0312500000000001E-002  0.88593750000000004        0.0000000000000000     
   2.1874999999999999E-002  0.89687499999999998        0.0000000000000000     
   1.0937499999999999E-002  0.89531249999999996        0.0000000000000000     
   4.6875000000000000E-002  0.87500000000000000        0.0000000000000000     
   6.2500000000000000E-002  0.87500000000000000        0.0000000000000000     
   6.2500000000000000E-002  0.89062500000000000        0.0000000000000000     
   4.0625000000000001E-002  0.88437500000000002        0.0000000000000000     
   5.1562499999999997E-002  0.88593750000000004        0.0000000000000000     
   5.3124999999999999E-002  0.89687499999999998        0.0000000000000000     
   4.2187500000000003E-002  0.89531249999999996        0.0000000000000000     
   7.8125000000000000E-002  0.90625000000000000        0.0000000000000000     
   9.3750000000000000E-002  0.90625000000000000        0.0000000000000000     
   9.3750000000000000E-002  0.92187500000000000        0.0000000000000000     
   7.1874999999999994E-002  0.91562500000000002        0.0000000000000000     
   8.2812499999999997E-002  0.91718750000000004        0.0000000000000000     
   8.4375000000000006E-002  0.92812499999999998        0.0000000000000000     
   7.3437500000000003E-002  0.92656249999999996        0.0000000000000000     
  0.10937500000000000       0.90625000000000000        0.0000000000000000     
  0.12500000000000000       0.90625000000000000        0.0000000000000000     
  0.12500000000000000       0.92187500000000000        0.0000000000000000     
  0.10312499999999999       0.91562500000000002        0.0000000000000000     
  0.11406250000000000       0.91718750000000004        0.0000000000000000     
  0.11562500000000001       0.92812499999999998        0.0000000000000000     
  0.10468750000000000       0.92656249999999996        0.0000000000000000     
   7.8125000000000000E-002  0.87500000000000000        0.0000000000000000     
   9.3750000000000000E-002  0.87500000000000000        0.0000000000000000     
   9.3750000000000000E-002  0.89062500000000000        0.0000000000000000     
   7.1874999999999994E-002  0.88437500000000002        0.0000000000000000     
   8.2812499999999997E-002  0.88593750000000004        0.0000000000000000     
   8.4375000000000006E-002  0.89687499999999998        0.0000000000000000     
   7.3437500000000003E-002  0.89531249999999996        0.0000000000000000     
  0.10937500000000000       0.87500000000000000        0.0000000000000000     
  0.12500000000000000       0.87500000000000000        0.0000000000000000     
  0.12500000000000000       0.89062500000000000        0.0000000000000000     
  0.10312499999999999       0.88437500000000002        0.0000000000000000     
  0.11406250000000000       0.88593750000000004        0.0000000000000000     
  0.11562500000000001       0.89687499999999998        0.0000000000000000     
  0.10468750000000000       0.89531249999999996        0.0000000000000000     
  0.14062500000000000       0.96875000000000000        0.0000000000000000     
  0.15625000000000000       0.96875000000000000        0.0000000000000000     
  0.15625000000000000       0.98437500000000000        0.0000000000000000     
  0.13437499999999999       0.97812500000000002        0.0000000000000000     
  0.14531250000000001       0.97968750000000004        0.0000000000000000     
  0.14687500000000001       0.99062499999999998        0.0000000000000000     
  0.13593749999999999       0.98906249999999996        0.0000000000000000     
  0.17187500000000000       0.96875000000000000        0.0000000000000000     
  0.18750000000000000       0.96875000000000000        0.0000000000000000     
  0.18750000000000000       0.98437500000000000        0.0000000000000000     
  0.16562499999999999       0.97812500000000002        0.0000000000000000     
  0.17656250000000001       0.97968750000000004        0.0000000000000000     
[...]
 CELL_DATA       14336
 SCALARS Nutrient float
 LOOKUP_TABLE default
    0.64757569352408960589E-02
    0.64756734945698567890E-02
    0.64763251029714913667E-02
    0.64763251028853814281E-02
    0.64756734949147579800E-02
    0.64757569349428896477E-02
    0.64752402764682503652E-02
    0.64749345890300780831E-02
    0.64746045358066847339E-02
    0.64746045338277980613E-02
    0.64749345900487788319E-02
    0.64752402760449006419E-02
    0.64751923397563014920E-02
    0.64751923394347323318E-02
    0.64778983644601714070E-02
    0.64784688657130631156E-02
    0.64800171583227319030E-02
    0.64804459578393681929E-02
    0.64792851594914222316E-02
    0.64798413053966837094E-02
    0.64786246705558049944E-02
    0.64776124876652161483E-02
    0.64765438082833555813E-02
    0.64761613594702845120E-02
    0.64768268714002772204E-02
    0.64767447294779567635E-02
    0.64777880591940090182E-02
    0.64780169742709708264E-02
    0.64798413054505555470E-02
    0.64792851594384619912E-02
    0.64804459578611268294E-02
    0.64800171583002967243E-02
    0.64784688657972804710E-02
    0.64778983643543818979E-02
    0.64767447296889884764E-02
    0.64768268711942501847E-02
    0.64761613597371344223E-02
    0.64765438080294883416E-02
    0.64776124877973838626E-02
    0.64786246705115044936E-02
    0.64780169743361227033E-02
    0.64777880591631656348E-02
    0.64827140817413104329E-02
    0.64829633075682568943E-02
    0.64853834490137306570E-02
    0.64853834490059426160E-02
    0.64829633075918734197E-02
    0.64827140817131619424E-02
    0.64805686326655917093E-02
    0.64799568840391372909E-02
    0.64783611635472757376E-02
    0.64783611634439677504E-02
    0.64799568841040003364E-02
    0.64805686326225462809E-02
    0.64812732620631750488E-02
    0.64812732620446152423E-02
    0.64836200562598915453E-02
    0.64851614139316161173E-02
    0.64881804683877466328E-02
    0.64893048138653609477E-02
    0.64873075749619594360E-02
    0.64886588029240445386E-02
    0.64862739787524808371E-02
    0.64840606320700046664E-02
    0.64817713393167507990E-02
    0.64808037846132877935E-02
    0.64820254846746196489E-02
    0.64814381105085996232E-02
    0.64841071327711398073E-02
    0.64847155837323335742E-02
    0.64950616094958954841E-02
    0.64981670640318232521E-02
    0.65035003795197669080E-02
    0.65056679092845024273E-02
    0.65023011088819054892E-02
    0.65047983146069750238E-02
    0.65005831938495933775E-02
    0.64965748187111298922E-02
    0.64924071723160238154E-02
    0.64905135473171029353E-02
    0.64926549462199969337E-02
    0.64912407061807663247E-02
    0.64964945568971727008E-02
    0.64976736527112667965E-02
    0.64902145851139418989E-02
    0.64914188121050183169E-02
    0.64956629202465396983E-02
    0.64962285698380054996E-02
    0.64924553613374055838E-02
    0.64926713771594150165E-02
    0.64889500962895009517E-02
    0.64873070606796586629E-02
    0.64842621653468102139E-02
    0.64838035056191956063E-02
    0.64863535592934859139E-02
    0.64866390621629481730E-02
    0.64889721261577552186E-02
    0.64892631698892679071E-02
    0.65044147890509860371E-02
    0.65071846156945865186E-02
    0.65144890869675104936E-02
    0.65159996193038310572E-02
    0.65099606745911055977E-02
    0.65109236362999442158E-02
    0.65046446310797955900E-02
    0.65013397071884979420E-02
    0.64959710704929297595E-02
    0.64947560245695763748E-02
    0.64987941970749531564E-02
    0.64985676719112447572E-02
    0.65035184183280239298E-02
    0.65042967100270880285E-02
    0.64886588029531696784E-02
    0.64873075749686762853E-02
    0.64893048138847438805E-02
    0.64881804683964783634E-02
    0.64851614139586934160E-02
    0.64836200562422615506E-02
    0.64814381105573609654E-02
    0.64820254846464364640E-02
    0.64808037846651343414E-02
    0.64817713392906596906E-02
    0.64840606321044250496E-02
    0.64862739787660194865E-02
    0.64847155837552310567E-02
    0.64841071327795948495E-02
    0.64926713771779505369E-02
    0.64924553613429809851E-02
    0.64962285698533699455E-02
    0.64956629202558404182E-02
    0.64914188121188761554E-02
    0.64902145851074505636E-02
    0.64866390621784566009E-02
    0.64863535592789133694E-02
    0.64838035056491976488E-02
    0.64842621653325984918E-02
    0.64873070607007407573E-02
    0.64889500962925471261E-02
    0.64892631699032836054E-02
    0.64889721261617034492E-02
    0.65047983146659191928E-02
    0.65023011089289720066E-02
    0.65056679093368832700E-02
    0.65035003795640301122E-02
    0.64981670640704572786E-02
    0.64950616095162975669E-02
    0.64912407062066180413E-02
    0.64926549462407034605E-02
    0.64905135473463581794E-02
    0.64924071723412284801E-02
    0.64965748187554512097E-02
    0.65005831939041764517E-02
    0.64976736527530189885E-02
    0.64964945569314707860E-02
    0.65109236363538091144E-02
    0.65099606746381452269E-02
    0.65159996193618705679E-02
    0.65144890870192720400E-02
    0.65071846157334729474E-02
    0.65044147890734108075E-02
    0.64985676719306207511E-02
    0.64987941970935363817E-02
    0.64947560245941816925E-02
    0.64959710705141081311E-02
    0.65013397072259566933E-02
    0.65046446311224619813E-02
    0.65042967100657203203E-02
    0.65035184183615916964E-02
    0.65031236735981750446E-02
    0.65040594311862008625E-02
    0.65103532422396753407E-02
    0.65103532422360090026E-02
    0.65040594311841764402E-02
    0.65031236735861785644E-02
    0.64973869664880501418E-02
    0.64960576427001443661E-02
    0.64916548917202596125E-02
    0.64916548917134586291E-02
    0.64960576427102309158E-02
    0.64973869664962467102E-02
    0.64996942883799608409E-02
    0.64996942883771419153E-02
    0.65225694736277583033E-02
    0.65253395964087667833E-02
    0.65359340520437254202E-02
    0.65369209471386833382E-02
    0.65270582775970803838E-02
    0.65265333738493188503E-02
    0.65170355849019758268E-02
    0.65139679223624371435E-02
    0.65064534601157594448E-02
    0.65057834140193017067E-02
    0.65124913823127661069E-02
    0.65135063687702344712E-02
    0.65189181020773728781E-02
    0.65193858208340430341E-02
    0.65265333739119640519E-02
    0.65270582776493571431E-02
    0.65369209471996510621E-02
    0.65359340520925544166E-02
    0.65253395964432105852E-02
    0.65225694736451064054E-02
    0.65135063687773112756E-02
    0.65124913823298999707E-02
    0.65057834140380514654E-02
    0.65064534601382457979E-02
    0.65139679224030036520E-02
    0.65170355849573334550E-02
    0.65193858208733449291E-02
    0.65189181021100602725E-02
    0.65549672123931803855E-02
    0.65575971401197977878E-02
    0.65735703202418086996E-02
    0.65735703202305772325E-02
    0.65575971401003914363E-02
    0.65549672123476291491E-02
    0.65404544749409808738E-02
    0.65373321328302544733E-02
    0.65262602542201309311E-02
    0.65262602542284255114E-02
    0.65373321328508881417E-02
    0.65404544749888210778E-02
    0.65465927316727791710E-02
    0.65465927316668611619E-02
    0.65155965791832666859E-02
    0.65211798504638106982E-02
    0.65304197376553135487E-02
    0.65343000176141816451E-02
    0.65285499906672624440E-02
    0.65329578345855506688E-02
    0.65256827165259163881E-02
    0.65186770604982215149E-02
    0.65114235453767035575E-02
    0.65080691663764525523E-02
    0.65117198447059371560E-02
    0.65090877641389138092E-02
    0.65184132554117445169E-02
    0.65205107686817937590E-02
    0.65515547673984870017E-02
    0.65613138240662449707E-02
    0.65773928990486832044E-02
    0.65840892109628682688E-02
    0.65740490693732001048E-02
    0.65815490284744839616E-02
    0.65690276398606599687E-02
    0.65569693727400776839E-02
    0.65444273950038198140E-02
    0.65386230470169202228E-02
    0.65449109288382833344E-02
    0.65402723751295591126E-02
    0.65565227774383762205E-02
    0.65601545707666408802E-02
    0.65299797318774084956E-02
    0.65354066798020103712E-02
    0.65480854920972574040E-02
    0.65511958209088436145E-02
    0.65410430520226950368E-02
    0.65431214837315745947E-02
    0.65322956611072093697E-02
    0.65263026422114085029E-02
    0.65170121764919451690E-02
    0.65146249243670378837E-02
    0.65212299188123212801E-02
    0.65201835737475821383E-02
    0.65295359607087568449E-02
    0.65311032235500663876E-02
    0.65754834324879048862E-02
    0.65855055951929020869E-02
    0.66077766037959465018E-02
    0.66135086418583413637E-02
    0.65958120602949543015E-02
    0.65995265419003142082E-02
    0.65806655253003261061E-02
    0.65701235532668097322E-02
    0.65539523861375334479E-02
    0.65496308029104012213E-02
    0.65609078361833503626E-02
    0.65586161463923233622E-02
    0.65754956608687189015E-02
    0.65783526716049044863E-02
    0.66139856622901170222E-02
    0.66305763443488298370E-02
    0.66582406391354253053E-02
    0.66692454103249925942E-02
    0.66517374689274173100E-02
    0.66639867968635042167E-02
    0.66428101365764401220E-02
    0.66224916244525368694E-02
    0.66011593149652141727E-02
    0.65912728988497242683E-02
    0.66021843258066408716E-02
    0.65943933987759979429E-02
    0.66220491186842183468E-02
    0.66281218630045244528E-02
    0.67205957652219042858E-02
    0.67475875550670255318E-02
    0.67944002153216102868E-02
    0.68113789049037585729E-02
    0.67810258894222515472E-02
    0.67999335121857150399E-02
    0.67651512495071446096E-02
    0.67319900070255183841E-02
    0.66965538329082242158E-02
    0.66802598032960425548E-02
    0.66990465234762651067E-02
    0.66866830044386470558E-02
    0.67322512944408092680E-02
    0.67419727611287309441E-02
    0.66564084406656402054E-02
    0.66741421727255926047E-02
    0.67136309462989089691E-02
    0.67233734080624834792E-02
    0.66916389510929792997E-02
    0.66972231249426954908E-02
    0.66642422803264867587E-02
    0.66464109500889096208E-02
    0.66182636368308867328E-02
    0.66108717378515714433E-02
    0.66306865920052375854E-02
    0.66266365999261677561E-02
    0.66562918664549546033E-02
    0.66611571364967713665E-02
    0.67995681003446698312E-02
    0.68294862106849487174E-02
    0.68992488116822294278E-02
    0.69141492424999572569E-02
    0.68566270703025256408E-02
    0.68630603162898509012E-02
    0.68057452771730616095E-02
    0.67770703566103025414E-02
    0.67285830510007893154E-02
    0.67167055570462250169E-02
    0.67521921287414720866E-02
    0.67463796324197331661E-02
    0.67965836039345951802E-02
    0.68042014537889553699E-02
    0.65573356380150861489E-02
    0.65633418335465489382E-02
    0.65814646722783514549E-02
    0.65842484777169493423E-02
    0.65680861069359790586E-02
    0.65683003614531217801E-02
    0.65521162589702915818E-02
    0.65460164374894934045E-02
    0.65330880074841776034E-02
    0.65312926881386200451E-02
    0.65420370861497484719E-02
    0.65425422036867733264E-02
    0.65533106417290098999E-02
    0.65545855501240183130E-02
    0.66193739505320857777E-02
    0.66313940621595618766E-02
    0.66633354065228208793E-02
    0.66694844418853068205E-02
    0.66416752046775219889E-02
    0.66430206258403790009E-02
    0.66146407961779557852E-02
    0.66032630671236814540E-02
    0.65805660968812299677E-02
    0.65768003373779934315E-02
    0.65948075897565355472E-02
    0.65943039855048974501E-02
    0.66148720947034420764E-02
    0.66176144277039442715E-02
    0.66042624447283111017E-02
    0.66109223571743933393E-02
    0.66373856858072018128E-02
    0.66395652449286095623E-02
    0.66144932920996447542E-02
    0.66124501780587671348E-02
    0.65883599977079407989E-02
    0.65814599645066113043E-02
    0.65627739981593538263E-02
    0.65615189875472034256E-02
    0.65785925876690291847E-02
    0.65814645650317683129E-02
    0.65945456333843790672E-02
    0.65954874967615977066E-02
    0.66906427136424239180E-02
    0.67054618181208915789E-02
    0.67510941754359253542E-02
    0.67581340389335029656E-02
    0.67167102275694154367E-02
    0.67162935776112504122E-02
    0.66745358635471865524E-02
    0.66603876739001989168E-02
    0.66278764881575850942E-02
    0.66241589917702620519E-02
    0.66516672166742679337E-02
    0.66535128412941284270E-02
    0.66798431354599839202E-02
    0.66827656101211517503E-02
    0.67318823967236719394E-02
    0.67548725071169372913E-02
    0.68125494334462495874E-02
    0.68244062223945054640E-02
    0.67744551259018327694E-02
    0.67768687492626355703E-02
    0.67260427505118633787E-02
    0.67057175067771522883E-02
    0.66653043533117127192E-02
    0.66582548755723964390E-02
    0.66897681329565871627E-02
    0.66876985967943584563E-02
    0.67258850684410887572E-02
    0.67310862072177861729E-02
    0.69378676219410753689E-02
    0.69798386033279487262E-02
    0.70853589139793921037E-02
    0.71057006831166920693E-02
    0.70132691374280835966E-02
    0.70145494301598670592E-02
    0.69227146322870551295E-02
    0.68883417953900186875E-02
    0.68160331408299232314E-02
    0.68040819991484818505E-02
    0.68612282690165794438E-02
    0.68575885210820407625E-02
    0.69264356461605719809E-02
    0.69353012075078438597E-02
    0.68474485291326169650E-02
    0.68787775982713655898E-02
    0.69612593241686806372E-02
    0.69779485740493821244E-02
    0.69051538796223044941E-02
    0.69074334776264281407E-02
    0.68321289451253198327E-02
    0.68046265118256342094E-02
    0.67461237014129465245E-02
    0.67376979755537583922E-02
    0.67845227089592050063E-02
    0.67836572679555590115E-02
    0.68360204612226164664E-02
    0.68428269006821024548E-02
    0.71412052195853423925E-02
    0.72039940756669466893E-02
    0.73580573778581582697E-02
    0.73918841149152401254E-02
    0.72569469084320104013E-02
    0.72613052204255641026E-02
    0.71219044317310520320E-02
    0.70711052463304866628E-02
    0.69635485971499674548E-02
    0.69470220466667344586E-02
    0.70312775911668132581E-02
    0.70257722448463328854E-02
    0.71271704727376081201E-02
    0.71407623023093747330E-02
    0.65329578347277286049E-02
    0.65285499907914348178E-02
    0.65343000177490295072E-02
    0.65304197377752150333E-02
    0.65211798505617505836E-02
    0.65155965792582509755E-02
    0.65090877641988112087E-02
    0.65117198447787625823E-02
    0.65080691664452152562E-02
    0.65114235454559110314E-02
    0.65186770606034671882E-02
    0.65256827166597919376E-02
    0.65205107687854322110E-02
    0.65184132555063953665E-02
    0.65431214838761967562E-02
    0.65410430521593695627E-02
    0.65511958210706421404E-02
    0.65480854922489572373E-02
    0.65354066799175984659E-02
    0.65299797319669306353E-02
    0.65201835738131685635E-02
    0.65212299188895936700E-02
    0.65146249244335879477E-02
    0.65170121765684282597E-02
    0.65263026423140954591E-02
    0.65322956612288854764E-02
    0.65311032236609065441E-02
    0.65295359608124889719E-02
    0.65815490287880187500E-02
    0.65740490696538601487E-02
    0.65840892112685889953E-02
    0.65773928993261366119E-02
    0.65613138242952371432E-02
    0.65515547675859845886E-02
    0.65402723752791148276E-02
    0.65449109290159641211E-02
    0.65386230471803034187E-02
    0.65444273951911447959E-02
    0.65569693729767702939E-02
    0.65690276401539392584E-02
    0.65601545710036691592E-02
    0.65565227776588274819E-02
    0.65995265422357680951E-02
    0.65958120606198090280E-02
    0.66135086422396301142E-02
    0.66077766041607805328E-02
    0.65855055954778356220E-02
    0.65754834327251144438E-02
    0.65586161465721734207E-02
    0.65609078363850752841E-02
    0.65496308030811708698E-02
    0.65539523863293817213E-02
    0.65701235535128759205E-02
    0.65806655255851078529E-02
    0.65783526718729166613E-02
    0.65754956611243078543E-02
    0.65683003616410573847E-02
    0.65680861071104133103E-02
    0.65842484779213145130E-02
    0.65814646724627187332E-02
    0.65633418336867111256E-02
    0.65573356381230423276E-02
    0.65425422037593758406E-02
    0.65420370862424642375E-02
    0.65312926882174042464E-02
    0.65330880075767094883E-02
    0.65460164376197243000E-02
    0.65521162591326894548E-02
    0.65545855502624561853E-02
    0.65533106418568199888E-02
    0.66124501782711953002E-02
    0.66144932922728846489E-02
    0.66395652451182356549E-02
    0.66373856859551416329E-02
    0.66109223572799052926E-02
    0.66042624447812843524E-02
    0.65814645650557239767E-02
    0.65785925877372497875E-02
    0.65615189876151473400E-02
    0.65627739982587153175E-02
    0.65814599646446527922E-02
    0.65883599978983093531E-02
    0.65954874968919665126E-02
    0.65945456334941723181E-02
    0.66430206262975410869E-02
    0.66416752051158822745E-02
    0.66694844424036040312E-02
    0.66633354070032577501E-02
    0.66313940625387594180E-02
    0.66193739508498524240E-02
    0.65943039857382229618E-02
    0.65948075900217296638E-02
    0.65768003375999096669E-02
    0.65805660971291913414E-02
    0.66032630674529389087E-02
    0.66146407965677186599E-02
    0.66176144280627926392E-02
    0.66148720950437202293E-02
    0.67162935781922171105E-02
    0.67167102280964834093E-02
    0.67581340395287724590E-02
    0.67510941759676588655E-02
    0.67054618185311597525E-02
    0.66906427139572883719E-02
    0.66535128415170473326E-02
    0.66516672169666503714E-02
    0.66241589920299241354E-02
    0.66278764884724868447E-02
    0.66603876743095346766E-02
    0.66745358640542895926E-02
    0.66827656105439359538E-02
    0.66798431358486617254E-02
    0.66639867975084822113E-02
    0.66517374695143965599E-02
    0.66692454109640482429E-02
    0.66582406397266945264E-02
    0.66305763448394209117E-02
    0.66139856627049822130E-02
    0.65943933991114266763E-02
    0.66021843261935509936E-02
    0.65912728992042939405E-02
    0.66011593153663013223E-02
    0.66224916249476521030E-02
    0.66428101371775478273E-02
    0.66281218635045827808E-02
    0.66220491191540499856E-02
    0.66972231256594650164E-02
    0.66916389517932082370E-02
    0.67233734088872204593E-02
    0.67136309470902212973E-02
    0.66741421733565358190E-02
    0.66564084412075591457E-02
    0.66266366003475442314E-02
    0.66306865924620284405E-02
    0.66108717382394556125E-02
    0.66182636372560509769E-02
    0.66464109506242548264E-02
    0.66642422809336191586E-02
    0.66611571370828841221E-02
    0.66562918670188958581E-02
    0.67999335134392097438E-02
    0.67810258905870836668E-02
    0.68113789061904385369E-02
    0.67944002165142318092E-02
    0.67475875560616396451E-02
    0.67205957660767031564E-02
    0.66866830051392047232E-02
    0.66990465242655122466E-02
    0.66802598040186641701E-02
    0.66965538337157909030E-02
    0.67319900080058565905E-02
    0.67651512506748112674E-02
    0.67419727621278215113E-02
    0.67322512953864955057E-02
    0.68630603177203481149E-02
    0.68566270717311493532E-02
    0.69141492441930577778E-02
    0.68992488133146631993E-02
    0.68294862119940586559E-02
    0.67995681014944063872E-02
    0.67463796333209723188E-02
    0.67521921297013769853E-02
    0.67167055578593280740E-02
    0.67285830518830679406E-02
    0.67770703577053588787E-02
    0.68057452783975508695E-02
    0.68042014549937485796E-02
    0.67965836051019504552E-02
    0.67768687502612898546E-02
    0.67744551268814692802E-02
    0.68244062235501088548E-02
    0.68125494345446218486E-02
    0.67548725079933490817E-02
    0.67318823974888489237E-02
    0.66876985973720395884E-02
    0.66897681335847981876E-02
    0.66582548760962378259E-02
    0.66653043538830369572E-02
    0.67057175075147966090E-02
    0.67260427513626203436E-02
    0.67310862080308276473E-02
    0.67258850692228982701E-02
    0.69074334789796581688E-02
    0.69051538808944136483E-02
    0.69779485755166294550E-02
    0.69612593255170308881E-02
    0.68787775993470840971E-02
    0.68474485300269970212E-02
    0.67836572686351378006E-02
    0.67845227097427769983E-02
    0.67376979762361274839E-02
    0.67461237021855229717E-02
    0.68046265128099327896E-02
    0.68321289462849920174E-02