# vtk DataFile Version 3.0
LAPLACIEN  2D
ASCII
DATASET UNSTRUCTURED_GRID
FIELD FieldData 1
TIME 1 1 double
8.0000
 POINTS        7297  float
   1.5625000000000000E-002  0.96875000000000000        0.0000000000000000     
   3.1250000000000000E-002  0.96875000000000000        0.0000000000000000     
   3.1250000000000000E-002  0.98437500000000000        0.0000000000000000     
   9.3749999999999997E-003  0.97812500000000002        0.0000000000000000     
   2.0312500000000001E-002  0.97968750000000004        0.0000000000000000     
   2.1874999999999999E-002  0.99062499999999998        0.0000000000000000     
   1.0937499999999999E-002  0.98906249999999996        0.0000000000000000     
   4.6875000000000000E-002  0.96875000000000000        0.0000000000000000     
   6.2500000000000000E-002  0.96875000000000000        0.0000000000000000     
   6.2500000000000000E-002  0.98437500000000000        0.0000000000000000     
   4.0625000000000001E-002  0.97812500000000002        0.0000000000000000     
   5.1562499999999997E-002  0.97968750000000004        0.0000000000000000     
   5.3124999999999999E-002  0.99062499999999998        0.0000000000000000     
   4.2187500000000003E-002  0.98906249999999996        0.0000000000000000     
   1.5625000000000000E-002  0.93750000000000000        0.0000000000000000     
   3.1250000000000000E-002  0.93750000000000000        0.0000000000000000     
   3.1250000000000000E-002  0.95312500000000000        0.0000000000000000     
   9.3749999999999997E-003  0.94687500000000002        0.0000000000000000     
   2.0312500000000001E-002  0.94843750000000004        0.0000000000000000     
   2.1874999999999999E-002  0.95937499999999998        0.0000000000000000     
   1.0937499999999999E-002  0.95781249999999996        0.0000000000000000     
   4.6875000000000000E-002  0.93750000000000000        0.0000000000000000     
   6.2500000000000000E-002  0.93750000000000000        0.0000000000000000     
   6.2500000000000000E-002  0.95312500000000000        0.0000000000000000     
   4.0625000000000001E-002  0.94687500000000002        0.0000000000000000     
   5.1562499999999997E-002  0.94843750000000004        0.0000000000000000     
   5.3124999999999999E-002  0.95937499999999998        0.0000000000000000     
   4.2187500000000003E-002  0.95781249999999996        0.0000000000000000     
   7.8125000000000000E-002  0.96875000000000000        0.0000000000000000     
   9.3750000000000000E-002  0.96875000000000000        0.0000000000000000     
   9.3750000000000000E-002  0.98437500000000000        0.0000000000000000     
   7.1874999999999994E-002  0.97812500000000002        0.0000000000000000     
   8.2812499999999997E-002  0.97968750000000004        0.0000000000000000     
   8.4375000000000006E-002  0.99062499999999998        0.0000000000000000     
   7.3437500000000003E-002  0.98906249999999996        0.0000000000000000     
  0.10937500000000000       0.96875000000000000        0.0000000000000000     
  0.12500000000000000       0.96875000000000000        0.0000000000000000     
  0.12500000000000000       0.98437500000000000        0.0000000000000000     
  0.10312499999999999       0.97812500000000002        0.0000000000000000     
  0.11406250000000000       0.97968750000000004        0.0000000000000000     
  0.11562500000000001       0.99062499999999998        0.0000000000000000     
  0.10468750000000000       0.98906249999999996        0.0000000000000000     
   7.8125000000000000E-002  0.93750000000000000        0.0000000000000000     
   9.3750000000000000E-002  0.93750000000000000        0.0000000000000000     
   9.3750000000000000E-002  0.95312500000000000        0.0000000000000000     
   7.1874999999999994E-002  0.94687500000000002        0.0000000000000000     
   8.2812499999999997E-002  0.94843750000000004        0.0000000000000000     
   8.4375000000000006E-002  0.95937499999999998        0.0000000000000000     
   7.3437500000000003E-002  0.95781249999999996        0.0000000000000000     
  0.10937500000000000       0.93750000000000000        0.0000000000000000     
  0.12500000000000000       0.93750000000000000        0.0000000000000000     
  0.12500000000000000       0.95312500000000000        0.0000000000000000     
  0.10312499999999999       0.94687500000000002        0.0000000000000000     
  0.11406250000000000       0.94843750000000004        0.0000000000000000     
  0.11562500000000001       0.95937499999999998        0.0000000000000000     
  0.10468750000000000       0.95781249999999996        0.0000000000000000     
   1.5625000000000000E-002  0.90625000000000000        0.0000000000000000     
   3.1250000000000000E-002  0.90625000000000000        0.0000000000000000     
   3.1250000000000000E-002  0.92187500000000000        0.0000000000000000     
   9.3749999999999997E-003  0.91562500000000002        0.0000000000000000     
   2.0312500000000001E-002  0.91718750000000004        0.0000000000000000     
   2.1874999999999999E-002  0.92812499999999998        0.0000000000000000     
   1.0937499999999999E-002  0.92656249999999996        0.0000000000000000     
   4.6875000000000000E-002  0.90625000000000000        0.0000000000000000     
   6.2500000000000000E-002  0.90625000000000000        0.0000000000000000     
   6.2500000000000000E-002  0.92187500000000000        0.0000000000000000     
   4.0625000000000001E-002  0.91562500000000002        0.0000000000000000     
   5.1562499999999997E-002  0.91718750000000004        0.0000000000000000     
   5.3124999999999999E-002  0.92812499999999998        0.0000000000000000     
   4.2187500000000003E-002  0.92656249999999996        0.0000000000000000     
   1.5625000000000000E-002  0.87500000000000000        0.0000000000000000     
   3.1250000000000000E-002  0.87500000000000000        0.0000000000000000     
   3.1250000000000000E-002  0.89062500000000000        0.0000000000000000     
   9.3749999999999997E-003  0.88437500000000002        0.0000000000000000     
   2.0312500000000001E-002  0.88593750000000004        0.0000000000000000     
   2.1874999999999999E-002  0.89687499999999998        0.0000000000000000     
   1.0937499999999999E-002  0.89531249999999996        0.0000000000000000     
   4.6875000000000000E-002  0.87500000000000000        0.0000000000000000     
   6.2500000000000000E-002  0.87500000000000000        0.0000000000000000     
   6.2500000000000000E-002  0.89062500000000000        0.0000000000000000     
   4.0625000000000001E-002  0.88437500000000002        0.0000000000000000     
   5.1562499999999997E-002  0.88593750000000004        0.0000000000000000     
   5.3124999999999999E-002  0.89687499999999998        0.0000000000000000     
   4.2187500000000003E-002  0.89531249999999996        0.0000000000000000     
   7.8125000000000000E-002  0.90625000000000000        0.0000000000000000     
   9.3750000000000000E-002  0.90625000000000000        0.0000000000000000     
   9.3750000000000000E-002  0.92187500000000000        0.0000000000000000     
   7.1874999999999994E-002  0.91562500000000002        0.0000000000000000     
   8.2812499999999997E-002  0.91718750000000004        0.0000000000000000     
   8.4375000000000006E-002  0.92812499999999998        0.0000000000000000     
   7.3437500000000003E-002  0.92656249999999996        0.0000000000000000     
  0.10937500000000000       0.90625000000000000        0.0000000000000000     
  0.12500000000000000       0.90625000000000000        0.0000000000000000     
  0.12500000000000000       0.92187500000000000        0.0000000000000000     
  0.10312499999999999       0.91562500000000002        0.0000000000000000     
  0.11406250000000000       0.91718750000000004        0.0000000000000000     
  0.11562500000000001       0.92812499999999998        0.0000000000000000     
  0.10468750000000000       0.92656249999999996        0.0000000000000000     
   7.8125000000000000E-002  0.87500000000000000        0.0000000000000000     
   9.3750000000000000E-002  0.87500000000000000        0.0000000000000000     
   9.3750000000000000E-002  0.89062500000000000        0.0000000000000000     
   7.1874999999999994E-002  0.88437500000000002        0.0000000000000000     
   8.2812499999999997E-002  0.88593750000000004        0.0000000000000000     
   8.4375000000000006E-002  0.89687499999999998        0.0000000000000000     
   7.3437500000000003E-002  0.89531249999999996        0.0000000000000000     
  0.10937500000000000       0.87500000000000000        0.0000000000000000     
  0.12500000000000000       0.87500000000000000        0.0000000000000000     
  0.12500000000000000       0.89062500000000000        0.0000000000000000     
  0.10312499999999999       0.88437500000000002        0.0000000000000000     
  0.11406250000000000       0.88593750000000004        0.0000000000000000     
  0.11562500000000001       0.89687499999999998        0.0000000000000000     
  0.10468750000000000       0.89531249999999996        0.0000000000000000     
  0.14062500000000000       0.96875000000000000        0.0000000000000000     
  0.15625000000000000       0.96875000000000000        0.0000000000000000     
  0.15625000000000000       0.98437500000000000        0.0000000000000000     
  0.13437499999999999       0.97812500000000002        0.0000000000000000     
  0.14531250000000001       0.97968750000000004        0.0000000000000000     
  0.14687500000000001       0.99062499999999998        0.0000000000000000     
  0.13593749999999999       0.98906249999999996        0.0000000000000000     
  0.17187500000000000       0.96875000000000000        0.0000000000000000     
  0.18750000000000000       0.96875000000000000        0.0000000000000000     
  0.18750000000000000       0.98437500000000000        0.0000000000000000     
  0.16562499999999999       0.97812500000000002        0.0000000000000000     
  0.17656250000000001       0.97968750000000004        0.0000000000000000     
[...]
 CELL_DATA       14336
 SCALARS Nutrient float
 LOOKUP_TABLE default
    0.45696672434871960303E-02
    0.45695820131240573805E-02
    0.45702337994706120419E-02
    0.45702337994103694324E-02
    0.45695820133639306060E-02
    0.45696672432771453035E-02
    0.45691492826324371992E-02
    0.45688440622278321188E-02
    0.45685142875807908600E-02
    0.45685142862006093006E-02
    0.45688440629391103773E-02
    0.45691492823389315281E-02
    0.45691015570065857121E-02
    0.45691015567820136151E-02
    0.45718057132090889755E-02
    0.45723755724956498953E-02
    0.45739231088122844077E-02
    0.45743510026430176871E-02
    0.45731910566336308327E-02
    0.45737478178671719595E-02
    0.45725312717637958335E-02
    0.45715196715307576669E-02
    0.45704527000303427423E-02
    0.45700681394766984669E-02
    0.45707354498041577115E-02
    0.45706523868022791435E-02
    0.45716946633980789366E-02
    0.45719246261289279987E-02
    0.45737478179100760078E-02
    0.45731910566007795069E-02
    0.45743510026617865277E-02
    0.45739231087992297461E-02
    0.45723755725565595059E-02
    0.45718057131362167117E-02
    0.45706523869504184568E-02
    0.45707354496624750390E-02
    0.45700681396643990165E-02
    0.45704526998561539539E-02
    0.45715196716266462418E-02
    0.45725312717385165756E-02
    0.45719246261777700055E-02
    0.45716946633790897861E-02
    0.45766176684797627017E-02
    0.45768666172473267822E-02
    0.45792849982510524381E-02
    0.45792849982452627985E-02
    0.45768666172627718927E-02
    0.45766176684575131384E-02
    0.45744734780944415475E-02
    0.45738625014472913954E-02
    0.45722677758732784697E-02
    0.45722677758015337762E-02
    0.45738625014935287150E-02
    0.45744734780667718407E-02
    0.45751777455719450441E-02
    0.45751777455587533394E-02
    0.45775230215217739549E-02
    0.45790631288480532907E-02
    0.45820800613683076649E-02
    0.45832034781220030301E-02
    0.45812075765658119217E-02
    0.45825580831542495758E-02
    0.45801748641204438270E-02
    0.45779630235887281905E-02
    0.45756759139426381178E-02
    0.45747079380290840006E-02
    0.45759297654758418483E-02
    0.45753427108310906410E-02
    0.45780093279116527635E-02
    0.45786178361793281391E-02
    0.45889562876910063721E-02
    0.45920595390962475751E-02
    0.45973892166050675523E-02
    0.45995551808327653914E-02
    0.45961906023988842451E-02
    0.45986860714243927087E-02
    0.45944739041679609481E-02
    0.45904682844110696743E-02
    0.45863036087901614193E-02
    0.45844112806183957495E-02
    0.45865512029713683545E-02
    0.45851380663769949336E-02
    0.45903881131827339521E-02
    0.45915663494443866716E-02
    0.45841127042467767760E-02
    0.45853160060509790333E-02
    0.45895571477890268614E-02
    0.45901224212408844871E-02
    0.45863518375898115406E-02
    0.45865677553293404678E-02
    0.45828489931627391582E-02
    0.45812072708612556343E-02
    0.45781643749234005036E-02
    0.45777064072486696455E-02
    0.45802543678702713204E-02
    0.45805397532040301872E-02
    0.45828711293852781791E-02
    0.45831617777083617782E-02
    0.45983030639081736574E-02
    0.46010709230920364757E-02
    0.46083706826806911452E-02
    0.46098800839653843522E-02
    0.46038451295084504775E-02
    0.46048075353088639000E-02
    0.45985326782446885041E-02
    0.45952300387866774900E-02
    0.45898650074423664319E-02
    0.45886510138539830794E-02
    0.45926862159699228388E-02
    0.45924598917329887901E-02
    0.45974072140051681565E-02
    0.45981848954897725640E-02
    0.45825580831868094681E-02
    0.45812075765806108477E-02
    0.45832034781457036896E-02
    0.45820800613830797027E-02
    0.45790631288740264379E-02
    0.45775230215144213294E-02
    0.45753427108690836872E-02
    0.45759297654620872259E-02
    0.45747079380718492711E-02
    0.45756759139315462959E-02
    0.45779630236218874298E-02
    0.45801748641416629645E-02
    0.45786178362037010039E-02
    0.45780093279252928942E-02
    0.45865677553512031878E-02
    0.45863518376009623431E-02
    0.45901224212592014323E-02
    0.45895571478017111594E-02
    0.45853160060648169224E-02
    0.45841127042437210606E-02
    0.45805397532154620149E-02
    0.45802543678630609422E-02
    0.45777064072728950589E-02
    0.45781643749181399547E-02
    0.45812072708819933861E-02
    0.45828489931729384649E-02
    0.45831617777236915295E-02
    0.45828711293926594275E-02
    0.45986860714932811800E-02
    0.45961906024559557801E-02
    0.45995551808947158362E-02
    0.45973892166585152499E-02
    0.45920595391416695746E-02
    0.45889562877193942544E-02
    0.45851380664064193132E-02
    0.45865512030006643646E-02
    0.45844112806524561776E-02
    0.45863036088242218474E-02
    0.45904682844627358110E-02
    0.45944739042324250072E-02
    0.45915663494939295067E-02
    0.45903881132251453390E-02
    0.46048075353718135455E-02
    0.46038451295640318850E-02
    0.46098800840313073138E-02
    0.46083706827396691413E-02
    0.46010709231364427946E-02
    0.45983030639358130065E-02
    0.45924598917553198854E-02
    0.45926862159952437301E-02
    0.45886510138823275937E-02
    0.45898650074709841651E-02
    0.45952300388307715587E-02
    0.45985326782965766854E-02
    0.45981848955350219585E-02
    0.45974072140452793001E-02
    0.45970128926017010326E-02
    0.45979479645508417734E-02
    0.46042376862760799744E-02
    0.46042376862721482236E-02
    0.45979479645470739541E-02
    0.45970128925879524817E-02
    0.45912800539618259937E-02
    0.45899516470944978774E-02
    0.45855520177873441978E-02
    0.45855520177834722950E-02
    0.45899516471039278342E-02
    0.45912800539735492550E-02
    0.45935857478526269035E-02
    0.45935857478499615009E-02
    0.46164458961690107985E-02
    0.46192142164184664399E-02
    0.46298019454874949491E-02
    0.46307880947495791077E-02
    0.46209317402875534769E-02
    0.46204071504813990293E-02
    0.46109153900791809144E-02
    0.46078498467321832993E-02
    0.46003403682317884488E-02
    0.45996708650072682181E-02
    0.46063743763306679024E-02
    0.46073887176218998596E-02
    0.46127968486302066420E-02
    0.46132641933345607671E-02
    0.46204071505508764392E-02
    0.46209317403454706896E-02
    0.46307880948154500275E-02
    0.46298019455402426858E-02
    0.46192142164556077369E-02
    0.46164458961878299462E-02
    0.46073887176297147888E-02
    0.46063743763510023310E-02
    0.45996708650283216896E-02
    0.46003403682590574345E-02
    0.46078498467772999875E-02
    0.46109153901414002413E-02
    0.46132641933780650298E-02
    0.46127968486666462433E-02
    0.46488230915900392165E-02
    0.46514512007203153918E-02
    0.46674147244592347275E-02
    0.46674147244474091176E-02
    0.46514512006993634016E-02
    0.46488230915412214958E-02
    0.46343193701846125895E-02
    0.46311989465354580844E-02
    0.46201342150807818768E-02
    0.46201342150899984626E-02
    0.46311989465572332009E-02
    0.46343193702357080022E-02
    0.46404536193025546637E-02
    0.46404536192962749647E-02
    0.46094773079607990682E-02
    0.46150567500833784146E-02
    0.46242908475257402112E-02
    0.46281683304784208832E-02
    0.46224219783885375432E-02
    0.46268269002751778729E-02
    0.46195565502700096025E-02
    0.46125555695850865151E-02
    0.46053067440307510552E-02
    0.46019549361418863459E-02
    0.46056028762021953074E-02
    0.46029728387086479846E-02
    0.46122920012289037386E-02
    0.46143879104482542902E-02
    0.46454124401960061874E-02
    0.46551654805456633285E-02
    0.46712350014442042753E-02
    0.46779268795331657022E-02
    0.46678927954851272969E-02
    0.46753881221609453617E-02
    0.46628741844028775282E-02
    0.46508234774487594576E-02
    0.46382891630304800418E-02
    0.46324887819026187505E-02
    0.46387724533246826875E-02
    0.46341372285206849924E-02
    0.46503772949861533689E-02
    0.46540065968554136452E-02
    0.46238512711458141374E-02
    0.46292747825940807477E-02
    0.46419459057144641170E-02
    0.46450539328035051270E-02
    0.46349076051023733319E-02
    0.46369846949036600328E-02
    0.46261654099398231976E-02
    0.46201765020476657370E-02
    0.46108919771446644359E-02
    0.46085064660221879140E-02
    0.46151070025460096471E-02
    0.46140614644785945056E-02
    0.46234077516890065632E-02
    0.46249739053778630635E-02
    0.46693271704976889100E-02
    0.46793432568941126237E-02
    0.47016016060868921767E-02
    0.47073300409330382302E-02
    0.46896435767322863439E-02
    0.46933557618399728006E-02
    0.46745055619555261894E-02
    0.46639701361817203357E-02
    0.46478086722671289183E-02
    0.46434900167593917350E-02
    0.46547600562511868422E-02
    0.46524700847740104240E-02
    0.46693392287196922724E-02
    0.46721943801160143589E-02
    0.47078061565340939901E-02
    0.47243872067184193228E-02
    0.47520358491827249456E-02
    0.47630344016762107134E-02
    0.47455359156438649271E-02
    0.47577781505252726355E-02
    0.47366133898757607767E-02
    0.47163066475395922297E-02
    0.46949865875038493401E-02
    0.46851064525000310143E-02
    0.46960112308123969083E-02
    0.46882253593251580273E-02
    0.47158647107372079696E-02
    0.47219337214847757755E-02
    0.48143570007573499234E-02
    0.48413341197899913831E-02
    0.48881224676437448617E-02
    0.49050921473221395161E-02
    0.48747539973446564129E-02
    0.48936512319896936785E-02
    0.48588871066738937785E-02
    0.48257440612439672298E-02
    0.47903268553925867565E-02
    0.47740422299152257893E-02
    0.47928186950252811560E-02
    0.47804625048789390826E-02
    0.48260056150612150316E-02
    0.48357216451802237725E-02
    0.47502060395466531514E-02
    0.47679301128136499996E-02
    0.48073977538282963717E-02
    0.48171350924948253339E-02
    0.47854169135990286960E-02
    0.47909976767326429778E-02
    0.47580343951554911891E-02
    0.47402134109731956443E-02
    0.47120817472826532005E-02
    0.47046944048668506988E-02
    0.47244981606066977983E-02
    0.47204508621266610263E-02
    0.47500891712749081924E-02
    0.47549516286108702706E-02
    0.48932909482016298530E-02
    0.49231937554865250889E-02
    0.49929221589300699577E-02
    0.50078152160688959443E-02
    0.49503199687563640904E-02
    0.49567491568644423197E-02
    0.48994622259336739409E-02
    0.48708026148611997461E-02
    0.48223404298273495408E-02
    0.48104697646269237860E-02
    0.48459381517787910795E-02
    0.48401291868253974726E-02
    0.48903067724020265333E-02
    0.48979205308203209099E-02
    0.46511902540727016048E-02
    0.46571927515368536851E-02
    0.46753050463377524709E-02
    0.46780869493893316099E-02
    0.46619342676946602319E-02
    0.46621484427640785125E-02
    0.46459739476235727834E-02
    0.46398780160794511965E-02
    0.46269575239808544836E-02
    0.46251634935414766281E-02
    0.46359010633288781633E-02
    0.46364059900400938705E-02
    0.46471677629227993792E-02
    0.46484417795414839994E-02
    0.47131922766428056143E-02
    0.47252057397142218503E-02
    0.47571294586918862549E-02
    0.47632750293032499050E-02
    0.47354811605831775498E-02
    0.47368258051727696670E-02
    0.47084616383498796230E-02
    0.46970907234258124294E-02
    0.46744067936363665680E-02
    0.46706434145706628852E-02
    0.46886400485271024705E-02
    0.46881369032520910436E-02
    0.47086930430080692345E-02
    0.47114337097804654189E-02
    0.46980886692968857124E-02
    0.47047448284092104401E-02
    0.47311930687489898648E-02
    0.47333713747390098944E-02
    0.47083140223305088717E-02
    0.47062722917455782762E-02
    0.46821959562170188673E-02
    0.46753000784654488373E-02
    0.46566252194075122978E-02
    0.46553709084936100229E-02
    0.46724340744039643755E-02
    0.46753042485173220907E-02
    0.46883777046354511986E-02
    0.46893190411183777525E-02
    0.47844206274686032834E-02
    0.47992319062886952888E-02
    0.48448403340551060570E-02
    0.48518766469359412077E-02
    0.48104750278331271165E-02
    0.48100590286329399786E-02
    0.47683236560075248703E-02
    0.47541830250694052523E-02
    0.47216899532175182069E-02
    0.47179744696423837891E-02
    0.47454668719165643900E-02
    0.47473114282965966915E-02
    0.47736274375033234049E-02
    0.47765484294010037217E-02
    0.48256400510979105892E-02
    0.48486182793643153865E-02
    0.49062661110406005985E-02
    0.49181171470442514027E-02
    0.48681909853946162686E-02
    0.48706033929519429448E-02
    0.48198033829680185167E-02
    0.47994888107854233664E-02
    0.47590972363128741102E-02
    0.47520517716529674102E-02
    0.47835478867998652841E-02
    0.47814796291492716804E-02
    0.48196458114785440882E-02
    0.48248442390361702056E-02
    0.50315238089112569730E-02
    0.50734753269381918303E-02
    0.51789472195622604511E-02
    0.51992800445994991412E-02
    0.51068901973993149901E-02
    0.51081696580504232577E-02
    0.50163773379284879589E-02
    0.49820213547029550474E-02
    0.49097478392949337953E-02
    0.48978029678767550162E-02
    0.49549212026787463337E-02
    0.49512831791514149565E-02
    0.50200972798122569726E-02
    0.50289585865021749905E-02
    0.49411457419539237326E-02
    0.49724600499361218051E-02
    0.50549018926006310942E-02
    0.50715840171097602979E-02
    0.49988245816365677043E-02
    0.50011037105490230639E-02
    0.49258358623255962816E-02
    0.48983468999204918953E-02
    0.48398737173709844087E-02
    0.48314522739509799254E-02
    0.48782525831649343334E-02
    0.48773869459885228067E-02
    0.49297245409842642416E-02
    0.49365277794178605633E-02
    0.52347655093274722896E-02
    0.52975280145914861382E-02
    0.54515243358650000011E-02
    0.54853381579020085018E-02
    0.53504590477550361544E-02
    0.53548165323039414662E-02
    0.52154765905887022145E-02
    0.51646999666188500924E-02
    0.50571927014965113376E-02
    0.50406735443312353229E-02
    0.51248894931303634603E-02
    0.51193858683874562954E-02
    0.52207390451912234416E-02
    0.52343252188684621581E-02
    0.46268269004334098074E-02
    0.46224219785279373196E-02
    0.46281683306286982432E-02
    0.46242908476602185772E-02
    0.46150567501941049467E-02
    0.46094773080475352420E-02
    0.46029728387787204047E-02
    0.46056028762870232854E-02
    0.46019549362215301028E-02
    0.46053067441223626693E-02
    0.46125555697036071598E-02
    0.46195565504189963282E-02
    0.46143879105654296569E-02
    0.46122920013366370054E-02
    0.46369846950633690844E-02
    0.46349076052529022268E-02
    0.46450539329790149073E-02
    0.46419459058788230948E-02
    0.46292747827207736747E-02
    0.46238512712449796049E-02
    0.46140614645527947002E-02
    0.46151070026338907384E-02
    0.46085064660985166143E-02
    0.46108919772326513453E-02
    0.46201765021627403535E-02
    0.46261654100758662841E-02
    0.46249739055009243469E-02
    0.46234077518043726132E-02
    0.46753881224975389619E-02
    0.46678927957877333274E-02
    0.46779268798612660962E-02
    0.46712350017429071780E-02
    0.46551654807940098107E-02
    0.46454124404012083621E-02
    0.46341372286866477220E-02
    0.46387724535202467385E-02
    0.46324887820830733601E-02
    0.46382891632361505918E-02
    0.46508234777053007736E-02
    0.46628741847179692309E-02
    0.46540065971125352262E-02
    0.46503772952260326659E-02
    0.46933557621974932375E-02
    0.46896435770777270338E-02
    0.47073300413349198831E-02
    0.47016016064711169467E-02
    0.46793432571966466632E-02
    0.46693271707505699594E-02
    0.46524700849686073667E-02
    0.46547600564694081166E-02
    0.46434900169461850242E-02
    0.46478086724764779494E-02
    0.46639701364467010813E-02
    0.46745055622613562035E-02
    0.46721943804027910377E-02
    0.46693392289933015327E-02
    0.46621484429647625999E-02
    0.46619342678802131938E-02
    0.46780869496043297681E-02
    0.46753050465315523082E-02
    0.46571927516850779999E-02
    0.46511902541868897776E-02
    0.46364059901184539320E-02
    0.46359010634293273262E-02
    0.46251634936278320301E-02
    0.46269575240826515267E-02
    0.46398780162197686416E-02
    0.46459739477981683645E-02
    0.46484417796895218314E-02
    0.46471677630594851807E-02
    0.47062722919671172092E-02
    0.47083140225108264382E-02
    0.47333713749350041569E-02
    0.47311930689018016558E-02
    0.47047448285184589878E-02
    0.46980886693514540414E-02
    0.46753042485428181890E-02
    0.46724340744758244282E-02
    0.46553709085655134436E-02
    0.46566252195125888355E-02
    0.46753000786099877320E-02
    0.46821959564160731820E-02
    0.46893190412544260431E-02
    0.46883777047500357557E-02
    0.47368258056496755082E-02
    0.47354811610393517107E-02
    0.47632750298391163951E-02
    0.47571294591883788588E-02
    0.47252057401079320884E-02
    0.47131922769728523681E-02
    0.46881369034971701742E-02
    0.46886400488060329950E-02
    0.46706434148062279249E-02
    0.46744067938996412132E-02
    0.46970907237716607793E-02
    0.47084616387584920030E-02
    0.47114337101554337045E-02
    0.47086930433635539733E-02
    0.48100590292298765413E-02
    0.48104750283739887429E-02
    0.48518766475442931183E-02
    0.48448403345984535420E-02
    0.47992319067090586857E-02
    0.47844206277911863895E-02
    0.47473114285269211315E-02
    0.47454668722186369931E-02
    0.47179744699119693582E-02
    0.47216899535442507715E-02
    0.47541830254916586304E-02
    0.47683236565300149076E-02
    0.47765484298359084381E-02
    0.47736274379031329307E-02
    0.47577781512013594262E-02
    0.47455359162606449916E-02
    0.47630344023455867264E-02
    0.47520358498030880814E-02
    0.47243872072359220302E-02
    0.47078061569739279232E-02
    0.46882253596841061416E-02
    0.46960112312244180199E-02
    0.46851064528788425798E-02
    0.46949865879305384062E-02
    0.47163066480621395130E-02
    0.47366133905064802118E-02
    0.47219337220125341681E-02
    0.47158647112339998134E-02
    0.47909976774795064863E-02
    0.47854169143276550566E-02
    0.48171350933481687714E-02
    0.48073977546466703861E-02
    0.47679301134697380307E-02
    0.47502060401114478902E-02
    0.47204508625699088953E-02
    0.47244981610871849761E-02
    0.47046944052779558765E-02
    0.47120817477325598055E-02
    0.47402134115350396185E-02
    0.47580343957914685710E-02
    0.47549516292233655682E-02
    0.47500891718643403414E-02
    0.48936512332830748792E-02
    0.48747539985481268959E-02
    0.49050921486481170383E-02
    0.48881224688741365184E-02
    0.48413341208200901325E-02
    0.48143570016453869631E-02
    0.47804625056111649944E-02
    0.47928186958479009061E-02
    0.47740422306702693864E-02
    0.47903268562340716244E-02
    0.48257440622603078872E-02
    0.48588871078799672140E-02
    0.48357216462156038875E-02
    0.48260056160423694255E-02
    0.49567491583339604033E-02
    0.49503199702221551207E-02
    0.50078152177993641436E-02
    0.49929221605983448509E-02
    0.49231937568292461621E-02
    0.48932909493825437267E-02
    0.48401291877565259109E-02
    0.48459381527706365742E-02
    0.48104697654713975824E-02
    0.48223404307426893933E-02
    0.48708026159912706093E-02
    0.48994622271958179760E-02
    0.48979205320600419094E-02
    0.48903067736033589696E-02
    0.48706033939782296394E-02
    0.48681909863998633695E-02
    0.49181171482251860930E-02
    0.49062661121628227054E-02
    0.48486182802626679594E-02
    0.48256400518826084167E-02
    0.47814796297456912955E-02
    0.47835478874489979415E-02
    0.47520517721975283343E-02
    0.47590972369067974582E-02
    0.47994888115471647308E-02
    0.48198033838454312425E-02
    0.48248442398728576958E-02
    0.48196458122830177634E-02
    0.50011037119261818676E-02
    0.49988245829301388573E-02
    0.50715840185980498242E-02
    0.50549018939680815179E-02
    0.49724600510293931119E-02
    0.49411457428630836328E-02
    0.48773869466825717917E-02
    0.48782525839653218674E-02
    0.48314522746503796649E-02
    0.48398737181625309245E-02
    0.48983469009251916909E-02
    0.49258358635082700322E-02