# vtk DataFile Version 3.0
LAPLACIEN  2D
ASCII
DATASET UNSTRUCTURED_GRID
FIELD FieldData 1
TIME 1 1 double
9.3000
 POINTS        7297  float
   1.5625000000000000E-002  0.96875000000000000        0.0000000000000000     
   3.1250000000000000E-002  0.96875000000000000        0.0000000000000000     
   3.1250000000000000E-002  0.98437500000000000        0.0000000000000000     
   9.3749999999999997E-003  0.97812500000000002        0.0000000000000000     
   2.0312500000000001E-002  0.97968750000000004        0.0000000000000000     
   2.1874999999999999E-002  0.99062499999999998        0.0000000000000000     
   1.0937499999999999E-002  0.98906249999999996        0.0000000000000000     
   4.6875000000000000E-002  0.96875000000000000        0.0000000000000000     
   6.2500000000000000E-002  0.96875000000000000        0.0000000000000000     
   6.2500000000000000E-002  0.98437500000000000        0.0000000000000000     
   4.0625000000000001E-002  0.97812500000000002        0.0000000000000000     
   5.1562499999999997E-002  0.97968750000000004        0.0000000000000000     
   5.3124999999999999E-002  0.99062499999999998        0.0000000000000000     
   4.2187500000000003E-002  0.98906249999999996        0.0000000000000000     
   1.5625000000000000E-002  0.93750000000000000        0.0000000000000000     
   3.1250000000000000E-002  0.93750000000000000        0.0000000000000000     
   3.1250000000000000E-002  0.95312500000000000        0.0000000000000000     
   9.3749999999999997E-003  0.94687500000000002        0.0000000000000000     
   2.0312500000000001E-002  0.94843750000000004        0.0000000000000000     
   2.1874999999999999E-002  0.95937499999999998        0.0000000000000000     
   1.0937499999999999E-002  0.95781249999999996        0.0000000000000000     
   4.6875000000000000E-002  0.93750000000000000        0.0000000000000000     
   6.2500000000000000E-002  0.93750000000000000        0.0000000000000000     
   6.2500000000000000E-002  0.95312500000000000        0.0000000000000000     
   4.0625000000000001E-002  0.94687500000000002        0.0000000000000000     
   5.1562499999999997E-002  0.94843750000000004        0.0000000000000000     
   5.3124999999999999E-002  0.95937499999999998        0.0000000000000000     
   4.2187500000000003E-002  0.95781249999999996        0.0000000000000000     
   7.8125000000000000E-002  0.96875000000000000        0.0000000000000000     
   9.3750000000000000E-002  0.96875000000000000        0.0000000000000000     
   9.3750000000000000E-002  0.98437500000000000        0.0000000000000000     
   7.1874999999999994E-002  0.97812500000000002        0.0000000000000000     
   8.2812499999999997E-002  0.97968750000000004        0.0000000000000000     
   8.4375000000000006E-002  0.99062499999999998        0.0000000000000000     
   7.3437500000000003E-002  0.98906249999999996        0.0000000000000000     
  0.10937500000000000       0.96875000000000000        0.0000000000000000     
  0.12500000000000000       0.96875000000000000        0.0000000000000000     
  0.12500000000000000       0.98437500000000000        0.0000000000000000     
  0.10312499999999999       0.97812500000000002        0.0000000000000000     
  0.11406250000000000       0.97968750000000004        0.0000000000000000     
  0.11562500000000001       0.99062499999999998        0.0000000000000000     
  0.10468750000000000       0.98906249999999996        0.0000000000000000     
   7.8125000000000000E-002  0.93750000000000000        0.0000000000000000     
   9.3750000000000000E-002  0.93750000000000000        0.0000000000000000     
   9.3750000000000000E-002  0.95312500000000000        0.0000000000000000     
   7.1874999999999994E-002  0.94687500000000002        0.0000000000000000     
   8.2812499999999997E-002  0.94843750000000004        0.0000000000000000     
   8.4375000000000006E-002  0.95937499999999998        0.0000000000000000     
   7.3437500000000003E-002  0.95781249999999996        0.0000000000000000     
  0.10937500000000000       0.93750000000000000        0.0000000000000000     
  0.12500000000000000       0.93750000000000000        0.0000000000000000     
  0.12500000000000000       0.95312500000000000        0.0000000000000000     
  0.10312499999999999       0.94687500000000002        0.0000000000000000     
  0.11406250000000000       0.94843750000000004        0.0000000000000000     
  0.11562500000000001       0.95937499999999998        0.0000000000000000     
  0.10468750000000000       0.95781249999999996        0.0000000000000000     
   1.5625000000000000E-002  0.90625000000000000        0.0000000000000000     
   3.1250000000000000E-002  0.90625000000000000        0.0000000000000000     
   3.1250000000000000E-002  0.92187500000000000        0.0000000000000000     
   9.3749999999999997E-003  0.91562500000000002        0.0000000000000000     
   2.0312500000000001E-002  0.91718750000000004        0.0000000000000000     
   2.1874999999999999E-002  0.92812499999999998        0.0000000000000000     
   1.0937499999999999E-002  0.92656249999999996        0.0000000000000000     
   4.6875000000000000E-002  0.90625000000000000        0.0000000000000000     
   6.2500000000000000E-002  0.90625000000000000        0.0000000000000000     
   6.2500000000000000E-002  0.92187500000000000        0.0000000000000000     
   4.0625000000000001E-002  0.91562500000000002        0.0000000000000000     
   5.1562499999999997E-002  0.91718750000000004        0.0000000000000000     
   5.3124999999999999E-002  0.92812499999999998        0.0000000000000000     
   4.2187500000000003E-002  0.92656249999999996        0.0000000000000000     
   1.5625000000000000E-002  0.87500000000000000        0.0000000000000000     
   3.1250000000000000E-002  0.87500000000000000        0.0000000000000000     
   3.1250000000000000E-002  0.89062500000000000        0.0000000000000000     
   9.3749999999999997E-003  0.88437500000000002        0.0000000000000000     
   2.0312500000000001E-002  0.88593750000000004        0.0000000000000000     
   2.1874999999999999E-002  0.89687499999999998        0.0000000000000000     
   1.0937499999999999E-002  0.89531249999999996        0.0000000000000000     
   4.6875000000000000E-002  0.87500000000000000        0.0000000000000000     
   6.2500000000000000E-002  0.87500000000000000        0.0000000000000000     
   6.2500000000000000E-002  0.89062500000000000        0.0000000000000000     
   4.0625000000000001E-002  0.88437500000000002        0.0000000000000000     
   5.1562499999999997E-002  0.88593750000000004        0.0000000000000000     
   5.3124999999999999E-002  0.89687499999999998        0.0000000000000000     
   4.2187500000000003E-002  0.89531249999999996        0.0000000000000000     
   7.8125000000000000E-002  0.90625000000000000        0.0000000000000000     
   9.3750000000000000E-002  0.90625000000000000        0.0000000000000000     
   9.3750000000000000E-002  0.92187500000000000        0.0000000000000000     
   7.1874999999999994E-002  0.91562500000000002        0.0000000000000000     
   8.2812499999999997E-002  0.91718750000000004        0.0000000000000000     
   8.4375000000000006E-002  0.92812499999999998        0.0000000000000000     
   7.3437500000000003E-002  0.92656249999999996        0.0000000000000000     
  0.10937500000000000       0.90625000000000000        0.0000000000000000     
  0.12500000000000000       0.90625000000000000        0.0000000000000000     
  0.12500000000000000       0.92187500000000000        0.0000000000000000     
  0.10312499999999999       0.91562500000000002        0.0000000000000000     
  0.11406250000000000       0.91718750000000004        0.0000000000000000     
  0.11562500000000001       0.92812499999999998        0.0000000000000000     
  0.10468750000000000       0.92656249999999996        0.0000000000000000     
   7.8125000000000000E-002  0.87500000000000000        0.0000000000000000     
   9.3750000000000000E-002  0.87500000000000000        0.0000000000000000     
   9.3750000000000000E-002  0.89062500000000000        0.0000000000000000     
   7.1874999999999994E-002  0.88437500000000002        0.0000000000000000     
   8.2812499999999997E-002  0.88593750000000004        0.0000000000000000     
   8.4375000000000006E-002  0.89687499999999998        0.0000000000000000     
   7.3437500000000003E-002  0.89531249999999996        0.0000000000000000     
  0.10937500000000000       0.87500000000000000        0.0000000000000000     
  0.12500000000000000       0.87500000000000000        0.0000000000000000     
  0.12500000000000000       0.89062500000000000        0.0000000000000000     
  0.10312499999999999       0.88437500000000002        0.0000000000000000     
  0.11406250000000000       0.88593750000000004        0.0000000000000000     
  0.11562500000000001       0.89687499999999998        0.0000000000000000     
  0.10468750000000000       0.89531249999999996        0.0000000000000000     
  0.14062500000000000       0.96875000000000000        0.0000000000000000     
  0.15625000000000000       0.96875000000000000        0.0000000000000000     
  0.15625000000000000       0.98437500000000000        0.0000000000000000     
  0.13437499999999999       0.97812500000000002        0.0000000000000000     
  0.14531250000000001       0.97968750000000004        0.0000000000000000     
  0.14687500000000001       0.99062499999999998        0.0000000000000000     
  0.13593749999999999       0.98906249999999996        0.0000000000000000     
  0.17187500000000000       0.96875000000000000        0.0000000000000000     
  0.18750000000000000       0.96875000000000000        0.0000000000000000     
  0.18750000000000000       0.98437500000000000        0.0000000000000000     
  0.16562499999999999       0.97812500000000002        0.0000000000000000     
  0.17656250000000001       0.97968750000000004        0.0000000000000000     
[...]
 CELL_DATA       14336
 SCALARS Nutrient float
 LOOKUP_TABLE default
    0.52024728267012201530E-02
    0.52023883348707236629E-02
    0.52030400497542986932E-02
    0.52030400496855689491E-02
    0.52023883351452974294E-02
    0.52024728264622194934E-02
    0.52019554100554091930E-02
    0.52016499881782094286E-02
    0.52013201038855752176E-02
    0.52013201023078771759E-02
    0.52016499889908770701E-02
    0.52019554097189994735E-02
    0.52019075829293683760E-02
    0.52019075826728036413E-02
    0.52046125177639211007E-02
    0.52051826470677882777E-02
    0.52067304967090641959E-02
    0.52071587750870899219E-02
    0.52059984732250007278E-02
    0.52065549802353299283E-02
    0.52053384040667933716E-02
    0.52043265548700401099E-02
    0.52032588730704498053E-02
    0.52028751977984668761E-02
    0.52035417497858426836E-02
    0.52034590725072047898E-02
    0.52045017835758719885E-02
    0.52047313070813427602E-02
    0.52065549802814137248E-02
    0.52059984731851862219E-02
    0.52071587751065032124E-02
    0.52067304966926511098E-02
    0.52051826471362057716E-02
    0.52046125176801226811E-02
    0.52034590726760367521E-02
    0.52035417496228038303E-02
    0.52028751980121171541E-02
    0.52032588728698160249E-02
    0.52043265549776302620E-02
    0.52053384040349004805E-02
    0.52047313071353290895E-02
    0.52045017835527507266E-02
    0.52094260408728733022E-02
    0.52096750962756632058E-02
    0.52120942084401917713E-02
    0.52120942084338071215E-02
    0.52096750962939064253E-02
    0.52094260408489297814E-02
    0.52072813304847743315E-02
    0.52066700227145646523E-02
    0.52050748873893422017E-02
    0.52050748873071345235E-02
    0.52066700227668570242E-02
    0.52072813304518137181E-02
    0.52079857334283901141E-02
    0.52079857334134567470E-02
    0.52103316503294035134E-02
    0.52118722746233043380E-02
    0.52148900886124062784E-02
    0.52160138915980308952E-02
    0.52140174279399070789E-02
    0.52153682419354878766E-02
    0.52129843529482248338E-02
    0.52107718907717908569E-02
    0.52084838767729622552E-02
    0.52075160943156782387E-02
    0.52087378498105567359E-02
    0.52081506676236698217E-02
    0.52108182786747220608E-02
    0.52114267538946957084E-02
    0.52217683597365017675E-02
    0.52248725264104206589E-02
    0.52302037286596023830E-02
    0.52323703339073376201E-02
    0.52290048212899247274E-02
    0.52315010251795558693E-02
    0.52272876184221821194E-02
    0.52232808501726183531E-02
    0.52191149386580449124E-02
    0.52172220770901984663E-02
    0.52193626088448156694E-02
    0.52179490221717778065E-02
    0.52232006442112892397E-02
    0.52243792339917776921E-02
    0.52169233417926428459E-02
    0.52181270237148065158E-02
    0.52223694044484384250E-02
    0.52229348326537075251E-02
    0.52191631564506594729E-02
    0.52193791237458257715E-02
    0.52156593105401978169E-02
    0.52140170394521009184E-02
    0.52109733192617227818E-02
    0.52105150648297047372E-02
    0.52130638869712616137E-02
    0.52133493205087271319E-02
    0.52156813939046847012E-02
    0.52159722073355941491E-02
    0.52311178095958655795E-02
    0.52338864828560755296E-02
    0.52411882284659006351E-02
    0.52426980924542140525E-02
    0.52366614659224109893E-02
    0.52376241139859428322E-02
    0.52313475127679243820E-02
    0.52280439233717574538E-02
    0.52226773854701742314E-02
    0.52214629627440976162E-02
    0.52254993914681796899E-02
    0.52252729859668034171E-02
    0.52302217341569489512E-02
    0.52309996659929431512E-02
    0.52153682419659548250E-02
    0.52140174279511931899E-02
    0.52160138916194165662E-02
    0.52148900886244348510E-02
    0.52118722746490112052E-02
    0.52103316503181902608E-02
    0.52081506676648053195E-02
    0.52087378497915216152E-02
    0.52075160943609736033E-02
    0.52084838767563479411E-02
    0.52107718908046586626E-02
    0.52129843529660517196E-02
    0.52114267539178629404E-02
    0.52108182786860125085E-02
    0.52193791237657941734E-02
    0.52191631564593478354E-02
    0.52229348326704528108E-02
    0.52223694044595675434E-02
    0.52181270237283122054E-02
    0.52169233417883069046E-02
    0.52133493205213671945E-02
    0.52130638869613320566E-02
    0.52105150648555208920E-02
    0.52109733192530743179E-02
    0.52140170394724032546E-02
    0.52156593105473075811E-02
    0.52159722073500036296E-02
    0.52156813939105185762E-02
    0.52315010252434214488E-02
    0.52290048213421121484E-02
    0.52323703339644837482E-02
    0.52302037287085363301E-02
    0.52248725264523038225E-02
    0.52217683597611730048E-02
    0.52179490221990407206E-02
    0.52193626088701565099E-02
    0.52172220771215709403E-02
    0.52191149386880044542E-02
    0.52232808502204793738E-02
    0.52272876184818123715E-02
    0.52243792340373766334E-02
    0.52232006442497159668E-02
    0.52376241140443171446E-02
    0.52366614659738203869E-02
    0.52426980925161879160E-02
    0.52411882285213354585E-02
    0.52338864828976551166E-02
    0.52311178096210294783E-02
    0.52252729859874613716E-02
    0.52254993914903902219E-02
    0.52214629627703049511E-02
    0.52226773854952869558E-02
    0.52280439234124445255E-02
    0.52313475128153222315E-02
    0.52309996660348401926E-02
    0.52302217341938291723E-02
    0.52298272480356183464E-02
    0.52307626026143394168E-02
    0.52370540496630623925E-02
    0.52370540496592980426E-02
    0.52307626026113262022E-02
    0.52298272480228620573E-02
    0.52240927858927923080E-02
    0.52227639974843339046E-02
    0.52183630692677202001E-02
    0.52183630692628144021E-02
    0.52227639974938176379E-02
    0.52240927859029751348E-02
    0.52263991574734540435E-02
    0.52263991574707851714E-02
    0.52492656249792006909E-02
    0.52520346981067495343E-02
    0.52626252573584964348E-02
    0.52636117072558889080E-02
    0.52537527003654674318E-02
    0.52532279761711543967E-02
    0.52437336755620381559E-02
    0.52406672524418843051E-02
    0.52331556842777461960E-02
    0.52324859639629062863E-02
    0.52391913424796451512E-02
    0.52402059583788592953E-02
    0.52456155941790543959E-02
    0.52460830879162544810E-02
    0.52532279762372065951E-02
    0.52537527004206177605E-02
    0.52636117073192930510E-02
    0.52626252574093307715E-02
    0.52520346981424995830E-02
    0.52492656249973311533E-02
    0.52402059583862370742E-02
    0.52391913424984790440E-02
    0.52324859639826908075E-02
    0.52331556843027496329E-02
    0.52406672524846738617E-02
    0.52437336756208886498E-02
    0.52460830879576475852E-02
    0.52456155942136421799E-02
    0.52816514475918837496E-02
    0.52842803073085472393E-02
    0.53002479052242073426E-02
    0.53002479052127009218E-02
    0.52842803072883437823E-02
    0.52816514475447036078E-02
    0.52671439312409864056E-02
    0.52640226988414935000E-02
    0.52529549715103233606E-02
    0.52529549715191262149E-02
    0.52640226988626744736E-02
    0.52671439312904806684E-02
    0.52732798554153857348E-02
    0.52732798554092847124E-02
    0.52422952099908182513E-02
    0.52478762430935854688E-02
    0.52571127899944903802E-02
    0.52609914169039311005E-02
    0.52552435212214389931E-02
    0.52596496746290287774E-02
    0.52523773194550074997E-02
    0.52453743845334603255E-02
    0.52381235911631478588E-02
    0.52347707161897990072E-02
    0.52384197943843736206E-02
    0.52357889214972317196E-02
    0.52451107192119919218E-02
    0.52472072912742497713E-02
    0.52782400145113973072E-02
    0.52879955880519285277E-02
    0.53040691492226245060E-02
    0.53107628588091281008E-02
    0.53007262323576300606E-02
    0.53082235174660482441E-02
    0.52957064218377702947E-02
    0.52836525437113934095E-02
    0.52711149994930086779E-02
    0.52653129612342895044E-02
    0.52715983927165612627E-02
    0.52669617979344794667E-02
    0.52832061938703185969E-02
    0.52868365307692484836E-02
    0.52566730332570168333E-02
    0.52620979875446106250E-02
    0.52747723624858499844E-02
    0.52778813256361993209E-02
    0.52677323032244626963E-02
    0.52698099583246230809E-02
    0.52589879009463501996E-02
    0.52529972909857421473E-02
    0.52437102657134941272E-02
    0.52413240397659408704E-02
    0.52479264310227946924E-02
    0.52468805651202706647E-02
    0.52562294063921519843E-02
    0.52577960149939977075E-02
    0.53021606371313071207E-02
    0.53121792702822750662E-02
    0.53344429797013209402E-02
    0.53401729103395361928E-02
    0.53224821799342895978E-02
    0.53261953345232699100E-02
    0.53073405566111822931E-02
    0.52968023898983902439E-02
    0.52806368319644062317E-02
    0.52763169653382638313E-02
    0.52875899330770302284E-02
    0.52852992635285334436E-02
    0.53021727598318926789E-02
    0.53050286811604551243E-02
    0.53406493986202273686E-02
    0.53572345113653638965E-02
    0.53848897550474719362E-02
    0.53958909358804308526E-02
    0.53783884463863822906E-02
    0.53906336856810775984E-02
    0.53694638894410430530E-02
    0.53491521841171852866E-02
    0.53278269489900045505E-02
    0.53179441867799489424E-02
    0.53288517549472365700E-02
    0.53210637792504471635E-02
    0.53487100198744835788E-02
    0.53547805971568386910E-02
    0.54472252564577213624E-02
    0.54742085775970937903E-02
    0.55210072126416947016E-02
    0.55379807153363071887E-02
    0.55076362426364653888E-02
    0.55265378781284880960E-02
    0.54917660645639907943E-02
    0.54586153530289220626E-02
    0.54231901148236527979E-02
    0.54069015305860598786E-02
    0.54256823269392441544E-02
    0.54133230586998924358E-02
    0.54588767947254283538E-02
    0.54685951225592428424E-02
    0.53830589596909686478E-02
    0.54007871188115870800E-02
    0.54402636836777956697E-02
    0.54500032026611527555E-02
    0.54182781190830102760E-02
    0.54238603230146566550E-02
    0.53908896035214197429E-02
    0.53730642726786690191E-02
    0.53449259892882896791E-02
    0.53375367429070860389E-02
    0.53573451777877032984E-02
    0.53532967665202470242E-02
    0.53829422091285668295E-02
    0.53878058484156058500E-02
    0.55261754800646489816E-02
    0.55560847544290914435E-02
    0.56258276157019303232E-02
    0.56407238185589674007E-02
    0.55832171411367304686E-02
    0.55896480536896751140E-02
    0.55323492117992116232E-02
    0.55036831304606454243E-02
    0.54552103234580600830E-02
    0.54433367924358383103E-02
    0.54788128595758094075E-02
    0.54730024103797183035E-02
    0.55231911369715844598E-02
    0.55308066248430038173E-02
    0.52840191506205490615E-02
    0.52900231948631122256E-02
    0.53081399604087689190E-02
    0.53109226369155264347E-02
    0.52947658746831252966E-02
    0.52949800851829174897E-02
    0.52788015296169332746E-02
    0.52727039724887927313E-02
    0.52597801316305470981E-02
    0.52579855727883624897E-02
    0.52687260070206354268E-02
    0.52692310279826024347E-02
    0.52799955999755770336E-02
    0.52812699810076803655E-02
    0.53460364754330256046E-02
    0.53580527420980066100E-02
    0.53899839115074035106E-02
    0.53961309233413485426E-02
    0.53683305673733021368E-02
    0.53696755361388069303E-02
    0.53413047413848552605E-02
    0.53299309763379853697E-02
    0.53072415386705325269E-02
    0.53034771699006283061E-02
    0.53214782734890275773E-02
    0.53209749575631702656E-02
    0.53415361219929903894E-02
    0.53442774797413114887E-02
    0.53309295144151214868E-02
    0.53375872620070857061E-02
    0.53640418798050299928E-02
    0.53662207039003075038E-02
    0.53411572056277821854E-02
    0.53391148973031109931E-02
    0.53150327050829199171E-02
    0.53081350885670099127E-02
    0.52894555420530441417E-02
    0.52882009346456385068E-02
    0.53052684862947147026E-02
    0.53081394183108164542E-02
    0.53212160878708088599E-02
    0.53221576455056065352E-02
    0.54172818850320809611E-02
    0.54320964612663384663E-02
    0.54777150369588172713E-02
    0.54847528297404983880E-02
    0.54433418370409365414E-02
    0.54429255679399064088E-02
    0.54011807454952109192E-02
    0.53870369238554439636E-02
    0.53545362072312816318E-02
    0.53508198772439820312E-02
    0.53783189369047941855E-02
    0.53801639618356088615E-02
    0.54064859976584687951E-02
    0.54094076141969586746E-02
    0.54585098805464736874E-02
    0.54814931096156035290E-02
    0.55391532579944623843E-02
    0.55510067246522841813E-02
    0.55010700043591391831E-02
    0.55034829355466432718E-02
    0.54526719381061553374E-02
    0.54323528440214695692E-02
    0.53919521550362904325E-02
    0.53849050080543615915E-02
    0.54164083478789107340E-02
    0.54143395757827918885E-02
    0.54525143074654579267E-02
    0.54577138789967455032E-02
    0.56644365502330901174E-02
    0.57063962993937995469E-02
    0.58118886894331809809E-02
    0.58322253108767738855E-02
    0.57398177955424820734E-02
    0.57410976286675083693E-02
    0.56492873136332801692E-02
    0.56149241949758257192E-02
    0.55426358079991959460E-02
    0.55306882974077249335E-02
    0.55878183824152214895E-02
    0.55841796302970037047E-02
    0.56530077031796289316E-02
    0.56618708100894506521E-02
    0.55740411359713904621E-02
    0.56053616855307923997E-02
    0.56878204126006269570E-02
    0.57045055563856444936E-02
    0.56317311930743360962E-02
    0.56340105210672926719E-02
    0.55587271420687806370E-02
    0.55312324875304748339E-02
    0.54727467672383376535E-02
    0.54643235282110774048E-02
    0.55111341602764518308E-02
    0.55102686031031078429E-02
    0.55626170279522990647E-02
    0.55694216129379640196E-02
    0.58677188666361916949E-02
    0.59304925520814741682E-02
    0.60845172379961690035E-02
    0.61183365564372125395E-02
    0.59834327997636809621E-02
    0.59877906624528371565E-02
    0.58484249185798030043E-02
    0.57976387451001811305E-02
    0.56901105728075522180E-02
    0.56735882846745801580E-02
    0.57578209973663200399E-02
    0.57523166623550722049E-02
    0.58536888950236924331E-02
    0.58672774660984772579E-02
    0.52596496747792454221E-02
    0.52552435213532883856E-02
    0.52609914170465210334E-02
    0.52571127901217427555E-02
    0.52478762431979108713E-02
    0.52422952100717621834E-02
    0.52357889215621650214E-02
    0.52384197944632905283E-02
    0.52347707162639740483E-02
    0.52381235912486549811E-02
    0.52453743846453378466E-02
    0.52523773195964958832E-02
    0.52472072913846840025E-02
    0.52451107193132251796E-02
    0.52698099584768077694E-02
    0.52677323033681194842E-02
    0.52778813258048656171E-02
    0.52747723626439309980E-02
    0.52620979876657541716E-02
    0.52566730333514178827E-02
    0.52468805651901418569E-02
    0.52479264311054481945E-02
    0.52413240398373429560E-02
    0.52437102657958050214E-02
    0.52529972910946229336E-02
    0.52589879010752670421E-02
    0.52577960151109649073E-02
    0.52562294065017353337E-02
    0.53082235177911510360E-02
    0.53007262326493342214E-02
    0.53107628591260759576E-02
    0.53040691495107638101E-02
    0.52879955882906351516E-02
    0.52782400147078139749E-02
    0.52669617980922612405E-02
    0.52715983929032383254E-02
    0.52653129614062344280E-02
    0.52711149996895762665E-02
    0.52836525439580303218E-02
    0.52957064221420208430E-02
    0.52868365310163719858E-02
    0.52832061941005337494E-02
    0.53261953348697930674E-02
    0.53224821802694928172E-02
    0.53401729107311508848E-02
    0.53344429800759084540E-02
    0.53121792705760383438E-02
    0.53021606373763983944E-02
    0.52852992637157881692E-02
    0.52875899332870549344E-02
    0.52763169655170678515E-02
    0.52806368321650625636E-02
    0.52968023901539436349E-02
    0.53073405569065519247E-02
    0.53050286814378903172E-02
    0.53021727600965377555E-02
    0.52949800853772438156E-02
    0.52947658748631531642E-02
    0.53109226371252015939E-02
    0.53081399605978928091E-02
    0.52900231950072998388E-02
    0.52840191507316459571E-02
    0.52692310280580793858E-02
    0.52687260071172655959E-02
    0.52579855728709101736E-02
    0.52597801317277705427E-02
    0.52727039726240742742E-02
    0.52788015297854668645E-02
    0.52812699811509286260E-02
    0.52799956001078566376E-02
    0.53391148975201153590E-02
    0.53411572058045869368E-02
    0.53662207040931064056E-02
    0.53640418799554339876E-02
    0.53375872621144650892E-02
    0.53309295144688996493E-02
    0.53081394183355475394E-02
    0.53052684863647706429E-02
    0.52882009347155504650E-02
    0.52894555421552982843E-02
    0.53081350887082953335E-02
    0.53150327052776521683E-02
    0.53221576456388159510E-02
    0.53212160879830029681E-02
    0.53696755366058794914E-02
    0.53683305678206153302E-02
    0.53961309238684486075E-02
    0.53899839119959137845E-02
    0.53580527424844847859E-02
    0.53460364757569470498E-02
    0.53209749578023955718E-02
    0.53214782737611310975E-02
    0.53034771701293776172E-02
    0.53072415389261978075E-02
    0.53299309766755521497E-02
    0.53413047417840793171E-02
    0.53442774801082514741E-02
    0.53415361223409065297E-02
    0.54429255685288797234E-02
    0.54433418375749321322E-02
    0.54847528303422973806E-02
    0.54777150374963959334E-02
    0.54320964616816529505E-02
    0.54172818853508199199E-02
    0.53801639620622444121E-02
    0.53783189372020503288E-02
    0.53508198775086036891E-02
    0.53545362075521525658E-02
    0.53870369242712519767E-02
    0.54011807460100326114E-02
    0.54094076146258178797E-02
    0.54064859980527280731E-02
    0.53906336863416620328E-02
    0.53783884469883400103E-02
    0.53958909365346982914E-02
    0.53848897556533657435E-02
    0.53572345118694623956E-02
    0.53406493990476398143E-02
    0.53210637795976746187E-02
    0.53288517553467754789E-02
    0.53179441871466894345E-02
    0.53278269494039668178E-02
    0.53491521846260664183E-02
    0.53694638900570320836E-02
    0.53547805976708051645E-02
    0.53487100203578564692E-02
    0.54238603237465208770E-02
    0.54182781197975125181E-02
    0.54500032035002315620E-02
    0.54402636844827038931E-02
    0.54007871194551443361E-02
    0.53830589602443671207E-02
    0.53532967669526164423E-02
    0.53573451782564012955E-02
    0.53375367433066223458E-02
    0.53449259897258884211E-02
    0.53730642732273108803E-02
    0.53908896041430388185E-02
    0.53878058490149606172E-02
    0.53829422097053155477E-02
    0.55265378794019642122E-02
    0.55076362438206969210E-02
    0.55379807166426918766E-02
    0.55210072138532819558E-02
    0.54742085786095174421E-02
    0.54472252573292204159E-02
    0.54133230594163419050E-02
    0.54256823277452521925E-02
    0.54069015313249488633E-02
    0.54231901156482657453E-02
    0.54586153540273126689E-02
    0.54917660657509545161E-02
    0.54685951235765497408E-02
    0.54588767956889241301E-02
    0.55896480551397382738E-02
    0.55832171425840189383E-02
    0.56407238202707829858E-02
    0.56258276173523514424E-02
    0.55560847557550490164E-02
    0.55261754812300284065E-02
    0.54730024112959463345E-02
    0.54788128605517526920E-02
    0.54433367932646744419E-02
    0.54552103243569426139E-02
    0.55036831315732580305E-02
    0.55323492130426076344E-02
    0.55308066260653194687E-02
    0.55231911381559877297E-02
    0.55034829365591484557E-02
    0.55010700053516351990E-02
    0.55510067258205649313E-02
    0.55391532591048155132E-02
    0.54814931105030047925E-02
    0.54585098813214440530E-02
    0.54143395763698795586E-02
    0.54164083485176289789E-02
    0.53849050085885861658E-02
    0.53919521556189883849E-02
    0.54323528447711901673E-02
    0.54526719389703000307E-02
    0.54577138798216490168E-02
    0.54525143082586463583E-02
    0.56340105224325226496E-02
    0.56317311943571944644E-02
    0.57045055578634241977E-02
    0.56878204139585502794E-02
    0.56053616866152938120E-02
    0.55740411368731656444E-02
    0.55102686037899499191E-02
    0.55111341610684537115E-02
    0.54643235289019743972E-02
    0.54727467680204386000E-02
    0.55312324885249935374E-02
    0.55587271432399757223E-02