# vtk DataFile Version 3.0
LAPLACIEN  2D
ASCII
DATASET UNSTRUCTURED_GRID
FIELD FieldData 1
TIME 1 1 double
16.7000
 POINTS        7297  float
   1.5625000000000000E-002  0.96875000000000000        0.0000000000000000     
   3.1250000000000000E-002  0.96875000000000000        0.0000000000000000     
   3.1250000000000000E-002  0.98437500000000000        0.0000000000000000     
   9.3749999999999997E-003  0.97812500000000002        0.0000000000000000     
   2.0312500000000001E-002  0.97968750000000004        0.0000000000000000     
   2.1874999999999999E-002  0.99062499999999998        0.0000000000000000     
   1.0937499999999999E-002  0.98906249999999996        0.0000000000000000     
   4.6875000000000000E-002  0.96875000000000000        0.0000000000000000     
   6.2500000000000000E-002  0.96875000000000000        0.0000000000000000     
   6.2500000000000000E-002  0.98437500000000000        0.0000000000000000     
   4.0625000000000001E-002  0.97812500000000002        0.0000000000000000     
   5.1562499999999997E-002  0.97968750000000004        0.0000000000000000     
   5.3124999999999999E-002  0.99062499999999998        0.0000000000000000     
   4.2187500000000003E-002  0.98906249999999996        0.0000000000000000     
   1.5625000000000000E-002  0.93750000000000000        0.0000000000000000     
   3.1250000000000000E-002  0.93750000000000000        0.0000000000000000     
   3.1250000000000000E-002  0.95312500000000000        0.0000000000000000     
   9.3749999999999997E-003  0.94687500000000002        0.0000000000000000     
   2.0312500000000001E-002  0.94843750000000004        0.0000000000000000     
   2.1874999999999999E-002  0.95937499999999998        0.0000000000000000     
   1.0937499999999999E-002  0.95781249999999996        0.0000000000000000     
   4.6875000000000000E-002  0.93750000000000000        0.0000000000000000     
   6.2500000000000000E-002  0.93750000000000000        0.0000000000000000     
   6.2500000000000000E-002  0.95312500000000000        0.0000000000000000     
   4.0625000000000001E-002  0.94687500000000002        0.0000000000000000     
   5.1562499999999997E-002  0.94843750000000004        0.0000000000000000     
   5.3124999999999999E-002  0.95937499999999998        0.0000000000000000     
   4.2187500000000003E-002  0.95781249999999996        0.0000000000000000     
   7.8125000000000000E-002  0.96875000000000000        0.0000000000000000     
   9.3750000000000000E-002  0.96875000000000000        0.0000000000000000     
   9.3750000000000000E-002  0.98437500000000000        0.0000000000000000     
   7.1874999999999994E-002  0.97812500000000002        0.0000000000000000     
   8.2812499999999997E-002  0.97968750000000004        0.0000000000000000     
   8.4375000000000006E-002  0.99062499999999998        0.0000000000000000     
   7.3437500000000003E-002  0.98906249999999996        0.0000000000000000     
  0.10937500000000000       0.96875000000000000        0.0000000000000000     
  0.12500000000000000       0.96875000000000000        0.0000000000000000     
  0.12500000000000000       0.98437500000000000        0.0000000000000000     
  0.10312499999999999       0.97812500000000002        0.0000000000000000     
  0.11406250000000000       0.97968750000000004        0.0000000000000000     
  0.11562500000000001       0.99062499999999998        0.0000000000000000     
  0.10468750000000000       0.98906249999999996        0.0000000000000000     
   7.8125000000000000E-002  0.93750000000000000        0.0000000000000000     
   9.3750000000000000E-002  0.93750000000000000        0.0000000000000000     
   9.3750000000000000E-002  0.95312500000000000        0.0000000000000000     
   7.1874999999999994E-002  0.94687500000000002        0.0000000000000000     
   8.2812499999999997E-002  0.94843750000000004        0.0000000000000000     
   8.4375000000000006E-002  0.95937499999999998        0.0000000000000000     
   7.3437500000000003E-002  0.95781249999999996        0.0000000000000000     
  0.10937500000000000       0.93750000000000000        0.0000000000000000     
  0.12500000000000000       0.93750000000000000        0.0000000000000000     
  0.12500000000000000       0.95312500000000000        0.0000000000000000     
  0.10312499999999999       0.94687500000000002        0.0000000000000000     
  0.11406250000000000       0.94843750000000004        0.0000000000000000     
  0.11562500000000001       0.95937499999999998        0.0000000000000000     
  0.10468750000000000       0.95781249999999996        0.0000000000000000     
   1.5625000000000000E-002  0.90625000000000000        0.0000000000000000     
   3.1250000000000000E-002  0.90625000000000000        0.0000000000000000     
   3.1250000000000000E-002  0.92187500000000000        0.0000000000000000     
   9.3749999999999997E-003  0.91562500000000002        0.0000000000000000     
   2.0312500000000001E-002  0.91718750000000004        0.0000000000000000     
   2.1874999999999999E-002  0.92812499999999998        0.0000000000000000     
   1.0937499999999999E-002  0.92656249999999996        0.0000000000000000     
   4.6875000000000000E-002  0.90625000000000000        0.0000000000000000     
   6.2500000000000000E-002  0.90625000000000000        0.0000000000000000     
   6.2500000000000000E-002  0.92187500000000000        0.0000000000000000     
   4.0625000000000001E-002  0.91562500000000002        0.0000000000000000     
   5.1562499999999997E-002  0.91718750000000004        0.0000000000000000     
   5.3124999999999999E-002  0.92812499999999998        0.0000000000000000     
   4.2187500000000003E-002  0.92656249999999996        0.0000000000000000     
   1.5625000000000000E-002  0.87500000000000000        0.0000000000000000     
   3.1250000000000000E-002  0.87500000000000000        0.0000000000000000     
   3.1250000000000000E-002  0.89062500000000000        0.0000000000000000     
   9.3749999999999997E-003  0.88437500000000002        0.0000000000000000     
   2.0312500000000001E-002  0.88593750000000004        0.0000000000000000     
   2.1874999999999999E-002  0.89687499999999998        0.0000000000000000     
   1.0937499999999999E-002  0.89531249999999996        0.0000000000000000     
   4.6875000000000000E-002  0.87500000000000000        0.0000000000000000     
   6.2500000000000000E-002  0.87500000000000000        0.0000000000000000     
   6.2500000000000000E-002  0.89062500000000000        0.0000000000000000     
   4.0625000000000001E-002  0.88437500000000002        0.0000000000000000     
   5.1562499999999997E-002  0.88593750000000004        0.0000000000000000     
   5.3124999999999999E-002  0.89687499999999998        0.0000000000000000     
   4.2187500000000003E-002  0.89531249999999996        0.0000000000000000     
   7.8125000000000000E-002  0.90625000000000000        0.0000000000000000     
   9.3750000000000000E-002  0.90625000000000000        0.0000000000000000     
   9.3750000000000000E-002  0.92187500000000000        0.0000000000000000     
   7.1874999999999994E-002  0.91562500000000002        0.0000000000000000     
   8.2812499999999997E-002  0.91718750000000004        0.0000000000000000     
   8.4375000000000006E-002  0.92812499999999998        0.0000000000000000     
   7.3437500000000003E-002  0.92656249999999996        0.0000000000000000     
  0.10937500000000000       0.90625000000000000        0.0000000000000000     
  0.12500000000000000       0.90625000000000000        0.0000000000000000     
  0.12500000000000000       0.92187500000000000        0.0000000000000000     
  0.10312499999999999       0.91562500000000002        0.0000000000000000     
  0.11406250000000000       0.91718750000000004        0.0000000000000000     
  0.11562500000000001       0.92812499999999998        0.0000000000000000     
  0.10468750000000000       0.92656249999999996        0.0000000000000000     
   7.8125000000000000E-002  0.87500000000000000        0.0000000000000000     
   9.3750000000000000E-002  0.87500000000000000        0.0000000000000000     
   9.3750000000000000E-002  0.89062500000000000        0.0000000000000000     
   7.1874999999999994E-002  0.88437500000000002        0.0000000000000000     
   8.2812499999999997E-002  0.88593750000000004        0.0000000000000000     
   8.4375000000000006E-002  0.89687499999999998        0.0000000000000000     
   7.3437500000000003E-002  0.89531249999999996        0.0000000000000000     
  0.10937500000000000       0.87500000000000000        0.0000000000000000     
  0.12500000000000000       0.87500000000000000        0.0000000000000000     
  0.12500000000000000       0.89062500000000000        0.0000000000000000     
  0.10312499999999999       0.88437500000000002        0.0000000000000000     
  0.11406250000000000       0.88593750000000004        0.0000000000000000     
  0.11562500000000001       0.89687499999999998        0.0000000000000000     
  0.10468750000000000       0.89531249999999996        0.0000000000000000     
  0.14062500000000000       0.96875000000000000        0.0000000000000000     
  0.15625000000000000       0.96875000000000000        0.0000000000000000     
  0.15625000000000000       0.98437500000000000        0.0000000000000000     
  0.13437499999999999       0.97812500000000002        0.0000000000000000     
  0.14531250000000001       0.97968750000000004        0.0000000000000000     
  0.14687500000000001       0.99062499999999998        0.0000000000000000     
  0.13593749999999999       0.98906249999999996        0.0000000000000000     
  0.17187500000000000       0.96875000000000000        0.0000000000000000     
  0.18750000000000000       0.96875000000000000        0.0000000000000000     
  0.18750000000000000       0.98437500000000000        0.0000000000000000     
  0.16562499999999999       0.97812500000000002        0.0000000000000000     
  0.17656250000000001       0.97968750000000004        0.0000000000000000     
[...]
 CELL_DATA       14336
 SCALARS Nutrient float
 LOOKUP_TABLE default
    0.99758199458054221814E-02
    0.99757374925320933812E-02
    0.99763896809388769027E-02
    0.99763896808039934788E-02
    0.99757374930723504564E-02
    0.99758199453429778625E-02
    0.99753034014033997029E-02
    0.99749972104079143859E-02
    0.99746665338213726104E-02
    0.99746665307261003081E-02
    0.99749972120000991033E-02
    0.99753034007386519322E-02
    0.99752554891961806721E-02
    0.99752554886936937312E-02
    0.99779655471780130671E-02
    0.99785370022277466301E-02
    0.99800874787158381368E-02
    0.99805171019251535947E-02
    0.99793546097590168920E-02
    0.99799111557247171395E-02
    0.99786928967968476639E-02
    0.99776793731844864999E-02
    0.99766085120769499445E-02
    0.99762267099001451093E-02
    0.99768920946835051855E-02
    0.99768103065314087813E-02
    0.99778554942503306507E-02
    0.99780841518893152731E-02
    0.99799111558036297104E-02
    0.99793546096718834665E-02
    0.99805171019558582002E-02
    0.99800874786785502557E-02
    0.99785370023571760834E-02
    0.99779655470115073690E-02
    0.99768103068601874522E-02
    0.99768920943587094396E-02
    0.99762267103165637450E-02
    0.99766085116760223894E-02
    0.99776793733869408726E-02
    0.99786928967204400337E-02
    0.99780841519871796980E-02
    0.99778554941996715211E-02
    0.99827884862143598244E-02
    0.99830382125315249991E-02
    0.99854618330119070124E-02
    0.99854618329998003773E-02
    0.99830382125692968681E-02
    0.99827884861726570720E-02
    0.99806399899071279735E-02
    0.99800273199451925571E-02
    0.99784292367849081185E-02
    0.99784292366232752586E-02
    0.99800273200456608019E-02
    0.99806399898375967872E-02
    0.99813457889880146529E-02
    0.99813457889590759958E-02
    0.99836958642043893697E-02
    0.99852395874597404957E-02
    0.99882629495729336605E-02
    0.99893889283658183348E-02
    0.99873889882897554093E-02
    0.99887418887818196084E-02
    0.99863537522217500630E-02
    0.99841372164128690953E-02
    0.99818443457070013536E-02
    0.99808755192574045989E-02
    0.99820989176843660101E-02
    0.99815105866806839302E-02
    0.99841838293461149939E-02
    0.99847931130520387044E-02
    0.99951537670895599513E-02
    0.99982635655306312944E-02
    0.10003604061234707551E-01
    0.10005774741903927447E-01
    0.10002403526231821995E-01
    0.10004903972043449958E-01
    0.10000683192730440776E-01
    0.99966692995654294479E-02
    0.99924958038131936333E-02
    0.99905994336990638222E-02
    0.99927439244790385725E-02
    0.99913275259162163261E-02
    0.99965888790728603397E-02
    0.99977696907967168044E-02
    0.99902997939654153425E-02
    0.99915058595768171945E-02
    0.99957558331419827519E-02
    0.99963223109773256814E-02
    0.99925438977484827563E-02
    0.99927600964838814851E-02
    0.99890336994622793559E-02
    0.99873882802040923889E-02
    0.99843389888681233907E-02
    0.99838794395918188662E-02
    0.99864333814333686862E-02
    0.99867192126286072340E-02
    0.99890557469570293719E-02
    0.99893473028456521851E-02
    0.10004519586124100555E-01
    0.10007293307236340973E-01
    0.10014607193964542367E-01
    0.10016119919544088854E-01
    0.10010073091842883533E-01
    0.10011037166507828766E-01
    0.10004749953116912065E-01
    0.10001440481400527410E-01
    0.99960645594681044740E-02
    0.99948475978030321826E-02
    0.99988915498852980884E-02
    0.99986646104748711644E-02
    0.10003622225049692632E-01
    0.10004401674848225484E-01
    0.99887418888139657691E-02
    0.99873889882898785747E-02
    0.99893889283859584743E-02
    0.99882629495779504808E-02
    0.99852395874952051824E-02
    0.99836958641723282104E-02
    0.99815105867536290524E-02
    0.99820989176346280186E-02
    0.99808755193306203379E-02
    0.99818443456588194090E-02
    0.99841372164565980046E-02
    0.99863537522295320326E-02
    0.99847931130793692728E-02
    0.99841838293511977337E-02
    0.99927600965042072401E-02
    0.99925438977498913518E-02
    0.99963223109931585025E-02
    0.99957558331494229809E-02
    0.99915058595940915709E-02
    0.99902997939539453509E-02
    0.99867192126530130586E-02
    0.99864333814080052942E-02
    0.99838794396358409439E-02
    0.99843389888415214062E-02
    0.99873882802312824447E-02
    0.99890336994592973663E-02
    0.99893473028621199150E-02
    0.99890557469586860329E-02
    0.10004903972101174617E-01
    0.10002403526276045301E-01
    0.10005774741954857193E-01
    0.10003604061276651430E-01
    0.99982635655695411420E-02
    0.99951537671058854340E-02
    0.99913275259452104943E-02
    0.99927439244949234354E-02
    0.99905994337304380309E-02
    0.99924958038336061245E-02
    0.99966692996098314300E-02
    0.10000683192782350642E-01
    0.99977696908376233187E-02
    0.99965888791052025242E-02
    0.10011037166560396092E-01
    0.10010073091887543989E-01
    0.10016119919600956559E-01
    0.10014607194014521485E-01
    0.10007293307275013164E-01
    0.10004519586144355187E-01
    0.99986646104957190712E-02
    0.99988915499003207937E-02
    0.99948475978296740657E-02
    0.99960645594859252883E-02
    0.10001440481437711208E-01
    0.10004749953156874889E-01
    0.10004401674886186438E-01
    0.10003622225081745117E-01
    0.10003226616489226466E-01
    0.10004163741153270645E-01
    0.10010465723536842927E-01
    0.10010465723532728163E-01
    0.10004163741152727676E-01
    0.10003226616476415534E-01
    0.99974822249683532177E-02
    0.99961510443055297259E-02
    0.99917420981364465232E-02
    0.99917420981249123468E-02
    0.99961510443184031088E-02
    0.99974822249737464730E-02
    0.99997927694263199355E-02
    0.99997927694227377315E-02
    0.10022697877401913827E-01
    0.10025471589987787133E-01
    0.10036079404292706785E-01
    0.10037067705972490747E-01
    0.10027192550080964162E-01
    0.10026666988428904748E-01
    0.10017157188989459990E-01
    0.10014085359196922900E-01
    0.10006560998312567443E-01
    0.10005889870621800797E-01
    0.10012606734278171536E-01
    0.10013623012818896260E-01
    0.10019041891122999408E-01
    0.10019510344505870580E-01
    0.10026666988490525595E-01
    0.10027192550131800233E-01
    0.10037067706032796674E-01
    0.10036079404340531376E-01
    0.10025471590022112106E-01
    0.10022697877418587989E-01
    0.10013623012826525574E-01
    0.10012606734293808333E-01
    0.10005889870641342457E-01
    0.10006560998333025037E-01
    0.10014085359237282977E-01
    0.10017157189043026516E-01
    0.10019510344544600017E-01
    0.10019041891154788215E-01
    0.10055136332314962982E-01
    0.10057769806427047793E-01
    0.10073762141257000882E-01
    0.10073762141245641913E-01
    0.10057769806408130633E-01
    0.10055136332269907010E-01
    0.10040605712440335215E-01
    0.10037479570867645015E-01
    0.10026393528376422240E-01
    0.10026393528384067166E-01
    0.10037479570888373226E-01
    0.10040605712487394793E-01
    0.10046751898154652680E-01
    0.10046751898148719925E-01
    0.10015716413001009288E-01
    0.10021307244111918311E-01
    0.10030558668866890876E-01
    0.10034444444592708137E-01
    0.10028687170654393065E-01
    0.10033100604017956836E-01
    0.10025816194264390926E-01
    0.10018801295134178303E-01
    0.10011538317783150870E-01
    0.10008179203480013081E-01
    0.10011834988570710372E-01
    0.10009198979486233841E-01
    0.10018537098782533470E-01
    0.10020637579839607526E-01
    0.10051720320605537010E-01
    0.10061491353475757876E-01
    0.10077589379426987737E-01
    0.10084294383854757599E-01
    0.10074242353303014194E-01
    0.10081751289880100733E-01
    0.10069215242465293786E-01
    0.10057142034908626155E-01
    0.10044584732924919171E-01
    0.10038772819079062881E-01
    0.10045068777137563382E-01
    0.10040423771852453189E-01
    0.10056694706026481773E-01
    0.10060331248098944648E-01
    0.10030117791384208017E-01
    0.10035551584471376005E-01
    0.10048245741863380542E-01
    0.10051360457925982358E-01
    0.10041195036442946906E-01
    0.10043276108132015781E-01
    0.10032437282102788997E-01
    0.10026436142651837941E-01
    0.10017133866141825910E-01
    0.10014743188237659396E-01
    0.10021356987980791289E-01
    0.10020309052797176166E-01
    0.10029673563889767579E-01
    0.10031243016540290422E-01
    0.10075676670746618394E-01
    0.10085710827408701784E-01
    0.10108007010781384916E-01
    0.10113746051641272702E-01
    0.10096029496596948746E-01
    0.10099748508149606133E-01
    0.10080866081806715007E-01
    0.10070311137699074558E-01
    0.10054120722209959962E-01
    0.10049793381738216999E-01
    0.10061084228099008084E-01
    0.10058789212149572487E-01
    0.10075689254875334899E-01
    0.10078549929658143017E-01
    0.10114224905712501310E-01
    0.10130834681422468818E-01
    0.10158529853451113076E-01
    0.10169547038740638437E-01
    0.10152020404008215218E-01
    0.10164283577201491116E-01
    0.10143083519668631698E-01
    0.10122741728391655355E-01
    0.10101385029557782488E-01
    0.10091486525174551622E-01
    0.10102410820973293723E-01
    0.10094610022394296875E-01
    0.10122298203987634135E-01
    0.10128378172008584840E-01
    0.10220952200320626568E-01
    0.10247973041449403436E-01
    0.10294833728315279375E-01
    0.10311830386814768712E-01
    0.10281447890211053292E-01
    0.10300375853447290772E-01
    0.10265557862972030448E-01
    0.10232360757594777950E-01
    0.10196886920410657904E-01
    0.10180574588903359631E-01
    0.10199381354522635626E-01
    0.10187003421448480311E-01
    0.10232621564934795896E-01
    0.10242353658360292545E-01
    0.10156692960203854079E-01
    0.10174445869246916477E-01
    0.10213976388283483102E-01
    0.10223729055207518221E-01
    0.10191962356234280512E-01
    0.10197553250119572449E-01
    0.10164537701732612521E-01
    0.10146685905035039005E-01
    0.10118507588595317126E-01
    0.10111106697327383250E-01
    0.10130943513338590278E-01
    0.10126888257979440450E-01
    0.10156577010189795154E-01
    0.10161447865641486110E-01
    0.10300000497561797447E-01
    0.10329948837525746927E-01
    0.10399778928103339121E-01
    0.10414694045083574409E-01
    0.10357118606010936104E-01
    0.10363559886627349282E-01
    0.10306189347180314334E-01
    0.10277484083425466113E-01
    0.10228947167362553022E-01
    0.10217056197099604400E-01
    0.10252578693621377387E-01
    0.10246759180360328484E-01
    0.10297015290926863837E-01
    0.10304641280931241612E-01
    0.10057507308844469349E-01
    0.10063520801696734450E-01
    0.10081664673303849036E-01
    0.10084452098990769400E-01
    0.10068270580574151946E-01
    0.10068484988242197217E-01
    0.10052281773443886778E-01
    0.10046174301564665329E-01
    0.10033230049062411005E-01
    0.10031432228224697670E-01
    0.10042190154548349262E-01
    0.10042695701880779979E-01
    0.10053477375139414224E-01
    0.10054754005537432440E-01
    0.10119617521198753449E-01
    0.10131650806846886903E-01
    0.10163627044749707143E-01
    0.10169782819659497000E-01
    0.10141943244619189973E-01
    0.10143290160315071233E-01
    0.10114879284230946302E-01
    0.10103488176725716405E-01
    0.10080765315359310058E-01
    0.10076994902725374195E-01
    0.10095023157054273943E-01
    0.10094518729850780747E-01
    0.10115110465488699742E-01
    0.10117856044711498117E-01
    0.10104490274849798129E-01
    0.10111157658597141190E-01
    0.10137650879840814575E-01
    0.10139832856852432422E-01
    0.10114732115350267075E-01
    0.10112686266619239778E-01
    0.10088568598205376742E-01
    0.10081660405369282513E-01
    0.10062952371120351472E-01
    0.10061695974064147757E-01
    0.10078790220071588354E-01
    0.10081665726056234303E-01
    0.10094761941539510258E-01
    0.10095704840591177009E-01
    0.10190966204457575089E-01
    0.10205800749192792121E-01
    0.10251480566708024572E-01
    0.10258527320426152549E-01
    0.10217059701750366707E-01
    0.10216641755055049998E-01
    0.10174839849284342264E-01
    0.10160676713899016721E-01
    0.10128129693304682366E-01
    0.10124408231494158583E-01
    0.10151947678123243030E-01
    0.10153795475404733123E-01
    0.10180154030051116396E-01
    0.10183079428423592871E-01
    0.10232245974738457539E-01
    0.10255259481364145668E-01
    0.10312993948358229954E-01
    0.10324862076513834086E-01
    0.10274861717448237688E-01
    0.10277277765764794917E-01
    0.10226400448458823969E-01
    0.10206054034381724024E-01
    0.10165598220705245394E-01
    0.10158540846345919320E-01
    0.10190087923458476804E-01
    0.10188015956798348802E-01
    0.10226242465110273183E-01
    0.10231448967515033993E-01
    0.10438431601414825678E-01
    0.10480440970470674897E-01
    0.10586056861414538596E-01
    0.10606416302561894396E-01
    0.10513902474926312136E-01
    0.10515184481278149614E-01
    0.10423265808485290135E-01
    0.10388859630404142370E-01
    0.10316481556998029906E-01
    0.10304518058665685515E-01
    0.10361719667267923345E-01
    0.10358076466718485822E-01
    0.10426988859717819386E-01
    0.10435862839332177288E-01
    0.10347931579917677564E-01
    0.10379289773150651016E-01
    0.10461850291715544051E-01
    0.10478553582182024637E-01
    0.10405689281582308769E-01
    0.10407969745636288378E-01
    0.10332592763115879334E-01
    0.10305063730729436752E-01
    0.10246502334010995292E-01
    0.10238068216304276048E-01
    0.10284941221058422137E-01
    0.10284076132838592191E-01
    0.10336489934582934400E-01
    0.10343302661668326431E-01
    0.10641958623982653714E-01
    0.10704799531790895259E-01
    0.10858994983147286090E-01
    0.10892847275765140530E-01
    0.10757795302512904168E-01
    0.10762155310564656269E-01
    0.10622634360367552361E-01
    0.10571790612971511403E-01
    0.10464136498907667533E-01
    0.10447595323300466752E-01
    0.10531929103953835761E-01
    0.10526420410291170704E-01
    0.10627907497689482313E-01
    0.10641510499710694557E-01
    0.10033100604157312377E-01
    0.10028687170775381354E-01
    0.10034444444724807330E-01
    0.10030558668983795625E-01
    0.10021307244207768722E-01
    0.10015716413073184193E-01
    0.10009198979544803310E-01
    0.10011834988640649219E-01
    0.10008179203547183309E-01
    0.10011538317859372885E-01
    0.10018801295237229551E-01
    0.10025816194395157852E-01
    0.10020637579940752313E-01
    0.10018537098874586572E-01
    0.10043276108273895345E-01
    0.10041195036576739189E-01
    0.10051360458085398242E-01
    0.10048245742012480025E-01
    0.10035551584585101006E-01
    0.10030117791471596447E-01
    0.10020309052861560428E-01
    0.10021356988055479809E-01
    0.10014743188302923163E-01
    0.10017133866215685231E-01
    0.10026436142752396391E-01
    0.10032437282221489186E-01
    0.10031243016648927480E-01
    0.10029673563991236759E-01
    0.10081751290189511217E-01
    0.10074242353579390338E-01
    0.10084294384156403460E-01
    0.10077589379700343727E-01
    0.10061491353701254581E-01
    0.10051720320789521781E-01
    0.10040423771999026914E-01
    0.10045068777311642882E-01
    0.10038772819239337453E-01
    0.10044584733108541386E-01
    0.10057142035141762582E-01
    0.10069215242754354228E-01
    0.10060331248332188628E-01
    0.10056694706243228532E-01
    0.10099748508481066686E-01
    0.10096029496917830956E-01
    0.10113746052019013943E-01
    0.10108007011142448525E-01
    0.10085710827690530164E-01
    0.10075676670980849431E-01
    0.10058789212326748469E-01
    0.10061084228297444837E-01
    0.10049793381906146905E-01
    0.10054120722398321441E-01
    0.10070311137941729412E-01
    0.10080866082087424490E-01
    0.10078549929922705694E-01
    0.10075689255127542876E-01
    0.10068484988427843854E-01
    0.10068270580746363149E-01
    0.10084452099193433675E-01
    0.10081664673486281231E-01
    0.10063520801835588656E-01
    0.10057507308951180863E-01
    0.10042695701952470896E-01
    0.10042190154639326835E-01
    0.10031432228302427159E-01
    0.10033230049152849078E-01
    0.10046174301693201400E-01
    0.10052281773603895937E-01
    0.10054754005674147732E-01
    0.10053477375265537294E-01
    0.10112686266830024293E-01
    0.10114732115522157355E-01
    0.10139832857041113090E-01
    0.10137650879987759531E-01
    0.10111157658702105838E-01
    0.10104490274902502497E-01
    0.10081665726079923687E-01
    0.10078790220138978892E-01
    0.10061695974131600745E-01
    0.10062952371218434472E-01
    0.10081660405506287503E-01
    0.10088568598394177106E-01
    0.10095704840720557890E-01
    0.10094761941648431811E-01
    0.10143290160768699687E-01
    0.10141943245054282907E-01
    0.10169782820174883345E-01
    0.10163627045227224474E-01
    0.10131650807223622004E-01
    0.10119617521514356895E-01
    0.10094518730081982957E-01
    0.10095023157316848628E-01
    0.10076994902944960697E-01
    0.10080765315604237400E-01
    0.10103488177052059524E-01
    0.10114879284617309119E-01
    0.10117856045067466844E-01
    0.10115110465826226624E-01
    0.10216641755633354763E-01
    0.10217059702275004332E-01
    0.10258527321019589307E-01
    0.10251480567237573199E-01
    0.10205800749601498176E-01
    0.10190966204771135031E-01
    0.10153795475626392619E-01
    0.10151947678413847376E-01
    0.10124408231752287171E-01
    0.10128129693617274332E-01
    0.10160676714306220506E-01
    0.10174839849788768625E-01
    0.10183079428844337908E-01
    0.10180154030437888607E-01
    0.10164283577841022946E-01
    0.10152020404589628608E-01
    0.10169547039374362413E-01
    0.10158529854036946541E-01
    0.10130834681908265985E-01
    0.10114224906122631573E-01
    0.10094610022725453852E-01
    0.10102410821355430753E-01
    0.10091486525524707291E-01
    0.10101385029953977718E-01
    0.10122741728881889944E-01
    0.10143083520264252473E-01
    0.10128378172503582980E-01
    0.10122298204452493189E-01
    0.10197553250831015506E-01
    0.10191962356929330433E-01
    0.10223729056027336393E-01
    0.10213976389069959888E-01
    0.10174445869873465637E-01
    0.10156692960741663459E-01
    0.10126888258396835735E-01
    0.10130943513790952384E-01
    0.10111106697711078062E-01
    0.10118507589015829709E-01
    0.10146685905565680508E-01
    0.10164537702334429728E-01
    0.10161447866222859601E-01
    0.10156577010749132453E-01
    0.10300375854694066025E-01
    0.10281447891369012437E-01
    0.10311830388094815961E-01
    0.10294833729501252570E-01
    0.10247973042437911323E-01
    0.10220952201169442378E-01
    0.10187003422143410536E-01
    0.10199381355305809499E-01
    0.10180574589620216761E-01
    0.10196886921212025556E-01
    0.10232360758568932735E-01
    0.10265557864132931684E-01
    0.10242353659353024484E-01
    0.10232621565874204170E-01
    0.10363559888051336946E-01
    0.10357118607433175167E-01
    0.10414694046770738706E-01
    0.10399778929729699625E-01
    0.10329948838829317026E-01
    0.10300000498706142482E-01
    0.10246759181256429386E-01
    0.10252578694575617546E-01
    0.10217056197907272569E-01
    0.10228947168238846852E-01
    0.10277484084514555002E-01
    0.10306189348398220318E-01
    0.10304641282130058699E-01
    0.10297015292088387839E-01
    0.10277277766758838307E-01
    0.10274861718423436777E-01
    0.10324862077665553431E-01
    0.10312993949452448419E-01
    0.10255259482237006480E-01
    0.10232245975500318599E-01
    0.10188015957372805950E-01
    0.10190087924082942561E-01
    0.10158540846866279117E-01
    0.10165598221272342111E-01
    0.10206054035115298684E-01
    0.10226400449304902385E-01
    0.10231448968324029225E-01
    0.10226242465888197783E-01
    0.10407969746985703749E-01
    0.10405689282851052560E-01
    0.10478553583646250946E-01
    0.10461850293061014661E-01
    0.10379289774223747489E-01
    0.10347931580809916971E-01
    0.10284076133515725887E-01
    0.10284941221839212500E-01
    0.10238068216983900807E-01
    0.10246502334780296581E-01
    0.10305063731710513084E-01
    0.10332592764271954569E-01