# vtk DataFile Version 3.0
LAPLACIEN  2D
ASCII
DATASET UNSTRUCTURED_GRID
FIELD FieldData 1
TIME 1 1 double
15.8000
 POINTS        7297  float
   1.5625000000000000E-002  0.96875000000000000        0.0000000000000000     
   3.1250000000000000E-002  0.96875000000000000        0.0000000000000000     
   3.1250000000000000E-002  0.98437500000000000        0.0000000000000000     
   9.3749999999999997E-003  0.97812500000000002        0.0000000000000000     
   2.0312500000000001E-002  0.97968750000000004        0.0000000000000000     
   2.1874999999999999E-002  0.99062499999999998        0.0000000000000000     
   1.0937499999999999E-002  0.98906249999999996        0.0000000000000000     
   4.6875000000000000E-002  0.96875000000000000        0.0000000000000000     
   6.2500000000000000E-002  0.96875000000000000        0.0000000000000000     
   6.2500000000000000E-002  0.98437500000000000        0.0000000000000000     
   4.0625000000000001E-002  0.97812500000000002        0.0000000000000000     
   5.1562499999999997E-002  0.97968750000000004        0.0000000000000000     
   5.3124999999999999E-002  0.99062499999999998        0.0000000000000000     
   4.2187500000000003E-002  0.98906249999999996        0.0000000000000000     
   1.5625000000000000E-002  0.93750000000000000        0.0000000000000000     
   3.1250000000000000E-002  0.93750000000000000        0.0000000000000000     
   3.1250000000000000E-002  0.95312500000000000        0.0000000000000000     
   9.3749999999999997E-003  0.94687500000000002        0.0000000000000000     
   2.0312500000000001E-002  0.94843750000000004        0.0000000000000000     
   2.1874999999999999E-002  0.95937499999999998        0.0000000000000000     
   1.0937499999999999E-002  0.95781249999999996        0.0000000000000000     
   4.6875000000000000E-002  0.93750000000000000        0.0000000000000000     
   6.2500000000000000E-002  0.93750000000000000        0.0000000000000000     
   6.2500000000000000E-002  0.95312500000000000        0.0000000000000000     
   4.0625000000000001E-002  0.94687500000000002        0.0000000000000000     
   5.1562499999999997E-002  0.94843750000000004        0.0000000000000000     
   5.3124999999999999E-002  0.95937499999999998        0.0000000000000000     
   4.2187500000000003E-002  0.95781249999999996        0.0000000000000000     
   7.8125000000000000E-002  0.96875000000000000        0.0000000000000000     
   9.3750000000000000E-002  0.96875000000000000        0.0000000000000000     
   9.3750000000000000E-002  0.98437500000000000        0.0000000000000000     
   7.1874999999999994E-002  0.97812500000000002        0.0000000000000000     
   8.2812499999999997E-002  0.97968750000000004        0.0000000000000000     
   8.4375000000000006E-002  0.99062499999999998        0.0000000000000000     
   7.3437500000000003E-002  0.98906249999999996        0.0000000000000000     
  0.10937500000000000       0.96875000000000000        0.0000000000000000     
  0.12500000000000000       0.96875000000000000        0.0000000000000000     
  0.12500000000000000       0.98437500000000000        0.0000000000000000     
  0.10312499999999999       0.97812500000000002        0.0000000000000000     
  0.11406250000000000       0.97968750000000004        0.0000000000000000     
  0.11562500000000001       0.99062499999999998        0.0000000000000000     
  0.10468750000000000       0.98906249999999996        0.0000000000000000     
   7.8125000000000000E-002  0.93750000000000000        0.0000000000000000     
   9.3750000000000000E-002  0.93750000000000000        0.0000000000000000     
   9.3750000000000000E-002  0.95312500000000000        0.0000000000000000     
   7.1874999999999994E-002  0.94687500000000002        0.0000000000000000     
   8.2812499999999997E-002  0.94843750000000004        0.0000000000000000     
   8.4375000000000006E-002  0.95937499999999998        0.0000000000000000     
   7.3437500000000003E-002  0.95781249999999996        0.0000000000000000     
  0.10937500000000000       0.93750000000000000        0.0000000000000000     
  0.12500000000000000       0.93750000000000000        0.0000000000000000     
  0.12500000000000000       0.95312500000000000        0.0000000000000000     
  0.10312499999999999       0.94687500000000002        0.0000000000000000     
  0.11406250000000000       0.94843750000000004        0.0000000000000000     
  0.11562500000000001       0.95937499999999998        0.0000000000000000     
  0.10468750000000000       0.95781249999999996        0.0000000000000000     
   1.5625000000000000E-002  0.90625000000000000        0.0000000000000000     
   3.1250000000000000E-002  0.90625000000000000        0.0000000000000000     
   3.1250000000000000E-002  0.92187500000000000        0.0000000000000000     
   9.3749999999999997E-003  0.91562500000000002        0.0000000000000000     
   2.0312500000000001E-002  0.91718750000000004        0.0000000000000000     
   2.1874999999999999E-002  0.92812499999999998        0.0000000000000000     
   1.0937499999999999E-002  0.92656249999999996        0.0000000000000000     
   4.6875000000000000E-002  0.90625000000000000        0.0000000000000000     
   6.2500000000000000E-002  0.90625000000000000        0.0000000000000000     
   6.2500000000000000E-002  0.92187500000000000        0.0000000000000000     
   4.0625000000000001E-002  0.91562500000000002        0.0000000000000000     
   5.1562499999999997E-002  0.91718750000000004        0.0000000000000000     
   5.3124999999999999E-002  0.92812499999999998        0.0000000000000000     
   4.2187500000000003E-002  0.92656249999999996        0.0000000000000000     
   1.5625000000000000E-002  0.87500000000000000        0.0000000000000000     
   3.1250000000000000E-002  0.87500000000000000        0.0000000000000000     
   3.1250000000000000E-002  0.89062500000000000        0.0000000000000000     
   9.3749999999999997E-003  0.88437500000000002        0.0000000000000000     
   2.0312500000000001E-002  0.88593750000000004        0.0000000000000000     
   2.1874999999999999E-002  0.89687499999999998        0.0000000000000000     
   1.0937499999999999E-002  0.89531249999999996        0.0000000000000000     
   4.6875000000000000E-002  0.87500000000000000        0.0000000000000000     
   6.2500000000000000E-002  0.87500000000000000        0.0000000000000000     
   6.2500000000000000E-002  0.89062500000000000        0.0000000000000000     
   4.0625000000000001E-002  0.88437500000000002        0.0000000000000000     
   5.1562499999999997E-002  0.88593750000000004        0.0000000000000000     
   5.3124999999999999E-002  0.89687499999999998        0.0000000000000000     
   4.2187500000000003E-002  0.89531249999999996        0.0000000000000000     
   7.8125000000000000E-002  0.90625000000000000        0.0000000000000000     
   9.3750000000000000E-002  0.90625000000000000        0.0000000000000000     
   9.3750000000000000E-002  0.92187500000000000        0.0000000000000000     
   7.1874999999999994E-002  0.91562500000000002        0.0000000000000000     
   8.2812499999999997E-002  0.91718750000000004        0.0000000000000000     
   8.4375000000000006E-002  0.92812499999999998        0.0000000000000000     
   7.3437500000000003E-002  0.92656249999999996        0.0000000000000000     
  0.10937500000000000       0.90625000000000000        0.0000000000000000     
  0.12500000000000000       0.90625000000000000        0.0000000000000000     
  0.12500000000000000       0.92187500000000000        0.0000000000000000     
  0.10312499999999999       0.91562500000000002        0.0000000000000000     
  0.11406250000000000       0.91718750000000004        0.0000000000000000     
  0.11562500000000001       0.92812499999999998        0.0000000000000000     
  0.10468750000000000       0.92656249999999996        0.0000000000000000     
   7.8125000000000000E-002  0.87500000000000000        0.0000000000000000     
   9.3750000000000000E-002  0.87500000000000000        0.0000000000000000     
   9.3750000000000000E-002  0.89062500000000000        0.0000000000000000     
   7.1874999999999994E-002  0.88437500000000002        0.0000000000000000     
   8.2812499999999997E-002  0.88593750000000004        0.0000000000000000     
   8.4375000000000006E-002  0.89687499999999998        0.0000000000000000     
   7.3437500000000003E-002  0.89531249999999996        0.0000000000000000     
  0.10937500000000000       0.87500000000000000        0.0000000000000000     
  0.12500000000000000       0.87500000000000000        0.0000000000000000     
  0.12500000000000000       0.89062500000000000        0.0000000000000000     
  0.10312499999999999       0.88437500000000002        0.0000000000000000     
  0.11406250000000000       0.88593750000000004        0.0000000000000000     
  0.11562500000000001       0.89687499999999998        0.0000000000000000     
  0.10468750000000000       0.89531249999999996        0.0000000000000000     
  0.14062500000000000       0.96875000000000000        0.0000000000000000     
  0.15625000000000000       0.96875000000000000        0.0000000000000000     
  0.15625000000000000       0.98437500000000000        0.0000000000000000     
  0.13437499999999999       0.97812500000000002        0.0000000000000000     
  0.14531250000000001       0.97968750000000004        0.0000000000000000     
  0.14687500000000001       0.99062499999999998        0.0000000000000000     
  0.13593749999999999       0.98906249999999996        0.0000000000000000     
  0.17187500000000000       0.96875000000000000        0.0000000000000000     
  0.18750000000000000       0.96875000000000000        0.0000000000000000     
  0.18750000000000000       0.98437500000000000        0.0000000000000000     
  0.16562499999999999       0.97812500000000002        0.0000000000000000     
  0.17656250000000001       0.97968750000000004        0.0000000000000000     
[...]
 CELL_DATA       14336
 SCALARS Nutrient float
 LOOKUP_TABLE default
    0.91950652234923293399E-02
    0.91949827018469286466E-02
    0.91956347137988423551E-02
    0.91956347136748894239E-02
    0.91949827023435175277E-02
    0.91950652230666316683E-02
    0.91945487950461698284E-02
    0.91942426870150976287E-02
    0.91939121507524333710E-02
    0.91939121479067999199E-02
    0.91942426884790273006E-02
    0.91945487944353823662E-02
    0.91945008490458921685E-02
    0.91945008485838797957E-02
    0.91972100209971666129E-02
    0.91977812889270441077E-02
    0.91993312522882786375E-02
    0.91997607577893013298E-02
    0.91985986300358937862E-02
    0.91991549886113639645E-02
    0.91979371729256822338E-02
    0.91969239454849551624E-02
    0.91958534874605757370E-02
    0.91954717486290894757E-02
    0.91961369638825854467E-02
    0.91960551855540494104E-02
    0.91970999823417810826E-02
    0.91973285901012016841E-02
    0.91991549886845710299E-02
    0.91985986299563636537E-02
    0.91997607578179433491E-02
    0.91993312522542607101E-02
    0.91977812890463341022E-02
    0.91972100208442368607E-02
    0.91960551858564915095E-02
    0.91961369635843188269E-02
    0.91954717490119880496E-02
    0.91958534870925281307E-02
    0.91969239456716339598E-02
    0.91979371728564025823E-02
    0.91973285901917108814E-02
    0.91970999822954969255E-02
    0.92020314171736162373E-02
    0.92022810371884932595E-02
    0.92047039080566765701E-02
    0.92047039080455500537E-02
    0.92022810372231218096E-02
    0.92020314171349978233E-02
    0.91998836122465302290E-02
    0.91992711019485990526E-02
    0.91976735524476414124E-02
    0.91976735522990276522E-02
    0.91992711020410997125E-02
    0.91998836121828762857E-02
    0.92005891285432423593E-02
    0.92005891285166212928E-02
    0.92029384806230126598E-02
    0.92044816998990801327E-02
    0.92075041267900090830E-02
    0.92086297674363083721E-02
    0.92066304117050211386E-02
    0.92079829388945540897E-02
    0.92055955241201609107E-02
    0.92033796877579957668E-02
    0.92010875409993270885E-02
    0.92001191256429245419E-02
    0.92013420305963357360E-02
    0.92007539289284158424E-02
    0.92034262943730248824E-02
    0.92040353365479710829E-02
    0.92143928601218071800E-02
    0.92175017223808577288E-02
    0.92228406686296702383E-02
    0.92250106671732702568E-02
    0.92216404030775762229E-02
    0.92241401657071897535E-02
    0.92199205952035508810E-02
    0.92159078961420465986E-02
    0.92117356615182711260E-02
    0.92098398956049019187E-02
    0.92119837068805939667E-02
    0.92105677732751307929E-02
    0.92158275075925593506E-02
    0.92170079480594930416E-02
    0.92095403953685369552E-02
    0.92107460622979104442E-02
    0.92149947712702687946E-02
    0.92155610655258683034E-02
    0.92117837749160803862E-02
    0.92119999374134647896E-02
    0.92082746513827244683E-02
    0.92066297313739605540E-02
    0.92035814167847895817E-02
    0.92031220305515450131E-02
    0.92056751476541198026E-02
    0.92059609027980628809E-02
    0.92082966783376043324E-02
    0.92085881405328598448E-02
    0.92237559518596520108E-02
    0.92265288315947803499E-02
    0.92338406783231199992E-02
    0.92353529348173802466E-02
    0.92293078066350963534E-02
    0.92302716431821498627E-02
    0.92239862021556619925E-02
    0.92206777121783545237E-02
    0.92153033743153436874E-02
    0.92140868155491644637E-02
    0.92181295248280111648E-02
    0.92179026764162685231E-02
    0.92228587999983804857E-02
    0.92236380031794334283E-02
    0.92079829389258658484E-02
    0.92066304117064696327E-02
    0.92086297674561189142E-02
    0.92075041267957215274E-02
    0.92044816999325689694E-02
    0.92029384805940861458E-02
    0.92007539289958792383E-02
    0.92013420305513005798E-02
    0.92001191257112969329E-02
    0.92010875409559590016E-02
    0.92033796877995267816E-02
    0.92055955241290825936E-02
    0.92040353365741758157E-02
    0.92034262943787529393E-02
    0.92119999374332371678E-02
    0.92117837749183008322E-02
    0.92155610655414825494E-02
    0.92149947712780420905E-02
    0.92107460623143608269E-02
    0.92095403953581355533E-02
    0.92059609028204529568E-02
    0.92056751476311121651E-02
    0.92031220305923856079E-02
    0.92035814167608937658E-02
    0.92066297313996795643E-02
    0.92082746513809637240E-02
    0.92085881405486753187E-02
    0.92082966783396929394E-02
    0.92241401657648935952E-02
    0.92216404031221447385E-02
    0.92250106672242156158E-02
    0.92228406686718673868E-02
    0.92175017224194744081E-02
    0.92143928601388491034E-02
    0.92105677733032489257E-02
    0.92119837068973687427E-02
    0.92098398956355891770E-02
    0.92117356615395648567E-02
    0.92159078961861831680E-02
    0.92199205952557851396E-02
    0.92170079481003665961E-02
    0.92158275076250906199E-02
    0.92302716432347432091E-02
    0.92293078066800413040E-02
    0.92353529348742618293E-02
    0.92338406783732934063E-02
    0.92265288316333033541E-02
    0.92237559518802553216E-02
    0.92179026764366549934E-02
    0.92181295248436566359E-02
    0.92140868155751957241E-02
    0.92153033743337248174E-02
    0.92206777122153839310E-02
    0.92239862021959769661E-02
    0.92236380032173267279E-02
    0.92228588000305838923E-02
    0.92224633819970001924E-02
    0.92234002080826514580E-02
    0.92297004216619921851E-02
    0.92297004216579919128E-02
    0.92234002080818083824E-02
    0.92224633819844494681E-02
    0.92167206511579152090E-02
    0.92153898732039839919E-02
    0.92109822668324792261E-02
    0.92109822668219928227E-02
    0.92153898732162172619E-02
    0.92167206511638601063E-02
    0.92190304969987230121E-02
    0.92190304969953004027E-02
    0.92419291328870705610E-02
    0.92447020666808470829E-02
    0.92553069909188604575E-02
    0.92562949945399989465E-02
    0.92464225340751857868E-02
    0.92458971201660831302E-02
    0.92363899216633214145E-02
    0.92333189883559048383E-02
    0.92257967698399327705E-02
    0.92251258760783719920E-02
    0.92318408120425597685E-02
    0.92328568104596032973E-02
    0.92382741420579395086E-02
    0.92387424371442872228E-02
    0.92458971202277282636E-02
    0.92464225341261883917E-02
    0.92562949946002979346E-02
    0.92553069909667978060E-02
    0.92447020667150991979E-02
    0.92419291329038661537E-02
    0.92328568104670539346E-02
    0.92318408120584550397E-02
    0.92251258760976395656E-02
    0.92257967698607147577E-02
    0.92333189883961417493E-02
    0.92363899217170770256E-02
    0.92387424371830166592E-02
    0.92382741420898219914E-02
    0.92743587812764583661E-02
    0.92769914910059529667E-02
    0.92929796816583337682E-02
    0.92929796816470199017E-02
    0.92769914909869542752E-02
    0.92743587812313971891E-02
    0.92598320305476832653E-02
    0.92567067089477320790E-02
    0.92456237309800383406E-02
    0.92456237309878237796E-02
    0.92567067089684030440E-02
    0.92598320305948243758E-02
    0.92659764996401612624E-02
    0.92659764996342441207E-02
    0.92349495253811579587E-02
    0.92405387254637441630E-02
    0.92497876490648094777E-02
    0.92536722438835185278E-02
    0.92479165307815542479E-02
    0.92523287729665316947E-02
    0.92450463607541173705E-02
    0.92380334576307454597E-02
    0.92307725361777965417E-02
    0.92274144225190594254E-02
    0.92310691221558979769E-02
    0.92284339555865884525E-02
    0.92377693389085434317E-02
    0.92398691923273150450E-02
    0.92709435466114039487E-02
    0.92807119856847721667E-02
    0.92968059084726044350E-02
    0.93035090433840027246E-02
    0.92934595727659809195E-02
    0.93009665849710654317E-02
    0.92884337011115286620E-02
    0.92763637225028901245E-02
    0.92638097434293263654E-02
    0.92579994476013130478E-02
    0.92642936736294697470E-02
    0.92596500549259573576E-02
    0.92759165442584962796E-02
    0.92795520717849824116E-02
    0.92493469615011810608E-02
    0.92547792716543807179E-02
    0.92674701022487770280E-02
    0.92705838848389683637E-02
    0.92604211890117676259E-02
    0.92625016949072439681E-02
    0.92516656841538039840E-02
    0.92456662963483048773E-02
    0.92363665770866573007E-02
    0.92339766376970788125E-02
    0.92405885338339641133E-02
    0.92395409426565058841E-02
    0.92489028275336386542E-02
    0.92504718082808985030E-02
    0.92948939000267617044E-02
    0.93049254649568945152E-02
    0.93272161929646539569E-02
    0.93329537314325982517E-02
    0.93152414914327800327E-02
    0.93189595284680088599E-02
    0.93000817326434545573E-02
    0.92895295928313217221E-02
    0.92733433445276857582E-02
    0.92690172461063011916E-02
    0.92803051050876720490E-02
    0.92780108032413603075E-02
    0.92949064042086547432E-02
    0.92977662888070449626E-02
    0.93334321870338615018E-02
    0.93500378312226534866E-02
    0.93777263275245503066E-02
    0.93887408221188430740E-02
    0.93712182280447191285E-02
    0.93834784229644939424E-02
    0.93622834165584204597E-02
    0.93419466603081816741E-02
    0.93205952467608193385E-02
    0.93106993360053454806E-02
    0.93216208638984311696E-02
    0.93138221927605013839E-02
    0.93415033467671038797E-02
    0.93475817625644531950E-02
    0.94401341300251479655E-02
    0.94671486837567906530E-02
    0.95139989794184656735E-02
    0.95309917412587166763E-02
    0.95006156285783720933E-02
    0.95195392082718793825E-02
    0.94847289385780672588E-02
    0.94515395847145165092E-02
    0.94160739050177435366E-02
    0.93997655166334903587E-02
    0.94185679565378811057E-02
    0.94061931388578368801E-02
    0.94518004905907362229E-02
    0.94615302920734688230E-02
    0.93758904450826161675E-02
    0.93936391994681334855E-02
    0.94331606905136335811E-02
    0.94429111450361410962E-02
    0.94111514245423504715E-02
    0.94167408715019954024E-02
    0.93837328278422223876E-02
    0.93658854577826199800E-02
    0.93377138530115286891E-02
    0.93303149052706615268E-02
    0.93501469667903718691E-02
    0.93460928454392657588E-02
    0.93757743558510655418E-02
    0.93806440021166129228E-02
    0.95191659806798719495E-02
    0.95491077825570341853E-02
    0.96189232759217660473E-02
    0.96338352084061624342E-02
    0.95762712981732091289E-02
    0.95827108449511328586E-02
    0.95253523095731422454E-02
    0.94966536160142715761E-02
    0.94481274316529136742E-02
    0.94362393752450545586E-02
    0.94717540968092782394E-02
    0.94659361060594731513E-02
    0.95161809341499856152E-02
    0.95238051592393679901E-02
    0.92767292031681984621E-02
    0.92827411188705806488E-02
    0.93008804289091348561E-02
    0.93036670844051840706E-02
    0.92874897027133695993E-02
    0.92877040806347496704E-02
    0.92715050057382269316E-02
    0.92653991827837348799E-02
    0.92524583603586854630E-02
    0.92506610763678047415E-02
    0.92614160754782900303E-02
    0.92619215268742605823E-02
    0.92727003331437678202E-02
    0.92739765946071271718E-02
    0.93388238582921383191E-02
    0.93508542910731694969E-02
    0.93828229780890063522E-02
    0.93889773051337721554E-02
    0.93611442867897950992E-02
    0.93624908864107861395E-02
    0.93340867300928907768E-02
    0.93226985079274075213E-02
    0.92999812542789786485E-02
    0.92962118436111396830E-02
    0.93142355539801210268E-02
    0.93137312989420122100E-02
    0.93343179263245534827E-02
    0.93370628074650810491E-02
    0.93237000239118367900E-02
    0.93303657865879147809E-02
    0.93568525393896914699E-02
    0.93590339989120009678E-02
    0.93339394759503046400E-02
    0.93318942209964853007E-02
    0.93077825052765381791E-02
    0.93008760713980190293E-02
    0.92821728175393886096E-02
    0.92809167198822060951E-02
    0.92980064990496619909E-02
    0.93008812468371830640E-02
    0.93139741768850647929E-02
    0.93149168529101777220E-02
    0.94101552507249771468E-02
    0.94249864561225023957E-02
    0.94706559936331528859E-02
    0.94777012680214468843E-02
    0.94362431209420206957E-02
    0.94358254582969300350E-02
    0.93940331136360064046E-02
    0.93798732110431815717E-02
    0.93473339444832184014E-02
    0.93436133391559296479E-02
    0.93711460346749299311E-02
    0.93729933590077155192E-02
    0.93993457962654666793E-02
    0.94022705632633481881E-02
    0.94514263463395965098E-02
    0.94744347974120898120E-02
    0.95321568113927983984E-02
    0.95440224902190000378E-02
    0.94940327866591834455E-02
    0.94964483137457231937E-02
    0.94455820940398515367E-02
    0.94252402654035061236E-02
    0.93847936811384379679E-02
    0.93777380123432688142E-02
    0.94092777758138200495E-02
    0.94072063282952030766E-02
    0.94454241785853505081E-02
    0.94506295202755087603E-02
    0.96575686197161274282E-02
    0.96995696887930676205E-02
    0.98051649014233820123E-02
    0.98255205214220608240E-02
    0.97330244883704099268E-02
    0.97343061243427512347E-02
    0.96424055950835568102E-02
    0.96080066350013107468E-02
    0.95356435810876379738E-02
    0.95236827537590815207E-02
    0.95808723893578244535E-02
    0.95772299410261593766E-02
    0.96461282081307213321E-02
    0.96550003651820048151E-02
    0.95670860984083515993E-02
    0.95984379931255085078E-02
    0.96809814628811517723E-02
    0.96976817202869651513E-02
    0.96248324735069539643E-02
    0.96271127591889254366E-02
    0.95517514479736467109E-02
    0.95242281696712709910E-02
    0.94656794519702991408E-02
    0.94572471440539703641E-02
    0.95041097025937680554E-02
    0.95032445425971903696E-02
    0.95556473904123140350E-02
    0.95624587600616605537E-02
    0.98610546526263619799E-02
    0.99238842982632535089E-02
    0.10078051164242346482E-01
    0.10111897924569648172E-01
    0.99768707847277312423E-02
    0.99812304254940312914E-02
    0.98417354719504638455E-02
    0.97909013696023342727E-02
    0.96832683373066236882E-02
    0.96667303290427254725E-02
    0.97510471754687008672E-02
    0.97455392054236894550E-02
    0.98470070720272969561E-02
    0.98606076564676757579E-02
    0.92523287731060468303E-02
    0.92479165309028131536E-02
    0.92536722440157599678E-02
    0.92497876491819622929E-02
    0.92405387255596882490E-02
    0.92349495254536173583E-02
    0.92284339556451353698E-02
    0.92310691222261265221E-02
    0.92274144225862556740E-02
    0.92307725362543273373E-02
    0.92380334577338921176E-02
    0.92450463608851462388E-02
    0.92398691924286072835E-02
    0.92377693390007994956E-02
    0.92625016950492831264E-02
    0.92604211891457940964E-02
    0.92705838849985230249E-02
    0.92674701023980777387E-02
    0.92547792717681820474E-02
    0.92493469615887464325E-02
    0.92395409427208866765E-02
    0.92405885339089197800E-02
    0.92339766377623304361E-02
    0.92363665771607646876E-02
    0.92456662964489656764E-02
    0.92516656842727522381E-02
    0.92504718083896708691E-02
    0.92489028276352726332E-02
    0.93009665852807309194E-02
    0.92934595730426745180E-02
    0.93035090436859070595E-02
    0.92968059087462640022E-02
    0.92807119859104822424E-02
    0.92709435467956662763E-02
    0.92596500550727149637E-02
    0.92642936738038493549E-02
    0.92579994477617871124E-02
    0.92638097436132452178E-02
    0.92763637227362538001E-02
    0.92884337014009134975E-02
    0.92795520720184900693E-02
    0.92759165444755032476E-02
    0.93189595287997226830E-02
    0.93152414917539588801E-02
    0.93329537318105164345E-02
    0.93272161933260072653E-02
    0.93049254652388842246E-02
    0.92948939002611766225E-02
    0.92780108034186993538E-02
    0.92803051052863481940E-02
    0.92690172462743924270E-02
    0.92733433447163091806E-02
    0.92895295930741760698E-02
    0.93000817329244468007E-02
    0.92977662890718210109E-02
    0.92949064044610812951E-02
    0.92877040808205229422E-02
    0.92874897028857508058E-02
    0.93036670846079003866E-02
    0.93008804290917023588E-02
    0.92827411190094747534E-02
    0.92767292032750088560E-02
    0.92619215269459723161E-02
    0.92614160755694410754E-02
    0.92506610764455272922E-02
    0.92524583604493039479E-02
    0.92653991829123386048E-02
    0.92715050058983991543E-02
    0.92739765947439430777E-02
    0.92727003332700036475E-02
    0.93318942212073773684E-02
    0.93339394761222833907E-02
    0.93590339991006989834E-02
    0.93568525395367023456E-02
    0.93303657866928967762E-02
    0.93237000239645498323E-02
    0.93008812468608897950E-02
    0.92980064991171583466E-02
    0.92809167199496538786E-02
    0.92821728176375808972E-02
    0.93008760715350621839E-02
    0.93077825054654270143E-02
    0.93149168530396071752E-02
    0.93139741769940366523E-02
    0.93624908868646158216E-02
    0.93611442872250840569E-02
    0.93889773056492955433E-02
    0.93828229785667075641E-02
    0.93508542914500190901E-02
    0.93388238586078736042E-02
    0.93137312991733289119E-02
    0.93142355542428709181E-02
    0.92962118438308337376E-02
    0.92999812545241280354E-02
    0.93226985082539119698E-02
    0.93340867304794374743E-02
    0.93370628078212111051E-02
    0.93343179266622538365E-02
    0.94358254588753544961E-02
    0.94362431214667970986E-02
    0.94777012686149131326E-02
    0.94706559941628420257E-02
    0.94249864565312587578E-02
    0.94101552510386047429E-02
    0.93729933592294253225E-02
    0.93711460349656452995E-02
    0.93436133394141189512E-02
    0.93473339447959855747E-02
    0.93798732114505015828E-02
    0.93940331141405732790E-02
    0.94022705636841921034E-02
    0.93993457966523360353E-02
    0.93834784236043276145E-02
    0.93712182286265037490E-02
    0.93887408227528706267E-02
    0.93777263281107550025E-02
    0.93500378317087247393E-02
    0.93334321874443265665E-02
    0.93138221930919359165E-02
    0.93216208642808856544E-02
    0.93106993363557960519E-02
    0.93205952471573823293E-02
    0.93419466607986972884E-02
    0.93622834171544107307E-02
    0.93475817630597705238E-02
    0.93415033472322821229E-02
    0.94167408722137680571E-02
    0.94111514252377317241E-02
    0.94429111458562177417E-02
    0.94331606913004035359E-02
    0.93936392000949237718E-02
    0.93758904456206753480E-02
    0.93460928458569125787E-02
    0.93501469672430219393E-02
    0.93303149056546148127E-02
    0.93377138534323569918E-02
    0.93658854583135286304E-02
    0.93837328284444021520E-02
    0.93806440026982882557E-02
    0.93757743564106856005E-02
    0.95195392095189911713E-02
    0.95006156297367458374E-02
    0.95309917425390935225E-02
    0.95139989806048257115E-02
    0.94671486847456125246E-02
    0.94401341308743228625E-02
    0.94061931395531071104E-02
    0.94185679573214296789E-02
    0.93997655173506926979E-02
    0.94160739058195171147E-02
    0.94515395856889870135E-02
    0.94847289397393362564E-02
    0.94615302930665511755E-02
    0.94518004915305313396E-02
    0.95827108463754293033E-02
    0.95762712995957812584E-02
    0.96338352100935661232E-02
    0.96189232775484353327E-02
    0.95491077838608436762E-02
    0.95191659818245118879E-02
    0.94659361069558394658E-02
    0.94717540977638393224E-02
    0.94362393760530280384E-02
    0.94481274325295717953E-02
    0.94966536171036623065E-02
    0.95253523107914038481E-02
    0.95238051604384973275E-02
    0.95161809353118236021E-02
    0.94964483147399903623E-02
    0.94940327876346219255E-02
    0.95440224913708408133E-02
    0.95321568124872579908E-02
    0.94744347982850928708E-02
    0.94514263471016258383E-02
    0.94072063288698371669E-02
    0.94092777764385113204E-02
    0.93777380128637951445E-02
    0.93847936817058191794E-02
    0.94252402661372698678E-02
    0.94455820948861918956E-02
    0.94506295210847121591E-02
    0.94454241793634780705E-02
    0.96271127605384882592E-02
    0.96248324747758243897E-02
    0.96976817217512417679E-02
    0.96809814642267125878E-02
    0.95984379941986552875E-02
    0.95670860993006274359E-02
    0.95032445432744350883E-02
    0.95041097033746677059E-02
    0.94572471447337165540E-02
    0.94656794527397843109E-02
    0.95242281706524722223E-02
    0.95517514491298416424E-02