# vtk DataFile Version 3.0
LAPLACIEN  2D
ASCII
DATASET UNSTRUCTURED_GRID
 POINTS        7297  float
   1.5625000000000000E-002  0.96875000000000000        0.0000000000000000     
   3.1250000000000000E-002  0.96875000000000000        0.0000000000000000     
   3.1250000000000000E-002  0.98437500000000000        0.0000000000000000     
   9.3749999999999997E-003  0.97812500000000002        0.0000000000000000     
   2.0312500000000001E-002  0.97968750000000004        0.0000000000000000     
   2.1874999999999999E-002  0.99062499999999998        0.0000000000000000     
   1.0937499999999999E-002  0.98906249999999996        0.0000000000000000     
   4.6875000000000000E-002  0.96875000000000000        0.0000000000000000     
   6.2500000000000000E-002  0.96875000000000000        0.0000000000000000     
   6.2500000000000000E-002  0.98437500000000000        0.0000000000000000     
   4.0625000000000001E-002  0.97812500000000002        0.0000000000000000     
   5.1562499999999997E-002  0.97968750000000004        0.0000000000000000     
   5.3124999999999999E-002  0.99062499999999998        0.0000000000000000     
   4.2187500000000003E-002  0.98906249999999996        0.0000000000000000     
   1.5625000000000000E-002  0.93750000000000000        0.0000000000000000     
   3.1250000000000000E-002  0.93750000000000000        0.0000000000000000     
   3.1250000000000000E-002  0.95312500000000000        0.0000000000000000     
   9.3749999999999997E-003  0.94687500000000002        0.0000000000000000     
   2.0312500000000001E-002  0.94843750000000004        0.0000000000000000     
   2.1874999999999999E-002  0.95937499999999998        0.0000000000000000     
   1.0937499999999999E-002  0.95781249999999996        0.0000000000000000     
   4.6875000000000000E-002  0.93750000000000000        0.0000000000000000     
   6.2500000000000000E-002  0.93750000000000000        0.0000000000000000     
   6.2500000000000000E-002  0.95312500000000000        0.0000000000000000     
   4.0625000000000001E-002  0.94687500000000002        0.0000000000000000     
   5.1562499999999997E-002  0.94843750000000004        0.0000000000000000     
   5.3124999999999999E-002  0.95937499999999998        0.0000000000000000     
   4.2187500000000003E-002  0.95781249999999996        0.0000000000000000     
   7.8125000000000000E-002  0.96875000000000000        0.0000000000000000     
   9.3750000000000000E-002  0.96875000000000000        0.0000000000000000     
   9.3750000000000000E-002  0.98437500000000000        0.0000000000000000     
   7.1874999999999994E-002  0.97812500000000002        0.0000000000000000     
   8.2812499999999997E-002  0.97968750000000004        0.0000000000000000     
   8.4375000000000006E-002  0.99062499999999998        0.0000000000000000     
   7.3437500000000003E-002  0.98906249999999996        0.0000000000000000     
  0.10937500000000000       0.96875000000000000        0.0000000000000000     
  0.12500000000000000       0.96875000000000000        0.0000000000000000     
  0.12500000000000000       0.98437500000000000        0.0000000000000000     
  0.10312499999999999       0.97812500000000002        0.0000000000000000     
  0.11406250000000000       0.97968750000000004        0.0000000000000000     
  0.11562500000000001       0.99062499999999998        0.0000000000000000     
  0.10468750000000000       0.98906249999999996        0.0000000000000000     
   7.8125000000000000E-002  0.93750000000000000        0.0000000000000000     
   9.3750000000000000E-002  0.93750000000000000        0.0000000000000000     
   9.3750000000000000E-002  0.95312500000000000        0.0000000000000000     
   7.1874999999999994E-002  0.94687500000000002        0.0000000000000000     
   8.2812499999999997E-002  0.94843750000000004        0.0000000000000000     
   8.4375000000000006E-002  0.95937499999999998        0.0000000000000000     
   7.3437500000000003E-002  0.95781249999999996        0.0000000000000000     
  0.10937500000000000       0.93750000000000000        0.0000000000000000     
  0.12500000000000000       0.93750000000000000        0.0000000000000000     
  0.12500000000000000       0.95312500000000000        0.0000000000000000     
  0.10312499999999999       0.94687500000000002        0.0000000000000000     
  0.11406250000000000       0.94843750000000004        0.0000000000000000     
  0.11562500000000001       0.95937499999999998        0.0000000000000000     
  0.10468750000000000       0.95781249999999996        0.0000000000000000     
   1.5625000000000000E-002  0.90625000000000000        0.0000000000000000     
   3.1250000000000000E-002  0.90625000000000000        0.0000000000000000     
   3.1250000000000000E-002  0.92187500000000000        0.0000000000000000     
   9.3749999999999997E-003  0.91562500000000002        0.0000000000000000     
   2.0312500000000001E-002  0.91718750000000004        0.0000000000000000     
   2.1874999999999999E-002  0.92812499999999998        0.0000000000000000     
   1.0937499999999999E-002  0.92656249999999996        0.0000000000000000     
   4.6875000000000000E-002  0.90625000000000000        0.0000000000000000     
   6.2500000000000000E-002  0.90625000000000000        0.0000000000000000     
   6.2500000000000000E-002  0.92187500000000000        0.0000000000000000     
   4.0625000000000001E-002  0.91562500000000002        0.0000000000000000     
   5.1562499999999997E-002  0.91718750000000004        0.0000000000000000     
   5.3124999999999999E-002  0.92812499999999998        0.0000000000000000     
   4.2187500000000003E-002  0.92656249999999996        0.0000000000000000     
   1.5625000000000000E-002  0.87500000000000000        0.0000000000000000     
   3.1250000000000000E-002  0.87500000000000000        0.0000000000000000     
   3.1250000000000000E-002  0.89062500000000000        0.0000000000000000     
   9.3749999999999997E-003  0.88437500000000002        0.0000000000000000     
   2.0312500000000001E-002  0.88593750000000004        0.0000000000000000     
   2.1874999999999999E-002  0.89687499999999998        0.0000000000000000     
   1.0937499999999999E-002  0.89531249999999996        0.0000000000000000     
   4.6875000000000000E-002  0.87500000000000000        0.0000000000000000     
   6.2500000000000000E-002  0.87500000000000000        0.0000000000000000     
   6.2500000000000000E-002  0.89062500000000000        0.0000000000000000     
   4.0625000000000001E-002  0.88437500000000002        0.0000000000000000     
   5.1562499999999997E-002  0.88593750000000004        0.0000000000000000     
   5.3124999999999999E-002  0.89687499999999998        0.0000000000000000     
   4.2187500000000003E-002  0.89531249999999996        0.0000000000000000     
   7.8125000000000000E-002  0.90625000000000000        0.0000000000000000     
   9.3750000000000000E-002  0.90625000000000000        0.0000000000000000     
   9.3750000000000000E-002  0.92187500000000000        0.0000000000000000     
   7.1874999999999994E-002  0.91562500000000002        0.0000000000000000     
   8.2812499999999997E-002  0.91718750000000004        0.0000000000000000     
   8.4375000000000006E-002  0.92812499999999998        0.0000000000000000     
   7.3437500000000003E-002  0.92656249999999996        0.0000000000000000     
  0.10937500000000000       0.90625000000000000        0.0000000000000000     
  0.12500000000000000       0.90625000000000000        0.0000000000000000     
  0.12500000000000000       0.92187500000000000        0.0000000000000000     
  0.10312499999999999       0.91562500000000002        0.0000000000000000     
  0.11406250000000000       0.91718750000000004        0.0000000000000000     
  0.11562500000000001       0.92812499999999998        0.0000000000000000     
  0.10468750000000000       0.92656249999999996        0.0000000000000000     
   7.8125000000000000E-002  0.87500000000000000        0.0000000000000000     
   9.3750000000000000E-002  0.87500000000000000        0.0000000000000000     
   9.3750000000000000E-002  0.89062500000000000        0.0000000000000000     
   7.1874999999999994E-002  0.88437500000000002        0.0000000000000000     
   8.2812499999999997E-002  0.88593750000000004        0.0000000000000000     
   8.4375000000000006E-002  0.89687499999999998        0.0000000000000000     
   7.3437500000000003E-002  0.89531249999999996        0.0000000000000000     
  0.10937500000000000       0.87500000000000000        0.0000000000000000     
  0.12500000000000000       0.87500000000000000        0.0000000000000000     
  0.12500000000000000       0.89062500000000000        0.0000000000000000     
  0.10312499999999999       0.88437500000000002        0.0000000000000000     
  0.11406250000000000       0.88593750000000004        0.0000000000000000     
  0.11562500000000001       0.89687499999999998        0.0000000000000000     
  0.10468750000000000       0.89531249999999996        0.0000000000000000     
  0.14062500000000000       0.96875000000000000        0.0000000000000000     
  0.15625000000000000       0.96875000000000000        0.0000000000000000     
  0.15625000000000000       0.98437500000000000        0.0000000000000000     
  0.13437499999999999       0.97812500000000002        0.0000000000000000     
  0.14531250000000001       0.97968750000000004        0.0000000000000000     
  0.14687500000000001       0.99062499999999998        0.0000000000000000     
  0.13593749999999999       0.98906249999999996        0.0000000000000000     
  0.17187500000000000       0.96875000000000000        0.0000000000000000     
  0.18750000000000000       0.96875000000000000        0.0000000000000000     
  0.18750000000000000       0.98437500000000000        0.0000000000000000     
  0.16562499999999999       0.97812500000000002        0.0000000000000000     
  0.17656250000000001       0.97968750000000004        0.0000000000000000     
  0.17812500000000001       0.99062499999999998        0.0000000000000000     
[...]
 CELL_DATA       14336
 SCALARS Nutrients float
 LOOKUP_TABLE default
    0.13160616945348277708E-04
    0.13060029639898341065E-04
    0.13794880360893333208E-04
    0.13794880360136560092E-04
    0.13060029638212814957E-04
    0.13160616941284953934E-04
    0.12574730496748699778E-04
    0.12232339208125642620E-04
    0.11862291712737439082E-04
    0.11862291713215541747E-04
    0.12232339210059977881E-04
    0.12574730502079606664E-04
    0.12521126294259468371E-04
    0.12521126293730757182E-04
    0.15564641095004173030E-04
    0.16201648205805355829E-04
    0.17942229298970780338E-04
    0.18410943213327613855E-04
    0.17106567028193982481E-04
    0.17726259393167433413E-04
    0.16363537704704037359E-04
    0.15234049698822744946E-04
    0.14040048346232107438E-04
    0.13602681092804843750E-04
    0.14358628866094722365E-04
    0.14263791720243632248E-04
    0.15432442396621642448E-04
    0.15692329793018667394E-04
    0.17726259403407428164E-04
    0.17106567034902476647E-04
    0.18410943217851247520E-04
    0.17942229302549203161E-04
    0.16201648209077650780E-04
    0.15564641096398440084E-04
    0.14263791721705648384E-04
    0.14358628869714297436E-04
    0.13602681097218064977E-04
    0.14040048351795433388E-04
    0.15234049706422497344E-04
    0.16363537716639226253E-04
    0.15692329798833873838E-04
    0.15432442401340483326E-04
    0.20974934378221770699E-04
    0.21264861776156276457E-04
    0.23993749193610692508E-04
    0.23993749193826458904E-04
    0.21264861775095347362E-04
    0.20974934374929353633E-04
    0.18561032892652954118E-04
    0.17881005280328265159E-04
    0.16084438416453376207E-04
    0.16084438417130900921E-04
    0.17881005281601067687E-04
    0.18561032895633503817E-04
    0.19363651468840967684E-04
    0.19363651468510225035E-04
    0.21962768080279114572E-04
    0.23654826990895747453E-04
    0.27012476872914744014E-04
    0.28223998597068236329E-04
    0.25985297582950956226E-04
    0.27445776938595821469E-04
    0.24817122930757854686E-04
    0.22385183593904859549E-04
    0.19858901430454134208E-04
    0.18781120665583921173E-04
    0.20157114015013881397E-04
    0.19518080060231012603E-04
    0.22458940688660224513E-04
    0.23127436990239337193E-04
    0.34616642563013189386E-04
    0.37977319587380701257E-04
    0.43863253843254138876E-04
    0.46170806641248317032E-04
    0.42412601536614403760E-04
    0.45079406074206879878E-04
    0.40474569166841017031E-04
    0.36111181214568389378E-04
    0.31546302219750946738E-04
    0.29479458940068359064E-04
    0.31863692243586261451E-04
    0.30357201895653662373E-04
    0.36077330992264379235E-04
    0.37348843650904624747E-04
    0.29448522734103324333E-04
    0.30787373026895026231E-04
    0.35576280242599897855E-04
    0.36171818497423439737E-04
    0.31890090986654010181E-04
    0.32065461764635763958E-04
    0.27893904077046708089E-04
    0.26098588296013188500E-04
    0.22690783028760769767E-04
    0.22194412054445565114E-04
    0.25070507188648998508E-04
    0.25408560368341031921E-04
    0.28008497760107579889E-04
    0.28319057943839245385E-04
    0.45411725485576950672E-04
    0.48418084350805192905E-04
    0.56622841666696896727E-04
    0.58179670034531777456E-04
    0.51308167515796716113E-04
    0.52200024468611566468E-04
    0.45192617902752276935E-04
    0.41634538954465930515E-04
    0.35666467341515218595E-04
    0.34375854509683507164E-04
    0.38949586356614422254E-04
    0.38788192140166700929E-04
    0.44208818017842374862E-04
    0.45023968249269531706E-04
    0.27445776958505151323E-04
    0.25985297599134479524E-04
    0.28223998612536057445E-04
    0.27012476885721556916E-04
    0.23654827001419532123E-04
    0.21962768086920001956E-04
    0.19518080064626812056E-04
    0.20157114024236243990E-04
    0.18781120676225622994E-04
    0.19858901443002984920E-04
    0.22385183609825287638E-04
    0.24817122953146314451E-04
    0.23127437004020563244E-04
    0.22458940700597229445E-04
    0.32065461777384416189E-04
    0.31890090997809210480E-04
    0.36171818510276155048E-04
    0.35576280254228637005E-04
    0.30787373033707075257E-04
    0.29448522735979275306E-04
    0.25408560367357074404E-04
    0.25070507192181400337E-04
    0.22194412058765629656E-04
    0.22690783034954362769E-04
    0.26098588304630335888E-04
    0.27893904088846869767E-04
    0.28319057952000661942E-04
    0.28008497766920736834E-04
    0.45079406132627006525E-04
    0.42412601586276745056E-04
    0.46170806693574143267E-04
    0.43863253888993125205E-04
    0.37977319622785601027E-04
    0.34616642587969551504E-04
    0.30357201913118953197E-04
    0.31863692269707036373E-04
    0.29479458964663966461E-04
    0.31546302250376710436E-04
    0.36111181256620241288E-04
    0.40474569224406379013E-04
    0.37348843690994558615E-04
    0.36077331028025283563E-04
    0.52200024522363152441E-04
    0.51308167565429404480E-04
    0.58179670093737727060E-04
    0.56622841721498342769E-04
    0.48418084388986964831E-04
    0.45411725510638351652E-04
    0.38788192154915990771E-04
    0.38949586379521567727E-04
    0.34375854528240819968E-04
    0.35666467366290363096E-04
    0.41634538990031237995E-04
    0.45192617947806542158E-04
    0.45023968287283570779E-04
    0.44208818052327952504E-04
    0.44074316018009759800E-04
    0.45187883395567810039E-04
    0.52387999830239913746E-04
    0.52387999827639129575E-04
    0.45187883391366025177E-04
    0.44074316008603174318E-04
    0.37552823385279712580E-04
    0.36074706985083839102E-04
    0.31083587421114639991E-04
    0.31083587422479325266E-04
    0.36074706989905103204E-04
    0.37552823397889376869E-04
    0.40220102495429560854E-04
    0.40220102494110866081E-04
    0.66372336919827317815E-04
    0.69465509812703419039E-04
    0.81573060872174515414E-04
    0.82557432888217069052E-04
    0.71195466294147620435E-04
    0.70370015393089396598E-04
    0.59584140177592756699E-04
    0.56265065638234740243E-04
    0.47766499198660527126E-04
    0.47076510257367840215E-04
    0.54758980218903502489E-04
    0.55986173484961777305E-04
    0.62048698107161501464E-04
    0.62522363127847746349E-04
    0.70370015458078860062E-04
    0.71195466350031371295E-04
    0.82557432952397893878E-04
    0.81573060925032054723E-04
    0.69465509848506512385E-04
    0.66372336939401097261E-04
    0.55986173490566824710E-04
    0.54758980238420530728E-04
    0.47076510273798009344E-04
    0.47766499223871771622E-04
    0.56265065679196128712E-04
    0.59584140236623607653E-04
    0.62522363168617854450E-04
    0.62048698141883469061E-04
    0.10355220006383001870E-03
    0.10672843249384585682E-03
    0.12524967028175912581E-03
    0.12524967027045566764E-03
    0.10672843247275573932E-03
    0.10355220001565979709E-03
    0.86834874306400541485E-04
    0.83343459665503812376E-04
    0.70624019120300090212E-04
    0.70624019130283789735E-04
    0.83343459687041746031E-04
    0.86834874358327103494E-04
    0.94045376736176663438E-04
    0.94045376730032299991E-04
    0.57114665912868964022E-04
    0.63084426324708521550E-04
    0.73189638119090357697E-04
    0.77269565907620049012E-04
    0.70900913784069166126E-04
    0.75555849049747708570E-04
    0.67682626799062285813E-04
    0.60133220650261396734E-04
    0.52260107438404626492E-04
    0.48637743729407549814E-04
    0.52673220525035978324E-04
    0.49903445064598849542E-04
    0.59952131675944200816E-04
    0.62188036230692364113E-04
    0.96095992018561081360E-04
    0.10641412759465122243E-03
    0.12380982021574011469E-03
    0.13077007650581499889E-03
    0.11977480134224369613E-03
    0.12761472099975885368E-03
    0.11419911214675741143E-03
    0.10133763360132972331E-03
    0.87863323431533043250E-04
    0.81657003106735430637E-04
    0.88544877051855889289E-04
    0.83719649513265304323E-04
    0.10104112805129758978E-03
    0.10487169088385405239E-03
    0.73869081339976211311E-04
    0.79652376148693670218E-04
    0.93765737360916609033E-04
    0.96914537783314666530E-04
    0.85420626140542685930E-04
    0.87344946820239855552E-04
    0.75367706753045639323E-04
    0.69001314980196261839E-04
    0.58761270761516406623E-04
    0.56262880484927878428E-04
    0.63737690624075698837E-04
    0.62811389712814000015E-04
    0.72893521507016751249E-04
    0.74508022679075752151E-04
    0.12390335715640001836E-03
    0.13441287674158461916E-03
    0.15891418379115131469E-03
    0.16463425092759571464E-03
    0.14481082889129071956E-03
    0.14820757399530546826E-03
    0.12756887180978492241E-03
    0.11650381936049485011E-03
    0.98870109366966336733E-04
    0.94408120089340782813E-04
    0.10707452750587219284E-03
    0.10502915640008343614E-03
    0.12296855945985422248E-03
    0.12587026879409154404E-03
    0.16303999310481962089E-03
    0.18040223410737167022E-03
    0.21001826463967504955E-03
    0.22134953901526435932E-03
    0.20239464086180915031E-03
    0.21508618072563808876E-03
    0.19261339401325833394E-03
    0.17114151833118781943E-03
    0.14844640597352090844E-03
    0.13797955255823141736E-03
    0.14980388016179951123E-03
    0.14178251151520326022E-03
    0.17096675039390211558E-03
    0.17731203833786936372E-03
    0.27620298506599960491E-03
    0.30420948093356982474E-03
    0.35385615281874175948E-03
    0.37119400181191355851E-03
    0.33868902690677854528E-03
    0.35813375467002163226E-03
    0.32152113961114703843E-03
    0.28675973063688918940E-03
    0.24938159351651454374E-03
    0.23227467627689280883E-03
    0.25242246132695182184E-03
    0.23980854320952582777E-03
    0.28748095760031605128E-03
    0.29755912870387403023E-03
    0.21170852682604319843E-03
    0.23006673790361661697E-03
    0.27294997190346518374E-03
    0.28254707334365766194E-03
    0.24750177087065958334E-03
    0.25246484170449780835E-03
    0.21679208884160390785E-03
    0.19827100716883312649E-03
    0.16792324361163466070E-03
    0.16037415241999493972E-03
    0.18237281076243847650E-03
    0.17880869849655714357E-03
    0.20993453467070606502E-03
    0.21481692635280622851E-03
    0.36506624470886725551E-03
    0.39570933474707007185E-03
    0.47052341808996621993E-03
    0.48500054221696807305E-03
    0.42242389180591899270E-03
    0.42770587915306465055E-03
    0.36640199275869716642E-03
    0.33687082508401165705E-03
    0.28514921360262089189E-03
    0.27313891459083896197E-03
    0.31198924371659680086E-03
    0.30709101159484336260E-03
    0.35924242429109852579E-03
    0.36679916215570787042E-03
    0.10588685931096719986E-03
    0.11237897553952929861E-03
    0.13295810811654663647E-03
    0.13568309106045027220E-03
    0.11706475434354773923E-03
    0.11673437001545460695E-03
    0.98479695147546896482E-04
    0.92013136794360969291E-04
    0.77497659152110098270E-04
    0.75686134796813651264E-04
    0.88031758525304590400E-04
    0.88908561076548919865E-04
    0.10069994510758560960E-03
    0.10196623893532679795E-03
    0.17549647367353372039E-03
    0.18817966267019781059E-03
    0.22401015078475297474E-03
    0.22994601920134751308E-03
    0.19818107525807079038E-03
    0.19853535510493312507E-03
    0.16688971182200420694E-03
    0.15503139435609297422E-03
    0.12984127278234784968E-03
    0.12610273297194166597E-03
    0.14670912745832578893E-03
    0.14689029490731124288E-03
    0.16895607609801463543E-03
    0.17163776658527939590E-03
    0.16087891446270416885E-03
    0.16838497470483251763E-03
    0.19905019700586494991E-03
    0.20114098441896533214E-03
    0.17183118371806241223E-03
    0.16878873214254072350E-03
    0.14109214910390014915E-03
    0.13365438773811606039E-03
    0.11226394592186392804E-03
    0.11103304930520463238E-03
    0.13086054990168880440E-03
    0.13438019477410650883E-03
    0.14918328473379106761E-03
    0.15009590555658524898E-03
    0.26029649276932927734E-03
    0.27630046378742344464E-03
    0.32870758369216829774E-03
    0.33540683169322287049E-03
    0.28704058751039039730E-03
    0.28480214654768968869E-03
    0.23725716901178671176E-03
    0.22239998090488324813E-03
    0.18556349026841348457E-03
    0.18197411874008989348E-03
    0.21402336424165979028E-03
    0.21707625755063077199E-03
    0.24597967991357678553E-03
    0.24877759684940008297E-03
    0.29973022553645285422E-03
    0.32354580733502674586E-03
    0.38725583766783719906E-03
    0.39857526835160701989E-03
    0.34236527341503558610E-03
    0.34302020200662321301E-03
    0.28714229496569829278E-03
    0.26623881454725204388E-03
    0.22199369144574636272E-03
    0.21508618684246082176E-03
    0.25074759288470059321E-03
    0.24993018224317258003E-03
    0.29020327560476540888E-03
    0.29522614076832933436E-03
    0.52343966846313337137E-03
    0.56632540843530967175E-03
    0.68100636329619234233E-03
    0.70019303183893404595E-03
    0.59804707867968959645E-03
    0.59628502431444520629E-03
    0.49679254459495791191E-03
    0.46182273969745294513E-03
    0.38374171178118401211E-03
    0.37218132432434956891E-03
    0.43583021196724698381E-03
    0.43441215603245937399E-03
    0.50603115803690050870E-03
    0.51448234617994302673E-03
    0.43767193157912627662E-03
    0.47053361539772618890E-03
    0.56370476499339149112E-03
    0.57950649149691080188E-03
    0.49554583727069256936E-03
    0.49457214387573639192E-03
    0.41015938765674730699E-03
    0.38182209963365612050E-03
    0.31654098644552392666E-03
    0.30848859574054754212E-03
    0.36268658415543032986E-03
    0.36403883852154176595E-03
    0.42007440721307835133E-03
    0.42653935027486914464E-03
    0.76310301562958746981E-03
    0.82767835122028916590E-03
    0.99825984032967307255E-03
    0.10301320233377243406E-02
    0.87758848048273270341E-03
    0.87630479202675120882E-03
    0.72285173805817593082E-03
    0.67122443698730148345E-03
    0.55326371027665207421E-03
    0.53761109617870271073E-03
    0.63360679645811299448E-03
    0.63208413630281938805E-03
    0.73847519966444648189E-03
    0.75129805175236439967E-03
    0.75555849197452351683E-04
    0.70900913913919357597E-04
    0.77269566047489637362E-04
    0.73189638244735186440E-04
    0.63084426425339423816E-04
    0.57114665991132267250E-04
    0.49903445124040992590E-04
    0.52673220600988799288E-04
    0.48637743798917946602E-04
    0.52260107521272122994E-04
    0.60133220758787892901E-04
    0.67682626939500226495E-04
    0.62188036337869773964E-04
    0.59952131774083525174E-04
    0.87344946971515399835E-04
    0.85420626284792207112E-04
    0.96914537953949941645E-04
    0.93765737522595168029E-04
    0.79652376269990780486E-04
    0.73869081434709406124E-04
    0.62811389779805090424E-04
    0.63737690705456035876E-04
    0.56262880551911928300E-04
    0.58761270841389397711E-04
    0.69001315086667286869E-04
    0.75367706880277794256E-04
    0.74508022794891163340E-04
    0.72893521615756564193E-04
    0.12761472133032160641E-03
    0.11977480163891571197E-03
    0.13077007682817728008E-03
    0.12380982050977840016E-03
    0.10641412783554144307E-03
    0.96095992215929068657E-04
    0.83719649669208704877E-04
    0.88544877238424504664E-04
    0.81657003277320967978E-04
    0.87863323628574617930E-04
    0.10133763385023107314E-03
    0.11419911245699614392E-03
    0.10487169113341255071E-03
    0.10104112828338070065E-03
    0.14820757435130485079E-03
    0.14481082923745928863E-03
    0.16463425133433760199E-03
    0.15891418418277980323E-03
    0.13441287704529734904E-03
    0.12390335740963904425E-03
    0.10502915659038653169E-03
    0.10707452771975264699E-03
    0.94408120268390144413E-04
    0.98870109569456013777E-04
    0.11650381962061693349E-03
    0.12756887211115989556E-03
    0.12587026907861085970E-03
    0.12296855973156423157E-03
    0.11673437021578429577E-03
    0.11706475453077781279E-03
    0.13568309127982803794E-03
    0.13295810831629213005E-03
    0.11237897568996136071E-03
    0.10588685942775622460E-03
    0.88908561153342282116E-04
    0.88031758624498233608E-04
    0.75686134879006272571E-04
    0.77497659250488895783E-04
    0.92013136932540367770E-04
    0.98479695320777588968E-04
    0.10196623908312232431E-03
    0.10069994524445918143E-03
    0.16878873237220824548E-03
    0.17183118390627500336E-03
    0.20114098462465482861E-03
    0.19905019716833768700E-03
    0.16838497481969216395E-03
    0.16087891452118421799E-03
    0.13438019479950844416E-03
    0.13086054997554931846E-03
    0.11103304937762745370E-03
    0.11226394602955810931E-03
    0.13365438788726482014E-03
    0.14109214931009081808E-03
    0.15009590569781743551E-03
    0.14918328485300088541E-03
    0.19853535559666261206E-03
    0.19818107573147322200E-03
    0.22994601976181487570E-03
    0.22401015130726561770E-03
    0.18817966308064558228E-03
    0.17549647401841715752E-03
    0.14689029515862621648E-03
    0.14670912774383376145E-03
    0.12610273320882647787E-03
    0.12984127304796678386E-03
    0.15503139470957852560E-03
    0.16688971224040362578E-03
    0.17163776697195687521E-03
    0.16895607646520859513E-03
    0.28480214718012010315E-03
    0.28704058808581541309E-03
    0.33540683234428204668E-03
    0.32870758427648171136E-03
    0.27630046423673097376E-03
    0.26029649311504248150E-03
    0.21707625779339214940E-03
    0.21402336456011802207E-03
    0.18197411902120858192E-03
    0.18556349061082681100E-03
    0.22239998135026734774E-03
    0.23725716956321724928E-03
    0.24877759731049923228E-03
    0.24597968033790792866E-03
    0.21508618141009386315E-03
    0.20239464148565306303E-03
    0.22134953969406561281E-03
    0.21001826526957095170E-03
    0.18040223462820081826E-03
    0.16303999354537796374E-03
    0.14178251187008607715E-03
    0.14980388057169233404E-03
    0.13797955293301411464E-03
    0.14844640639851186992E-03
    0.17114151885604158014E-03
    0.19261339465195595195E-03
    0.17731203886840789458E-03
    0.17096675089251438901E-03
    0.25246484246913252891E-03
    0.24750177162032884447E-03
    0.28254707422743508818E-03
    0.27294997275536207878E-03
    0.23006673858020802248E-03
    0.21170852740790018940E-03
    0.17880869894723743527E-03
    0.18237281125032330127E-03
    0.16037415283194075355E-03
    0.16792324406413931229E-03
    0.19827100773927826619E-03
    0.21679208948828374752E-03
    0.21481692697913396710E-03
    0.20993453527405411146E-03
    0.35813375600025605747E-03
    0.33868902814649520794E-03
    0.37119400318142532161E-03
    0.35385615409009256839E-03
    0.30420948199263021620E-03
    0.27620298597709811274E-03
    0.23980854395474349031E-03
    0.25242246216629013206E-03
    0.23227467704428885679E-03
    0.24938159437484563657E-03
    0.28675973167863416744E-03
    0.32152114085293658722E-03
    0.29755912976632369190E-03
    0.28748095860652131579E-03
    0.42770588068100822083E-03
    0.42242389333593685858E-03
    0.48500054403243327743E-03
    0.47052341984561078629E-03
    0.39570933615261198735E-03
    0.36506624594510563497E-03
    0.30709101256234011589E-03
    0.31198924474452747113E-03
    0.27313891545894695631E-03
    0.28514921454416417620E-03
    0.33687082625353495687E-03
    0.36640199406527348708E-03
    0.36679916344535258522E-03
    0.35924242554193579592E-03
    0.34302020308410007942E-03
    0.34236527447508704677E-03
    0.39857526960443006052E-03
    0.38725583886295065171E-03
    0.32354580828639029977E-03
    0.29973022636874900029E-03
    0.24993018286922967465E-03
    0.25074759356394750801E-03
    0.21508618740596994068E-03
    0.22199369206093411372E-03
    0.26623881534252349891E-03
    0.28714229588156327862E-03
    0.29522614164743856552E-03
    0.29020327645108327059E-03
    0.49457214535105690871E-03
    0.49554583866212847248E-03
    0.57950649310478750259E-03
    0.56370476647704898052E-03
    0.47053361657855891000E-03
    0.43767193256333817479E-03
    0.36403883926550123897E-03
    0.36268658501205998422E-03
    0.30848859648318493901E-03
    0.31654098728768484882E-03
    0.38182210070707031874E-03
    0.41015938891960637344E-03