# vtk DataFile Version 3.0
LAPLACIEN  2D
ASCII
DATASET UNSTRUCTURED_GRID
 POINTS        7297  float
   1.5625000000000000E-002  0.96875000000000000        0.0000000000000000     
   3.1250000000000000E-002  0.96875000000000000        0.0000000000000000     
   3.1250000000000000E-002  0.98437500000000000        0.0000000000000000     
   9.3749999999999997E-003  0.97812500000000002        0.0000000000000000     
   2.0312500000000001E-002  0.97968750000000004        0.0000000000000000     
   2.1874999999999999E-002  0.99062499999999998        0.0000000000000000     
   1.0937499999999999E-002  0.98906249999999996        0.0000000000000000     
   4.6875000000000000E-002  0.96875000000000000        0.0000000000000000     
   6.2500000000000000E-002  0.96875000000000000        0.0000000000000000     
   6.2500000000000000E-002  0.98437500000000000        0.0000000000000000     
   4.0625000000000001E-002  0.97812500000000002        0.0000000000000000     
   5.1562499999999997E-002  0.97968750000000004        0.0000000000000000     
   5.3124999999999999E-002  0.99062499999999998        0.0000000000000000     
   4.2187500000000003E-002  0.98906249999999996        0.0000000000000000     
   1.5625000000000000E-002  0.93750000000000000        0.0000000000000000     
   3.1250000000000000E-002  0.93750000000000000        0.0000000000000000     
   3.1250000000000000E-002  0.95312500000000000        0.0000000000000000     
   9.3749999999999997E-003  0.94687500000000002        0.0000000000000000     
   2.0312500000000001E-002  0.94843750000000004        0.0000000000000000     
   2.1874999999999999E-002  0.95937499999999998        0.0000000000000000     
   1.0937499999999999E-002  0.95781249999999996        0.0000000000000000     
   4.6875000000000000E-002  0.93750000000000000        0.0000000000000000     
   6.2500000000000000E-002  0.93750000000000000        0.0000000000000000     
   6.2500000000000000E-002  0.95312500000000000        0.0000000000000000     
   4.0625000000000001E-002  0.94687500000000002        0.0000000000000000     
   5.1562499999999997E-002  0.94843750000000004        0.0000000000000000     
   5.3124999999999999E-002  0.95937499999999998        0.0000000000000000     
   4.2187500000000003E-002  0.95781249999999996        0.0000000000000000     
   7.8125000000000000E-002  0.96875000000000000        0.0000000000000000     
   9.3750000000000000E-002  0.96875000000000000        0.0000000000000000     
   9.3750000000000000E-002  0.98437500000000000        0.0000000000000000     
   7.1874999999999994E-002  0.97812500000000002        0.0000000000000000     
   8.2812499999999997E-002  0.97968750000000004        0.0000000000000000     
   8.4375000000000006E-002  0.99062499999999998        0.0000000000000000     
   7.3437500000000003E-002  0.98906249999999996        0.0000000000000000     
  0.10937500000000000       0.96875000000000000        0.0000000000000000     
  0.12500000000000000       0.96875000000000000        0.0000000000000000     
  0.12500000000000000       0.98437500000000000        0.0000000000000000     
  0.10312499999999999       0.97812500000000002        0.0000000000000000     
  0.11406250000000000       0.97968750000000004        0.0000000000000000     
  0.11562500000000001       0.99062499999999998        0.0000000000000000     
  0.10468750000000000       0.98906249999999996        0.0000000000000000     
   7.8125000000000000E-002  0.93750000000000000        0.0000000000000000     
   9.3750000000000000E-002  0.93750000000000000        0.0000000000000000     
   9.3750000000000000E-002  0.95312500000000000        0.0000000000000000     
   7.1874999999999994E-002  0.94687500000000002        0.0000000000000000     
   8.2812499999999997E-002  0.94843750000000004        0.0000000000000000     
   8.4375000000000006E-002  0.95937499999999998        0.0000000000000000     
   7.3437500000000003E-002  0.95781249999999996        0.0000000000000000     
  0.10937500000000000       0.93750000000000000        0.0000000000000000     
  0.12500000000000000       0.93750000000000000        0.0000000000000000     
  0.12500000000000000       0.95312500000000000        0.0000000000000000     
  0.10312499999999999       0.94687500000000002        0.0000000000000000     
  0.11406250000000000       0.94843750000000004        0.0000000000000000     
  0.11562500000000001       0.95937499999999998        0.0000000000000000     
  0.10468750000000000       0.95781249999999996        0.0000000000000000     
   1.5625000000000000E-002  0.90625000000000000        0.0000000000000000     
   3.1250000000000000E-002  0.90625000000000000        0.0000000000000000     
   3.1250000000000000E-002  0.92187500000000000        0.0000000000000000     
   9.3749999999999997E-003  0.91562500000000002        0.0000000000000000     
   2.0312500000000001E-002  0.91718750000000004        0.0000000000000000     
   2.1874999999999999E-002  0.92812499999999998        0.0000000000000000     
   1.0937499999999999E-002  0.92656249999999996        0.0000000000000000     
   4.6875000000000000E-002  0.90625000000000000        0.0000000000000000     
   6.2500000000000000E-002  0.90625000000000000        0.0000000000000000     
   6.2500000000000000E-002  0.92187500000000000        0.0000000000000000     
   4.0625000000000001E-002  0.91562500000000002        0.0000000000000000     
   5.1562499999999997E-002  0.91718750000000004        0.0000000000000000     
   5.3124999999999999E-002  0.92812499999999998        0.0000000000000000     
   4.2187500000000003E-002  0.92656249999999996        0.0000000000000000     
   1.5625000000000000E-002  0.87500000000000000        0.0000000000000000     
   3.1250000000000000E-002  0.87500000000000000        0.0000000000000000     
   3.1250000000000000E-002  0.89062500000000000        0.0000000000000000     
   9.3749999999999997E-003  0.88437500000000002        0.0000000000000000     
   2.0312500000000001E-002  0.88593750000000004        0.0000000000000000     
   2.1874999999999999E-002  0.89687499999999998        0.0000000000000000     
   1.0937499999999999E-002  0.89531249999999996        0.0000000000000000     
   4.6875000000000000E-002  0.87500000000000000        0.0000000000000000     
   6.2500000000000000E-002  0.87500000000000000        0.0000000000000000     
   6.2500000000000000E-002  0.89062500000000000        0.0000000000000000     
   4.0625000000000001E-002  0.88437500000000002        0.0000000000000000     
   5.1562499999999997E-002  0.88593750000000004        0.0000000000000000     
   5.3124999999999999E-002  0.89687499999999998        0.0000000000000000     
   4.2187500000000003E-002  0.89531249999999996        0.0000000000000000     
   7.8125000000000000E-002  0.90625000000000000        0.0000000000000000     
   9.3750000000000000E-002  0.90625000000000000        0.0000000000000000     
   9.3750000000000000E-002  0.92187500000000000        0.0000000000000000     
   7.1874999999999994E-002  0.91562500000000002        0.0000000000000000     
   8.2812499999999997E-002  0.91718750000000004        0.0000000000000000     
   8.4375000000000006E-002  0.92812499999999998        0.0000000000000000     
   7.3437500000000003E-002  0.92656249999999996        0.0000000000000000     
  0.10937500000000000       0.90625000000000000        0.0000000000000000     
  0.12500000000000000       0.90625000000000000        0.0000000000000000     
  0.12500000000000000       0.92187500000000000        0.0000000000000000     
  0.10312499999999999       0.91562500000000002        0.0000000000000000     
  0.11406250000000000       0.91718750000000004        0.0000000000000000     
  0.11562500000000001       0.92812499999999998        0.0000000000000000     
  0.10468750000000000       0.92656249999999996        0.0000000000000000     
   7.8125000000000000E-002  0.87500000000000000        0.0000000000000000     
   9.3750000000000000E-002  0.87500000000000000        0.0000000000000000     
   9.3750000000000000E-002  0.89062500000000000        0.0000000000000000     
   7.1874999999999994E-002  0.88437500000000002        0.0000000000000000     
   8.2812499999999997E-002  0.88593750000000004        0.0000000000000000     
   8.4375000000000006E-002  0.89687499999999998        0.0000000000000000     
   7.3437500000000003E-002  0.89531249999999996        0.0000000000000000     
  0.10937500000000000       0.87500000000000000        0.0000000000000000     
  0.12500000000000000       0.87500000000000000        0.0000000000000000     
  0.12500000000000000       0.89062500000000000        0.0000000000000000     
  0.10312499999999999       0.88437500000000002        0.0000000000000000     
  0.11406250000000000       0.88593750000000004        0.0000000000000000     
  0.11562500000000001       0.89687499999999998        0.0000000000000000     
  0.10468750000000000       0.89531249999999996        0.0000000000000000     
  0.14062500000000000       0.96875000000000000        0.0000000000000000     
  0.15625000000000000       0.96875000000000000        0.0000000000000000     
  0.15625000000000000       0.98437500000000000        0.0000000000000000     
  0.13437499999999999       0.97812500000000002        0.0000000000000000     
  0.14531250000000001       0.97968750000000004        0.0000000000000000     
  0.14687500000000001       0.99062499999999998        0.0000000000000000     
  0.13593749999999999       0.98906249999999996        0.0000000000000000     
  0.17187500000000000       0.96875000000000000        0.0000000000000000     
  0.18750000000000000       0.96875000000000000        0.0000000000000000     
  0.18750000000000000       0.98437500000000000        0.0000000000000000     
  0.16562499999999999       0.97812500000000002        0.0000000000000000     
  0.17656250000000001       0.97968750000000004        0.0000000000000000     
  0.17812500000000001       0.99062499999999998        0.0000000000000000     
[...]
 CELL_DATA       14336
 SCALARS Nutrients float
 LOOKUP_TABLE default
    0.11734254447967878361E-04
    0.11641871818144986972E-04
    0.12303304313114255729E-04
    0.12303304312381699285E-04
    0.11641871816557508316E-04
    0.11734254444162028886E-04
    0.11204976676471804092E-04
    0.10894865598955098690E-04
    0.10561038225525324160E-04
    0.10561038225925193168E-04
    0.10894865600772433290E-04
    0.11204976681349273913E-04
    0.11155344924207398201E-04
    0.11155344923704131881E-04
    0.13890632173167537363E-04
    0.14466182672174221458E-04
    0.16029606356790100890E-04
    0.16459505142008276293E-04
    0.15291125203754343044E-04
    0.15859871177621559898E-04
    0.14627948414235342837E-04
    0.13605690961287849488E-04
    0.12529082336313637997E-04
    0.12133481107588804928E-04
    0.12812437276672286284E-04
    0.12724620137382838345E-04
    0.13779192498636800039E-04
    0.14015384746809285806E-04
    0.15859871187210430258E-04
    0.15291125210165128846E-04
    0.16459505146468585775E-04
    0.16029606360259679980E-04
    0.14466182675358067535E-04
    0.13890632174530936842E-04
    0.12724620138823358479E-04
    0.12812437280100902860E-04
    0.12133481111739476433E-04
    0.12529082341545577553E-04
    0.13605690968405785828E-04
    0.14627948425306883386E-04
    0.14015384752343961714E-04
    0.13779192503140767293E-04
    0.18740954957639224202E-04
    0.18989872278377201235E-04
    0.21425514838350868079E-04
    0.21425514838480308265E-04
    0.18989872277322821398E-04
    0.18740954954450477193E-04
    0.16579735489227377670E-04
    0.15963771341775976687E-04
    0.14355289653431083086E-04
    0.14355289654080428708E-04
    0.15963771343002314376E-04
    0.16579735492143434281E-04
    0.17287967763285760501E-04
    0.17287967762959893374E-04
    0.19654534814422706609E-04
    0.21203620676529808718E-04
    0.24238016527113252736E-04
    0.25365389471242747664E-04
    0.23357162016104999927E-04
    0.24713839551464697128E-04
    0.22318694345741038208E-04
    0.20095382287124478827E-04
    0.17798783035983294429E-04
    0.16816459446798256885E-04
    0.18052973147291481710E-04
    0.17459613949438783581E-04
    0.20141291346181493244E-04
    0.20756687665881007733E-04
    0.31148988960462398699E-04
    0.34262668026937815019E-04
    0.39617118974868087780E-04
    0.41788779520739997473E-04
    0.38403782967139871792E-04
    0.40904409571951440934E-04
    0.36676112684470931781E-04
    0.32655652589004155147E-04
    0.28474309243836181635E-04
    0.26573829451654968020E-04
    0.28725722130874930524E-04
    0.27309399479557166536E-04
    0.32578939763490379815E-04
    0.33760907976586294085E-04
    0.26286982544122027217E-04
    0.27497805078237333090E-04
    0.31768277498280089971E-04
    0.32335823740091431907E-04
    0.28538346216466835368E-04
    0.28752910286710319995E-04
    0.25011599236687104378E-04
    0.23361234504261595813E-04
    0.20298293076976191908E-04
    0.19838026657128051983E-04
    0.22401606601661626405E-04
    0.22689202237724280856E-04
    0.25036123870688678733E-04
    0.25327612420250034098E-04
    0.40572872747497247591E-04
    0.43350495715980332271E-04
    0.50696223465966350197E-04
    0.52206834735595669097E-04
    0.46126579791756446881E-04
    0.47082046667766555494E-04
    0.40772266035062809848E-04
    0.37458765944361178762E-04
    0.32064191352314761212E-04
    0.30848142093540858923E-04
    0.34909671640643113294E-04
    0.34687310749260072830E-04
    0.39657453028612504409E-04
    0.40436066886272206938E-04
    0.24713839570548332489E-04
    0.23357162031664212509E-04
    0.25365389486208864389E-04
    0.24238016539527011857E-04
    0.21203620686693357053E-04
    0.19654534820886259176E-04
    0.17459613953839048592E-04
    0.18052973156126001468E-04
    0.16816459456971664683E-04
    0.17798783047866309482E-04
    0.20095382302235295885E-04
    0.22318694366845805990E-04
    0.20756687679061565453E-04
    0.20141291357678511994E-04
    0.28752910299165393995E-04
    0.28538346227298086222E-04
    0.32335823752511577657E-04
    0.31768277509396787540E-04
    0.27497805084847344430E-04
    0.26286982546012638637E-04
    0.22689202237001592345E-04
    0.22401606605165645854E-04
    0.19838026661311486724E-04
    0.20298293082992053681E-04
    0.23361234512648526422E-04
    0.25011599248150878779E-04
    0.25327612428194552622E-04
    0.25036123877327502745E-04
    0.40904409626912142722E-04
    0.38403783013970622603E-04
    0.41788779570095828039E-04
    0.39617119018069356623E-04
    0.34262668060489366042E-04
    0.31148988984275828768E-04
    0.27309399496475138551E-04
    0.28725722155779257714E-04
    0.26573829475050221311E-04
    0.28474309272880826200E-04
    0.32655652628638547920E-04
    0.36676112738434357306E-04
    0.33760908014474240446E-04
    0.32578939797337172642E-04
    0.47082046718466410507E-04
    0.46126579838392976426E-04
    0.52206834790974737399E-04
    0.50696223517069813021E-04
    0.43350495751793752643E-04
    0.40572872771180410769E-04
    0.34687310763560394553E-04
    0.34909671662470569587E-04
    0.30848142111365108758E-04
    0.32064191375916189098E-04
    0.37458765977987363552E-04
    0.40772266077592761034E-04
    0.40436066922089760830E-04
    0.39657453061129374194E-04
    0.39282408823334988507E-04
    0.40228491428932596971E-04
    0.46570581958139118501E-04
    0.46570581955629895203E-04
    0.40228491424868702297E-04
    0.39282408814210858020E-04
    0.33506014795734943683E-04
    0.32168964166977506995E-04
    0.27737038772602057654E-04
    0.27737038773927704874E-04
    0.32168964171540561574E-04
    0.33506014807636312245E-04
    0.35831888726636773861E-04
    0.35831888725379336510E-04
    0.58876224388089594538E-04
    0.61660805712727075772E-04
    0.72328947518362886131E-04
    0.73312524283684560116E-04
    0.63372689367662335532E-04
    0.62825320528987435055E-04
    0.53265872963422163414E-04
    0.50190141961550051352E-04
    0.42628051558592247139E-04
    0.41959644852599055798E-04
    0.48718056978135334590E-04
    0.49746186634882801731E-04
    0.55186770689617392768E-04
    0.55652824363406701747E-04
    0.62825320589529026869E-04
    0.63372689419549934025E-04
    0.73312524343030032988E-04
    0.72328947567042736972E-04
    0.61660805745772446682E-04
    0.58876224406004185519E-04
    0.49746186640294427469E-04
    0.48718056996408112087E-04
    0.41959644868171980150E-04
    0.42628051582323941916E-04
    0.50190141999678954869E-04
    0.53265873018217307531E-04
    0.55652824401281332750E-04
    0.55186770721860542162E-04
    0.91511091779224572481E-04
    0.94171133872928737291E-04
    0.11027522150951908468E-03
    0.11027522149903648953E-03
    0.94171133853393460575E-04
    0.91511091734608894141E-04
    0.76888818274789479416E-04
    0.73749222457648549284E-04
    0.62595472119800983136E-04
    0.62595472128947814107E-04
    0.73749222477420236285E-04
    0.76888818322409915656E-04
    0.83082827201471439078E-04
    0.83082827195806862198E-04
    0.51757626635228928369E-04
    0.57348067192065883347E-04
    0.66618696915006381134E-04
    0.70501734774343225104E-04
    0.64723629232742662352E-04
    0.69133638915296947471E-04
    0.61840307542866055886E-04
    0.54819823552564432849E-04
    0.47546191627193830744E-04
    0.44185701276551407721E-04
    0.47850739504553056714E-04
    0.45218541305323887818E-04
    0.54563813815509467373E-04
    0.56663320488912287376E-04
    0.87811154183307915926E-04
    0.97576496711133814681E-04
    0.11369499278924832537E-03
    0.12038785564035808383E-03
    0.11031138760032016121E-03
    0.11780925844174791140E-03
    0.10526478691851014495E-03
    0.93191353462339078474E-04
    0.80624625841559991834E-04
    0.74812089931005121865E-04
    0.81122192370985338888E-04
    0.76486771165956178651E-04
    0.92758562865720336479E-04
    0.96391535558758994779E-04
    0.66264148216545496958E-04
    0.71698686578487521204E-04
    0.84437577673444810106E-04
    0.87541347595236049294E-04
    0.77325186305085056681E-04
    0.79384237557773119432E-04
    0.68512193662442254032E-04
    0.62513035663347833694E-04
    0.53184400585758125112E-04
    0.50798871301590973115E-04
    0.57443348334178984430E-04
    0.56408289578883678210E-04
    0.65783041440406597581E-04
    0.67348424341161661905E-04
    0.11194239080296086762E-03
    0.12196394052865838439E-03
    0.14432065064576919656E-03
    0.15003419761767621790E-03
    0.13224096974543862130E-03
    0.13591866622334733200E-03
    0.11699357328922354378E-03
    0.10644969460892557737E-03
    0.90226808984262161172E-04
    0.85913284647499244895E-04
    0.97251111235328437728E-04
    0.94985223091920289334E-04
    0.11188418062387715758E-03
    0.11473442315496400689E-03
    0.15035361315818911404E-03
    0.16694273600420983690E-03
    0.19465229692639511192E-03
    0.20564447935575143420E-03
    0.18808879850431810613E-03
    0.20032610634122436592E-03
    0.17912744686604428453E-03
    0.15879596186406738515E-03
    0.13743882722768628818E-03
    0.12754660186669865242E-03
    0.13848676319932960960E-03
    0.13070681251451741057E-03
    0.15837767830479218155E-03
    0.16444842468111824248E-03
    0.25707709620871604808E-03
    0.28405132789826426738E-03
    0.33091930869882582719E-03
    0.34786711650191913655E-03
    0.31745043881230679489E-03
    0.33633002537871331842E-03
    0.30152860582288167849E-03
    0.26836535265147530571E-03
    0.23290584338755412419E-03
    0.21661005370248592738E-03
    0.23543431490912711821E-03
    0.22309706895718372198E-03
    0.26866281132403608146E-03
    0.27837678992011032596E-03
    0.19309233029754478152E-03
    0.21081295326735031070E-03
    0.25041948788342776547E-03
    0.26011903015886711065E-03
    0.22824423224036550746E-03
    0.23376158431098528474E-03
    0.20069285797445242511E-03
    0.18287396491646189939E-03
    0.15466091503843978103E-03
    0.14728416349574634139E-03
    0.16719302498843536262E-03
    0.16319261714156077427E-03
    0.19285411991026325806E-03
    0.19770411463218193725E-03
    0.33652828757727530759E-03
    0.36640223870255722496E-03
    0.43631168214075478819E-03
    0.45113294669094230289E-03
    0.39341877332442904943E-03
    0.39974195364854756126E-03
    0.34231653394052862513E-03
    0.31367544257612285262E-03
    0.26511220678591360675E-03
    0.25326504645538193547E-03
    0.28888522329160911664E-03
    0.28316083523037061716E-03
    0.33333988641569219135E-03
    0.34092754340783103196E-03
    0.93870058354877890022E-04
    0.99889831582118316007E-04
    0.11812970901545712435E-03
    0.12090052314111901803E-03
    0.10461247331260228085E-03
    0.10478461744150348875E-03
    0.88506337300888130305E-04
    0.82399991151979820885E-04
    0.69398446998631077597E-04
    0.67610826962701873577E-04
    0.78435285862299343896E-04
    0.78967151438897803593E-04
    0.89772684814970457926E-04
    0.91041977192006360740E-04
    0.15624770591383184784E-03
    0.16827448677606148442E-03
    0.20039172943182701923E-03
    0.20650422830764556198E-03
    0.17849823060668175141E-03
    0.17976544868698009151E-03
    0.15124358191171690747E-03
    0.13987063072322907095E-03
    0.11706798307964352455E-03
    0.11332029137833342749E-03
    0.13145521431814802087E-03
    0.13100429665886456892E-03
    0.15160964698123399991E-03
    0.15433750573476780806E-03
    0.14122196534881937733E-03
    0.14792197372263227824E-03
    0.17460134347683573647E-03
    0.17676740705527925067E-03
    0.15147266599385429253E-03
    0.14936279898019200890E-03
    0.12509277996864795099E-03
    0.11817733777360412068E-03
    0.99357218720335223295E-04
    0.98109321611672371268E-04
    0.11532389052756838760E-03
    0.11823242482698514326E-03
    0.13139503651993822181E-03
    0.13233166130857923113E-03
    0.22826283157705170267E-03
    0.24311903957445303646E-03
    0.28909749069498918549E-03
    0.29609021484619865846E-03
    0.25429515557663857125E-03
    0.25374780986869458974E-03
    0.21170530800836739383E-03
    0.19755195552920081382E-03
    0.16483476578871346201E-03
    0.16114106899047715726E-03
    0.18888471310295453713E-03
    0.19081341530283933662E-03
    0.21724263564473766941E-03
    0.22014696516892972591E-03
    0.26923616888334747383E-03
    0.29220985075107400652E-03
    0.35014263464246933762E-03
    0.36192244590695110164E-03
    0.31167329972840008114E-03
    0.31395200140862765522E-03
    0.26292094665404945782E-03
    0.24261907783933492865E-03
    0.20206062720126341916E-03
    0.19504526970329718488E-03
    0.22675605108405888044E-03
    0.22478644152600684900E-03
    0.26299744433632923522E-03
    0.26816914292028895279E-03
    0.47586029355796861115E-03
    0.51776657806855744780E-03
    0.62363137646215260901E-03
    0.64382676572493225797E-03
    0.55096856669620589923E-03
    0.55202036413048570940E-03
    0.45991115822522184641E-03
    0.42560335670213851351E-03
    0.35310377866542462999E-03
    0.34121789713514020679E-03
    0.39865927456084204478E-03
    0.39519216008370312279E-03
    0.46402591439008872851E-03
    0.47283331355916857026E-03
    0.38606168834859154850E-03
    0.41740483270009183948E-03
    0.50040645647923722838E-03
    0.51698250332775309759E-03
    0.44360051831928120746E-03
    0.44563566752888627729E-03
    0.36990384239735547020E-03
    0.34242799199631714134E-03
    0.28361884965572069315E-03
    0.27524768942062643844E-03
    0.32246029133849391044E-03
    0.32175624827716106484E-03
    0.37422236475190457945E-03
    0.38098255128738946944E-03
    0.68122121537544130625E-03
    0.74395615180257012450E-03
    0.89876386940579617614E-03
    0.93235132127800278250E-03
    0.79653044391792037285E-03
    0.80046522218159483261E-03
    0.66045643542914588518E-03
    0.60975094345170255308E-03
    0.50176468897459268470E-03
    0.48535333838116103593E-03
    0.57020609973108045843E-03
    0.56500664191284596157E-03
    0.66646154205169815150E-03
    0.67995669551814471188E-03
    0.69133639053307332383E-04
    0.64723629354119827399E-04
    0.70501734904987120329E-04
    0.66618697032403724608E-04
    0.57348067286210363156E-04
    0.51757626708643997965E-04
    0.45218541361394135004E-04
    0.47850739575843042619E-04
    0.44185701341825494584E-04
    0.47546191704824285163E-04
    0.54819823654007145044E-04
    0.61840307673850620986E-04
    0.56663320589183275178E-04
    0.54563813907393317890E-04
    0.79384237698803291998E-04
    0.77325186439248488998E-04
    0.87541347753482688285E-04
    0.84437577823128948887E-04
    0.71698686691095699737E-04
    0.66264148304591414087E-04
    0.56408289641581016308E-04
    0.57443348410221252074E-04
    0.50798871364469129030E-04
    0.53184400660600756933E-04
    0.62513035762717266731E-04
    0.68512193781156916698E-04
    0.67348424448992940533E-04
    0.65783041541643568861E-04
    0.11780925874983339127E-03
    0.11031138787674249241E-03
    0.12038785594053579963E-03
    0.11369499306293001032E-03
    0.97576496935511514261E-04
    0.87811154367200137580E-04
    0.76486771311666797786E-04
    0.81122192545060502894E-04
    0.74812090090207430861E-04
    0.80624626025359690386E-04
    0.93191353694301720927E-04
    0.10526478720745792504E-03
    0.96391535791330552278E-04
    0.92758563082021597236E-04
    0.13591866655418110817E-03
    0.13224097006650555194E-03
    0.15003419799415867314E-03
    0.14432065100779346346E-03
    0.12196394080971771276E-03
    0.11194239103719023801E-03
    0.94985223268503456910E-04
    0.97251111433928878291E-04
    0.85913284814152746875E-04
    0.90226809172812765881E-04
    0.10644969485071339543E-03
    0.11699357356951010705E-03
    0.11473442341896031055E-03
    0.11188418087587149227E-03
    0.10478461762672170322E-03
    0.10461247348525573055E-03
    0.12090052334286006703E-03
    0.11812970919883822600E-03
    0.99889831720366561323E-04
    0.93870058461975258647E-04
    0.78967151509940543969E-04
    0.78435285954018456669E-04
    0.67610827039015571234E-04
    0.69398447089913446631E-04
    0.82399991279701669282E-04
    0.88506337460928310740E-04
    0.91041977328345420899E-04
    0.89772684941168636352E-04
    0.14936279919113617251E-03
    0.15147266616631131189E-03
    0.17676740724331780025E-03
    0.17460134362491341290E-03
    0.14792197382732262317E-03
    0.14122196540167713348E-03
    0.11823242485061168398E-03
    0.11532389059541931810E-03
    0.98109321678352905518E-04
    0.99357218819147864308E-04
    0.11817733791029489602E-03
    0.12509278015752293544E-03
    0.13233166143790758254E-03
    0.13139503662905436133E-03
    0.17976544914073027456E-03
    0.17849823104238747638E-03
    0.20650422882237165468E-03
    0.20039172991096040801E-03
    0.16827448715266203638E-03
    0.15624770622974009033E-03
    0.13100429689011247819E-03
    0.13145521458106059669E-03
    0.11332029159707174434E-03
    0.11706798332501884563E-03
    0.13987063104921161161E-03
    0.15124358229783190269E-03
    0.15433750609065397278E-03
    0.15160964731897281577E-03
    0.25374781044812096207E-03
    0.25429515610248486484E-03
    0.29609021543998583067E-03
    0.28909749122671044540E-03
    0.24311903998367229867E-03
    0.22826283189118098623E-03
    0.19081341552500195695E-03
    0.18888471339423913882E-03
    0.16114106924815284685E-03
    0.16483476610235948956E-03
    0.19755195593671695704E-03
    0.21170530851313926375E-03
    0.22014696559027348548E-03
    0.21724263603222114462E-03
    0.20032610697947434396E-03
    0.18808879908570477020E-03
    0.20564447998802718722E-03
    0.19465229751256484230E-03
    0.16694273648898904586E-03
    0.15035361356797874791E-03
    0.13070681284505273299E-03
    0.13848676358116569253E-03
    0.12754660221601617828E-03
    0.13743882762375219937E-03
    0.15879596235321674202E-03
    0.17912744746147941694E-03
    0.16444842517538869279E-03
    0.15837767876922441228E-03
    0.23376158502173296182E-03
    0.22824423293591229061E-03
    0.26011903097748669683E-03
    0.25041948867158636636E-03
    0.21081295389347814951E-03
    0.19309233083534543406E-03
    0.16319261755893784468E-03
    0.16719302544083639158E-03
    0.14728416387841072768E-03
    0.15466091545906235642E-03
    0.18287396544638346500E-03
    0.20069285857595307236E-03
    0.19770411521316809704E-03
    0.19285412046959220841E-03
    0.33633002662269848504E-03
    0.31745043997056957095E-03
    0.34786711778085854753E-03
    0.33091930988497081367E-03
    0.28405132888594447410E-03
    0.25707709705739427214E-03
    0.22309706965153826221E-03
    0.23543431569198703334E-03
    0.21661005441851315404E-03
    0.23290584418871821803E-03
    0.26836535362454355712E-03
    0.30152860698383240857E-03
    0.27837679091204857408E-03
    0.26866281226312348522E-03
    0.39974195507254411562E-03
    0.39341877474762676362E-03
    0.45113294837799546933E-03
    0.43631168376961660142E-03
    0.36640224000652327468E-03
    0.33652828872204513340E-03
    0.28316083612722818368E-03
    0.28888522424612211523E-03
    0.25326504726260964679E-03
    0.26511220766230761620E-03
    0.31367544366480836372E-03
    0.34231653515854438500E-03
    0.34092754460681552004E-03
    0.33333988757769204966E-03
    0.31395200240387862887E-03
    0.31167330070506333011E-03
    0.36192244705931993784E-03
    0.35014263573964252542E-03
    0.29220985162481009434E-03
    0.26923616964613108181E-03
    0.22478644210136274691E-03
    0.22675605170929263193E-03
    0.19504527022304844622E-03
    0.20206062776929677822E-03
    0.24261907857311686035E-03
    0.26292094750018224622E-03
    0.26816914373002024956E-03
    0.26299744511517128684E-03
    0.44563566888125815931E-03
    0.44360051959131007642E-03
    0.51698250479424940132E-03
    0.50040645782993824642E-03
    0.41740483377557236443E-03
    0.38606168924317142309E-03
    0.32175624895595803573E-03
    0.32246029212113045282E-03
    0.27524769010043166314E-03
    0.28361885042718816422E-03
    0.34242799297900481390E-03
    0.36990384355519855160E-03