# vtk DataFile Version 3.0
LAPLACIEN  2D
ASCII
DATASET UNSTRUCTURED_GRID
FIELD FieldData 1
TIME 1 1 double
7.9000
 POINTS        7297  float
   1.5625000000000000E-002  0.96875000000000000        0.0000000000000000     
   3.1250000000000000E-002  0.96875000000000000        0.0000000000000000     
   3.1250000000000000E-002  0.98437500000000000        0.0000000000000000     
   9.3749999999999997E-003  0.97812500000000002        0.0000000000000000     
   2.0312500000000001E-002  0.97968750000000004        0.0000000000000000     
   2.1874999999999999E-002  0.99062499999999998        0.0000000000000000     
   1.0937499999999999E-002  0.98906249999999996        0.0000000000000000     
   4.6875000000000000E-002  0.96875000000000000        0.0000000000000000     
   6.2500000000000000E-002  0.96875000000000000        0.0000000000000000     
   6.2500000000000000E-002  0.98437500000000000        0.0000000000000000     
   4.0625000000000001E-002  0.97812500000000002        0.0000000000000000     
   5.1562499999999997E-002  0.97968750000000004        0.0000000000000000     
   5.3124999999999999E-002  0.99062499999999998        0.0000000000000000     
   4.2187500000000003E-002  0.98906249999999996        0.0000000000000000     
   1.5625000000000000E-002  0.93750000000000000        0.0000000000000000     
   3.1250000000000000E-002  0.93750000000000000        0.0000000000000000     
   3.1250000000000000E-002  0.95312500000000000        0.0000000000000000     
   9.3749999999999997E-003  0.94687500000000002        0.0000000000000000     
   2.0312500000000001E-002  0.94843750000000004        0.0000000000000000     
   2.1874999999999999E-002  0.95937499999999998        0.0000000000000000     
   1.0937499999999999E-002  0.95781249999999996        0.0000000000000000     
   4.6875000000000000E-002  0.93750000000000000        0.0000000000000000     
   6.2500000000000000E-002  0.93750000000000000        0.0000000000000000     
   6.2500000000000000E-002  0.95312500000000000        0.0000000000000000     
   4.0625000000000001E-002  0.94687500000000002        0.0000000000000000     
   5.1562499999999997E-002  0.94843750000000004        0.0000000000000000     
   5.3124999999999999E-002  0.95937499999999998        0.0000000000000000     
   4.2187500000000003E-002  0.95781249999999996        0.0000000000000000     
   7.8125000000000000E-002  0.96875000000000000        0.0000000000000000     
   9.3750000000000000E-002  0.96875000000000000        0.0000000000000000     
   9.3750000000000000E-002  0.98437500000000000        0.0000000000000000     
   7.1874999999999994E-002  0.97812500000000002        0.0000000000000000     
   8.2812499999999997E-002  0.97968750000000004        0.0000000000000000     
   8.4375000000000006E-002  0.99062499999999998        0.0000000000000000     
   7.3437500000000003E-002  0.98906249999999996        0.0000000000000000     
  0.10937500000000000       0.96875000000000000        0.0000000000000000     
  0.12500000000000000       0.96875000000000000        0.0000000000000000     
  0.12500000000000000       0.98437500000000000        0.0000000000000000     
  0.10312499999999999       0.97812500000000002        0.0000000000000000     
  0.11406250000000000       0.97968750000000004        0.0000000000000000     
  0.11562500000000001       0.99062499999999998        0.0000000000000000     
  0.10468750000000000       0.98906249999999996        0.0000000000000000     
   7.8125000000000000E-002  0.93750000000000000        0.0000000000000000     
   9.3750000000000000E-002  0.93750000000000000        0.0000000000000000     
   9.3750000000000000E-002  0.95312500000000000        0.0000000000000000     
   7.1874999999999994E-002  0.94687500000000002        0.0000000000000000     
   8.2812499999999997E-002  0.94843750000000004        0.0000000000000000     
   8.4375000000000006E-002  0.95937499999999998        0.0000000000000000     
   7.3437500000000003E-002  0.95781249999999996        0.0000000000000000     
  0.10937500000000000       0.93750000000000000        0.0000000000000000     
  0.12500000000000000       0.93750000000000000        0.0000000000000000     
  0.12500000000000000       0.95312500000000000        0.0000000000000000     
  0.10312499999999999       0.94687500000000002        0.0000000000000000     
  0.11406250000000000       0.94843750000000004        0.0000000000000000     
  0.11562500000000001       0.95937499999999998        0.0000000000000000     
  0.10468750000000000       0.95781249999999996        0.0000000000000000     
   1.5625000000000000E-002  0.90625000000000000        0.0000000000000000     
   3.1250000000000000E-002  0.90625000000000000        0.0000000000000000     
   3.1250000000000000E-002  0.92187500000000000        0.0000000000000000     
   9.3749999999999997E-003  0.91562500000000002        0.0000000000000000     
   2.0312500000000001E-002  0.91718750000000004        0.0000000000000000     
   2.1874999999999999E-002  0.92812499999999998        0.0000000000000000     
   1.0937499999999999E-002  0.92656249999999996        0.0000000000000000     
   4.6875000000000000E-002  0.90625000000000000        0.0000000000000000     
   6.2500000000000000E-002  0.90625000000000000        0.0000000000000000     
   6.2500000000000000E-002  0.92187500000000000        0.0000000000000000     
   4.0625000000000001E-002  0.91562500000000002        0.0000000000000000     
   5.1562499999999997E-002  0.91718750000000004        0.0000000000000000     
   5.3124999999999999E-002  0.92812499999999998        0.0000000000000000     
   4.2187500000000003E-002  0.92656249999999996        0.0000000000000000     
   1.5625000000000000E-002  0.87500000000000000        0.0000000000000000     
   3.1250000000000000E-002  0.87500000000000000        0.0000000000000000     
   3.1250000000000000E-002  0.89062500000000000        0.0000000000000000     
   9.3749999999999997E-003  0.88437500000000002        0.0000000000000000     
   2.0312500000000001E-002  0.88593750000000004        0.0000000000000000     
   2.1874999999999999E-002  0.89687499999999998        0.0000000000000000     
   1.0937499999999999E-002  0.89531249999999996        0.0000000000000000     
   4.6875000000000000E-002  0.87500000000000000        0.0000000000000000     
   6.2500000000000000E-002  0.87500000000000000        0.0000000000000000     
   6.2500000000000000E-002  0.89062500000000000        0.0000000000000000     
   4.0625000000000001E-002  0.88437500000000002        0.0000000000000000     
   5.1562499999999997E-002  0.88593750000000004        0.0000000000000000     
   5.3124999999999999E-002  0.89687499999999998        0.0000000000000000     
   4.2187500000000003E-002  0.89531249999999996        0.0000000000000000     
   7.8125000000000000E-002  0.90625000000000000        0.0000000000000000     
   9.3750000000000000E-002  0.90625000000000000        0.0000000000000000     
   9.3750000000000000E-002  0.92187500000000000        0.0000000000000000     
   7.1874999999999994E-002  0.91562500000000002        0.0000000000000000     
   8.2812499999999997E-002  0.91718750000000004        0.0000000000000000     
   8.4375000000000006E-002  0.92812499999999998        0.0000000000000000     
   7.3437500000000003E-002  0.92656249999999996        0.0000000000000000     
  0.10937500000000000       0.90625000000000000        0.0000000000000000     
  0.12500000000000000       0.90625000000000000        0.0000000000000000     
  0.12500000000000000       0.92187500000000000        0.0000000000000000     
  0.10312499999999999       0.91562500000000002        0.0000000000000000     
  0.11406250000000000       0.91718750000000004        0.0000000000000000     
  0.11562500000000001       0.92812499999999998        0.0000000000000000     
  0.10468750000000000       0.92656249999999996        0.0000000000000000     
   7.8125000000000000E-002  0.87500000000000000        0.0000000000000000     
   9.3750000000000000E-002  0.87500000000000000        0.0000000000000000     
   9.3750000000000000E-002  0.89062500000000000        0.0000000000000000     
   7.1874999999999994E-002  0.88437500000000002        0.0000000000000000     
   8.2812499999999997E-002  0.88593750000000004        0.0000000000000000     
   8.4375000000000006E-002  0.89687499999999998        0.0000000000000000     
   7.3437500000000003E-002  0.89531249999999996        0.0000000000000000     
  0.10937500000000000       0.87500000000000000        0.0000000000000000     
  0.12500000000000000       0.87500000000000000        0.0000000000000000     
  0.12500000000000000       0.89062500000000000        0.0000000000000000     
  0.10312499999999999       0.88437500000000002        0.0000000000000000     
  0.11406250000000000       0.88593750000000004        0.0000000000000000     
  0.11562500000000001       0.89687499999999998        0.0000000000000000     
  0.10468750000000000       0.89531249999999996        0.0000000000000000     
  0.14062500000000000       0.96875000000000000        0.0000000000000000     
  0.15625000000000000       0.96875000000000000        0.0000000000000000     
  0.15625000000000000       0.98437500000000000        0.0000000000000000     
  0.13437499999999999       0.97812500000000002        0.0000000000000000     
  0.14531250000000001       0.97968750000000004        0.0000000000000000     
  0.14687500000000001       0.99062499999999998        0.0000000000000000     
  0.13593749999999999       0.98906249999999996        0.0000000000000000     
  0.17187500000000000       0.96875000000000000        0.0000000000000000     
  0.18750000000000000       0.96875000000000000        0.0000000000000000     
  0.18750000000000000       0.98437500000000000        0.0000000000000000     
  0.16562499999999999       0.97812500000000002        0.0000000000000000     
  0.17656250000000001       0.97968750000000004        0.0000000000000000     
[...]
 CELL_DATA       14336
 SCALARS Nutrient float
 LOOKUP_TABLE default
    0.43955265243849446152E-02
    0.43954410686866916824E-02
    0.43960928184623750126E-02
    0.43960928184044751471E-02
    0.43954410689171002566E-02
    0.43955265241829204539E-02
    0.43950084373127690576E-02
    0.43947033106257298030E-02
    0.43943736000622889495E-02
    0.43943735987362047418E-02
    0.43947033113092229956E-02
    0.43950084370309736373E-02
    0.43949607514055834268E-02
    0.43949607511897820916E-02
    0.43976644155319108767E-02
    0.43982341367124633963E-02
    0.43997814374488880551E-02
    0.44002091695323269568E-02
    0.43990494358692594501E-02
    0.43996062251629719508E-02
    0.43983897960408859310E-02
    0.43973783677338819376E-02
    0.43963117200657379074E-02
    0.43959269123799099913E-02
    0.43965944060249161421E-02
    0.43965112288094493342E-02
    0.43975532713457603229E-02
    0.43977833527851385026E-02
    0.43996062252046278657E-02
    0.43990494358380222845E-02
    0.44002091695506170138E-02
    0.43997814374365307524E-02
    0.43982341367711490915E-02
    0.43976644154619737651E-02
    0.43965112289518640601E-02
    0.43965944058889537202E-02
    0.43959269125604001627E-02
    0.43963117198986267908E-02
    0.43973783678263331579E-02
    0.43983897960171150152E-02
    0.43977833528323429305E-02
    0.43975532713277191987E-02
    0.44024754603311832060E-02
    0.44027243592345676609E-02
    0.44051423127301758687E-02
    0.44051423127245943959E-02
    0.44027243592493344945E-02
    0.44024754603096344710E-02
    0.44003316138895905846E-02
    0.43997207977524797201E-02
    0.43981263401691398501E-02
    0.43981263401002296948E-02
    0.43997207977969719078E-02
    0.44003316138631733481E-02
    0.44010357839765227791E-02
    0.44010357839638289401E-02
    0.44033806516413503962E-02
    0.44049204663913496885E-02
    0.44079368755285484177E-02
    0.44090600797195194163E-02
    0.44070645171056226780E-02
    0.44084148168405615925E-02
    0.44060320028184198071E-02
    0.44038205388435350263E-02
    0.44015339040409193899E-02
    0.44005659486031842298E-02
    0.44017876966574729161E-02
    0.44012007342505675422E-02
    0.44038668124472346924E-02
    0.44044752814248770353E-02
    0.44148119118686268703E-02
    0.44179146322685294151E-02
    0.44232434165641498075E-02
    0.44254090133864325274E-02
    0.44220449874389179332E-02
    0.44245400298312288767E-02
    0.44203285785972537200E-02
    0.44163236340457323603E-02
    0.44121596758323351067E-02
    0.44102676657987952696E-02
    0.44124072266342453594E-02
    0.44109943427514276132E-02
    0.44162434801268898865E-02
    0.44174215132844838611E-02
    0.44099691812715903147E-02
    0.44111722659554188086E-02
    0.44154126819498720757E-02
    0.44159778601523379943E-02
    0.44122079133644678470E-02
    0.44124237920688969689E-02
    0.44087056557233919932E-02
    0.44070642427369950342E-02
    0.44040218541391172244E-02
    0.44035640177883953253E-02
    0.44061115027388061960E-02
    0.44063968533662152896E-02
    0.44087278177816898936E-02
    0.44090183886004510883E-02
    0.44241571361193039388E-02
    0.44269245278298853183E-02
    0.44342231114280787271E-02
    0.44357322541108161126E-02
    0.44296982741238314155E-02
    0.44306605250162859819E-02
    0.44243866922440890782E-02
    0.44210846072585971780E-02
    0.44157204658089440827E-02
    0.44145067028072519644E-02
    0.44185412100486319217E-02
    0.44183149329708477221E-02
    0.44232614208836772487E-02
    0.44240389632983299212E-02
    0.44084148168728170408E-02
    0.44070645171206210972E-02
    0.44090600797430518076E-02
    0.44079368755433967833E-02
    0.44049204664168249701E-02
    0.44033806516346309448E-02
    0.44012007342873324042E-02
    0.44017876966446975451E-02
    0.44005659486448132564E-02
    0.44015339040308337076E-02
    0.44038205388761426234E-02
    0.44060320028398089476E-02
    0.44044752814489402520E-02
    0.44038668124609416099E-02
    0.44124237920905653998E-02
    0.44122079133757418148E-02
    0.44159778601705456519E-02
    0.44154126819625858641E-02
    0.44111722659690424594E-02
    0.44099691812687566439E-02
    0.44063968533771969566E-02
    0.44061115027320754689E-02
    0.44035640178119034305E-02
    0.44040218541343935724E-02
    0.44070642427573572183E-02
    0.44087056557337890583E-02
    0.44090183886155943568E-02
    0.44087278177891240510E-02
    0.44245400298999482125E-02
    0.44220449874959157424E-02
    0.44254090134482242450E-02
    0.44232434166174994933E-02
    0.44179146323137571256E-02
    0.44148119118970615901E-02
    0.44109943427805753044E-02
    0.44124072266636090237E-02
    0.44102676658326275816E-02
    0.44121596758664475765E-02
    0.44163236340972111468E-02
    0.44203285786616232367E-02
    0.44174215133338723058E-02
    0.44162434801692275477E-02
    0.44306605250790786349E-02
    0.44296982741793503729E-02
    0.44357322541766228477E-02
    0.44342231114869829975E-02
    0.44269245278741589308E-02
    0.44241571361469476248E-02
    0.44183149329930140187E-02
    0.44185412100740100588E-02
    0.44145067028353761687E-02
    0.44157204658375817652E-02
    0.44210846073025333869E-02
    0.44243866922959096052E-02
    0.44240389633434622219E-02
    0.44232614209237155339E-02
    0.44228671884227587635E-02
    0.44238021008433823719E-02
    0.44300907979432898112E-02
    0.44300907979393875508E-02
    0.44238021008395677150E-02
    0.44228671884091047550E-02
    0.44171353053958127902E-02
    0.44158071241033056489E-02
    0.44114082503730524948E-02
    0.44114082503694026366E-02
    0.44158071241125760112E-02
    0.44171353054076167161E-02
    0.44194406083037981320E-02
    0.44194406083011769648E-02
    0.44422970414095194758E-02
    0.44450649255129842663E-02
    0.44556509984691392012E-02
    0.44566369875251960961E-02
    0.44467821774426489340E-02
    0.44462576673034272592E-02
    0.44367674013975335820E-02
    0.44337023638334827416E-02
    0.44261941070706028664E-02
    0.44255247224581793428E-02
    0.44322271407668248008E-02
    0.44332413174511878240E-02
    0.44386485758846497621E-02
    0.44391158408433406893E-02
    0.44462576673727979837E-02
    0.44467821775005115029E-02
    0.44566369875909759429E-02
    0.44556509985218470393E-02
    0.44450649255500613785E-02
    0.44422970414283464297E-02
    0.44332413174589498442E-02
    0.44322271407871653010E-02
    0.44255247224791243940E-02
    0.44261941070978839952E-02
    0.44337023638784918769E-02
    0.44367674014596765811E-02
    0.44391158408867686241E-02
    0.44386485759210485974E-02
    0.44746692181713999120E-02
    0.44772969086858422499E-02
    0.44932580519646521736E-02
    0.44932580519528482477E-02
    0.44772969086648963313E-02
    0.44746692181226429066E-02
    0.44601677095169791482E-02
    0.44570477603768339850E-02
    0.44459847673041603608E-02
    0.44459847673133977633E-02
    0.44570477603985752743E-02
    0.44601677095680320601E-02
    0.44663009952861949109E-02
    0.44663009952799282223E-02
    0.44353295257407044511E-02
    0.44409080524194129158E-02
    0.44501407002928046464E-02
    0.44540175431699163822E-02
    0.44482720903253596817E-02
    0.44526762996439398987E-02
    0.44454071123002760271E-02
    0.44384072654855312445E-02
    0.44311596032732842448E-02
    0.44278083848886826482E-02
    0.44314556926814165083E-02
    0.44288261167651117589E-02
    0.44381437485210917596E-02
    0.44402392937938559014E-02
    0.44712590231673786031E-02
    0.44810105807077957665E-02
    0.44970777339239662376E-02
    0.45037685799348527518E-02
    0.44937359607332581432E-02
    0.45012301498926305873E-02
    0.44887180616683041920E-02
    0.44766691902521030949E-02
    0.44641367735193480254E-02
    0.44583373288245610466E-02
    0.44646200044509525007E-02
    0.44599855431099993258E-02
    0.44762230969945622158E-02
    0.44798518199159883743E-02
    0.44497012412964588590E-02
    0.44551239085582564764E-02
    0.44677931130642327406E-02
    0.44709006314608557009E-02
    0.44607558532578639454E-02
    0.44628326085093747433E-02
    0.44520149639454172086E-02
    0.44460270286705199164E-02
    0.44367439710571443534E-02
    0.44343588634176639776E-02
    0.44409583363948226462E-02
    0.44399129808575452105E-02
    0.44492577805118321138E-02
    0.44508236777610604012E-02
    0.44951703082010113083E-02
    0.45051849254287333960E-02
    0.45274401315903000514E-02
    0.45331677222587235879E-02
    0.45154837322581619155E-02
    0.45191953468456938156E-02
    0.45003478241300827814E-02
    0.44898139833673481047E-02
    0.44736549112608806414E-02
    0.44693369419210688884E-02
    0.44806052968988305252E-02
    0.44783157071608516511E-02
    0.44951823295847912268E-02
    0.44980370440946063071E-02
    0.45336436126208233890E-02
    0.45502222972486766617E-02
    0.45778671175389883119E-02
    0.45888641298223471071E-02
    0.45713679771738190832E-02
    0.45836084655164815657E-02
    0.45624466314275738052E-02
    0.45421427707511060484E-02
    0.45208257370416499513E-02
    0.45109470882129616351E-02
    0.45218502791187350706E-02
    0.45140655999725450009E-02
    0.45417009514879891699E-02
    0.45477690697845541204E-02
    0.46401799379723589895E-02
    0.46671534502439439643E-02
    0.47139358286611239210E-02
    0.47309032649618934160E-02
    0.47005688176362482242E-02
    0.47194634994602319839E-02
    0.46847038425580651150E-02
    0.46515652162280683030E-02
    0.46161526982929287910E-02
    0.45998703383677884762E-02
    0.46186443104719743930E-02
    0.46062898881946501631E-02
    0.46518268360579975371E-02
    0.46615415403527728916E-02
    0.45760378798208748222E-02
    0.45937595675980243473E-02
    0.46332220368408413499E-02
    0.46429580884005845764E-02
    0.46112439389444682958E-02
    0.46168238589161924440E-02
    0.45838649079036055886E-02
    0.45660464334863594751E-02
    0.45379186293731796006E-02
    0.45305323785236094672E-02
    0.45503334245564092814E-02
    0.45462867512496129424E-02
    0.45759209393990930501E-02
    0.45807827118053883256E-02
    0.47191044246045381685E-02
    0.47490034835098171584E-02
    0.48187235236673937530E-02
    0.48336147229093451988E-02
    0.47761261316024020487E-02
    0.47825543016868166460E-02
    0.47252742878304493726E-02
    0.46966184363163377205E-02
    0.46481624086482809660E-02
    0.46362933905231057050E-02
    0.46717573377119464215E-02
    0.46659492330103401539E-02
    0.47161203680653376175E-02
    0.47237331185164552552E-02
    0.44770360534160461019E-02
    0.44830376610688121505E-02
    0.45011473193839884877E-02
    0.45039288048184158292E-02
    0.44877784930709967853E-02
    0.44879926417874232286E-02
    0.44718205284075994085E-02
    0.44657255333304069975E-02
    0.44528070076210197331E-02
    0.44510132713628915505E-02
    0.44617491797951597601E-02
    0.44622540364867109217E-02
    0.44730141812476835114E-02
    0.44742879974330991913E-02
    0.45390291676357828396E-02
    0.45510410025831043307E-02
    0.45829603853287902149E-02
    0.45891051436328733973E-02
    0.45613150350738542252E-02
    0.45626594916269571853E-02
    0.45342991928011503605E-02
    0.45229299094458495431E-02
    0.45002491944923844400E-02
    0.44964863773093036517E-02
    0.45144804224188615771E-02
    0.45139773522028768526E-02
    0.45345305954268633544E-02
    0.45372708733692028449E-02
    0.45239275387221793492E-02
    0.45305827682513184762E-02
    0.45570272906416738751E-02
    0.45592053085181296485E-02
    0.45341515076305358503E-02
    0.45321101051346273508E-02
    0.45080371949007347690E-02
    0.45011423144438534108E-02
    0.44824701932231793278E-02
    0.44812160573828906454E-02
    0.44982766831345366229E-02
    0.45011464197707868468E-02
    0.45142179998805022356E-02
    0.45151592086917248514E-02
    0.46102476217093936450E-02
    0.46250569985766586470E-02
    0.46706595000008069990E-02
    0.46776949806854499839E-02
    0.46362987896872440499E-02
    0.46358829410446666941E-02
    0.45941530616219281719E-02
    0.45800142824423042270E-02
    0.45475256465647758558E-02
    0.45438106515809928432E-02
    0.45712992139848758477E-02
    0.45731434781731599218E-02
    0.45994559956238703635E-02
    0.46023766266615039749E-02
    0.46514620592332496865E-02
    0.46744374116760240359E-02
    0.47320780888102879219E-02
    0.47439277175596664127E-02
    0.46940076859911371993E-02
    0.46964197730445713524E-02
    0.46456261302029516411E-02
    0.46253142001029907623E-02
    0.45849279112044139320E-02
    0.45778834120118105586E-02
    0.46093753579936978110E-02
    0.46073073722229180085E-02
    0.46454686192281139170E-02
    0.46506663834824275849E-02
    0.48573209586934206969E-02
    0.48992677159672374382E-02
    0.50047277417889076898E-02
    0.50250583559255440277E-02
    0.49326787465859582224E-02
    0.49339579606877265183E-02
    0.48421760733790460141E-02
    0.48078242346959107478E-02
    0.47355593400268056192E-02
    0.47236159882975666327E-02
    0.47807273730828391684E-02
    0.47770897760081587613E-02
    0.48458957788895026114E-02
    0.48547560405788380347E-02
    0.47669529249974949142E-02
    0.47982636231441886873E-02
    0.48806956771091682123E-02
    0.48973760517102603654E-02
    0.48246252690028364196E-02
    0.48269042829563214847E-02
    0.47516454415369238640E-02
    0.47241597729675045836E-02
    0.46656938685667925445E-02
    0.46572734497841786205E-02
    0.47040677788821360153E-02
    0.47032020983332114422E-02
    0.47555334136009002124E-02
    0.47623358805814752781E-02
    0.50605391205580281533E-02
    0.51232951345438768401E-02
    0.52772750457881576619E-02
    0.53110856613924339875E-02
    0.51762208578857386160E-02
    0.51805780926064094391E-02
    0.50412531199558324735E-02
    0.49904820230536467429E-02
    0.48829868628825177923E-02
    0.48664695220788688548E-02
    0.49506757598116049937E-02
    0.49451725239071427781E-02
    0.50465146917329523762E-02
    0.50600994751292122098E-02
    0.44526762998019324413E-02
    0.44482720904645634344E-02
    0.44540175433199621566E-02
    0.44501407004270869885E-02
    0.44409080525299382200E-02
    0.44353295258273096532E-02
    0.44288261168350029004E-02
    0.44314556927661204536E-02
    0.44278083849681407896E-02
    0.44311596033647631526E-02
    0.44384072656038463245E-02
    0.44454071124490658617E-02
    0.44402392939108430506E-02
    0.44381437486286472172E-02
    0.44628326086688530766E-02
    0.44607558534082124291E-02
    0.44709006316361581818E-02
    0.44677931132284277871E-02
    0.44551239086847707269E-02
    0.44497012413955072327E-02
    0.44399129809315936168E-02
    0.44409583364825927151E-02
    0.44343588634938183382E-02
    0.44367439711450002912E-02
    0.44460270287854028459E-02
    0.44520149640812729450E-02
    0.44508236778839317324E-02
    0.44492577806270316304E-02
    0.45012301502288668345E-02
    0.44937359610355605971E-02
    0.45037685802626166096E-02
    0.44970777342223603595E-02
    0.44810105809558568868E-02
    0.44712590233723387839E-02
    0.44599855432757139900E-02
    0.44646200046462710884E-02
    0.44583373290047615192E-02
    0.44641367737247653058E-02
    0.44766691905083425690E-02
    0.44887180619830784403E-02
    0.44798518201728254606E-02
    0.44762230972341691612E-02
    0.45191953472028803182E-02
    0.45154837326033033656E-02
    0.45331677226602756434E-02
    0.45274401319742455310E-02
    0.45051849257309950839E-02
    0.44951703084536703131E-02
    0.44783157073552256819E-02
    0.44806052971168219487E-02
    0.44693369421076167142E-02
    0.44736549114699859439E-02
    0.44898139836320460905E-02
    0.45003478244356092189E-02
    0.44980370443811028280E-02
    0.44951823298581428806E-02
    0.44879926419879104249E-02
    0.44877784932563875506E-02
    0.45039288050332422497E-02
    0.45011473195776599554E-02
    0.44830376612168968201E-02
    0.44770360535301449365E-02
    0.44622540365649747060E-02
    0.44617491798955239216E-02
    0.44510132714491081746E-02
    0.44528070077227100906E-02
    0.44657255334705665828E-02
    0.44718205285820197825E-02
    0.44742879975809887044E-02
    0.44730141813842461476E-02
    0.45321101053560223018E-02
    0.45341515078107484660E-02
    0.45592053087140111539E-02
    0.45570272907944249507E-02
    0.45305827683604985023E-02
    0.45239275387767190553E-02
    0.45011464197962595263E-02
    0.44982766832063446338E-02
    0.44812160574547177383E-02
    0.44824701933281864766E-02
    0.45011423145882830180E-02
    0.45080371950996572447E-02
    0.45151592088276725281E-02
    0.45142179999950113323E-02
    0.45626594921035438374E-02
    0.45613150355297534325E-02
    0.45891051441684311066E-02
    0.45829603858250148041E-02
    0.45510410029765725748E-02
    0.45390291679656257634E-02
    0.45139773524477712352E-02
    0.45144804226975865369E-02
    0.44964863775446449121E-02
    0.45002491947554387752E-02
    0.45229299097914246741E-02
    0.45342991932094617660E-02
    0.45372708737439083199E-02
    0.45345305957821121709E-02
    0.46358829416413257010E-02
    0.46362987902278784275E-02
    0.46776949812935477574E-02
    0.46706595005439723381E-02
    0.46250569989968346937E-02
    0.46102476220318353711E-02
    0.45731434784033690027E-02
    0.45712992142867931930E-02
    0.45438106518504023379E-02
    0.45475256468913297439E-02
    0.45800142828643277543E-02
    0.45941530621441640722E-02
    0.46023766270961979225E-02
    0.45994559960234908044E-02
    0.45836084661920696234E-02
    0.45713679777901524565E-02
    0.45888641304912399996E-02
    0.45778671181589151648E-02
    0.45502222977657586986E-02
    0.45336436130602904282E-02
    0.45140656003311357622E-02
    0.45218502795303780126E-02
    0.45109470885914045718E-02
    0.45208257374679712559E-02
    0.45421427712732274570E-02
    0.45624466320578422121E-02
    0.45477690703118866383E-02
    0.45417009519843759557E-02
    0.46168238596625719647E-02
    0.46112439396726514346E-02
    0.46429580892534579040E-02
    0.46332220376587790814E-02
    0.45937595682537081879E-02
    0.45760378803853052690E-02
    0.45462867516925260097E-02
    0.45503334250365330346E-02
    0.45305323789343642307E-02
    0.45379186298227201790E-02
    0.45660464340477845135E-02
    0.45838649085391362792E-02
    0.45807827124174629527E-02
    0.45759209399881322841E-02
    0.47194635007529114890E-02
    0.47005688188390872678E-02
    0.47309032662872056718E-02
    0.47139358298908771994E-02
    0.46671534512734650507E-02
    0.46401799388598756121E-02
    0.46062898889263738725E-02
    0.46186443112940711239E-02
    0.45998703391223159931E-02
    0.46161526991338828335E-02
    0.46515652172438139503E-02
    0.46847038437635192543E-02
    0.46615415413875658027E-02
    0.46518268370385803395E-02
    0.47825543031556633916E-02
    0.47761261330675599049E-02
    0.48336147246391238455E-02
    0.48187235253350372069E-02
    0.47490034848519432215E-02
    0.47191044257849229515E-02
    0.46659492339409733286E-02
    0.46717573387032697643E-02
    0.46362933913670573496E-02
    0.46481624095630934626E-02
    0.46966184374458170431E-02
    0.47252742890919819177E-02
    0.47237331197555812445E-02
    0.47161203692660889214E-02
    0.46964197740703740591E-02
    0.46940076869959436803E-02
    0.47439277187401223193E-02
    0.47320780899320945626E-02
    0.46744374125739880307E-02
    0.46514620600176196513E-02
    0.46073073728190288428E-02
    0.46093753586424904625E-02
    0.45778834125560332116E-02
    0.45849279117979912027E-02
    0.46253142008643192626E-02
    0.46456261310799306860E-02
    0.46506663843187126192E-02
    0.46454686200321981468E-02
    0.48269042843330257908E-02
    0.48246252702959886369E-02
    0.48973760531981118740E-02
    0.48806956784762378643E-02
    0.47982636242371052432E-02
    0.47669529259063529725E-02
    0.47032020990270045555E-02
    0.47040677796822156359E-02
    0.46572734504832799876E-02
    0.46656938693580077282E-02
    0.47241597739718140664E-02
    0.47516454427191648011E-02