# vtk DataFile Version 3.0
LAPLACIEN  2D
ASCII
DATASET UNSTRUCTURED_GRID
 POINTS        7297  float
   1.5625000000000000E-002  0.96875000000000000        0.0000000000000000     
   3.1250000000000000E-002  0.96875000000000000        0.0000000000000000     
   3.1250000000000000E-002  0.98437500000000000        0.0000000000000000     
   9.3749999999999997E-003  0.97812500000000002        0.0000000000000000     
   2.0312500000000001E-002  0.97968750000000004        0.0000000000000000     
   2.1874999999999999E-002  0.99062499999999998        0.0000000000000000     
   1.0937499999999999E-002  0.98906249999999996        0.0000000000000000     
   4.6875000000000000E-002  0.96875000000000000        0.0000000000000000     
   6.2500000000000000E-002  0.96875000000000000        0.0000000000000000     
   6.2500000000000000E-002  0.98437500000000000        0.0000000000000000     
   4.0625000000000001E-002  0.97812500000000002        0.0000000000000000     
   5.1562499999999997E-002  0.97968750000000004        0.0000000000000000     
   5.3124999999999999E-002  0.99062499999999998        0.0000000000000000     
   4.2187500000000003E-002  0.98906249999999996        0.0000000000000000     
   1.5625000000000000E-002  0.93750000000000000        0.0000000000000000     
   3.1250000000000000E-002  0.93750000000000000        0.0000000000000000     
   3.1250000000000000E-002  0.95312500000000000        0.0000000000000000     
   9.3749999999999997E-003  0.94687500000000002        0.0000000000000000     
   2.0312500000000001E-002  0.94843750000000004        0.0000000000000000     
   2.1874999999999999E-002  0.95937499999999998        0.0000000000000000     
   1.0937499999999999E-002  0.95781249999999996        0.0000000000000000     
   4.6875000000000000E-002  0.93750000000000000        0.0000000000000000     
   6.2500000000000000E-002  0.93750000000000000        0.0000000000000000     
   6.2500000000000000E-002  0.95312500000000000        0.0000000000000000     
   4.0625000000000001E-002  0.94687500000000002        0.0000000000000000     
   5.1562499999999997E-002  0.94843750000000004        0.0000000000000000     
   5.3124999999999999E-002  0.95937499999999998        0.0000000000000000     
   4.2187500000000003E-002  0.95781249999999996        0.0000000000000000     
   7.8125000000000000E-002  0.96875000000000000        0.0000000000000000     
   9.3750000000000000E-002  0.96875000000000000        0.0000000000000000     
   9.3750000000000000E-002  0.98437500000000000        0.0000000000000000     
   7.1874999999999994E-002  0.97812500000000002        0.0000000000000000     
   8.2812499999999997E-002  0.97968750000000004        0.0000000000000000     
   8.4375000000000006E-002  0.99062499999999998        0.0000000000000000     
   7.3437500000000003E-002  0.98906249999999996        0.0000000000000000     
  0.10937500000000000       0.96875000000000000        0.0000000000000000     
  0.12500000000000000       0.96875000000000000        0.0000000000000000     
  0.12500000000000000       0.98437500000000000        0.0000000000000000     
  0.10312499999999999       0.97812500000000002        0.0000000000000000     
  0.11406250000000000       0.97968750000000004        0.0000000000000000     
  0.11562500000000001       0.99062499999999998        0.0000000000000000     
  0.10468750000000000       0.98906249999999996        0.0000000000000000     
   7.8125000000000000E-002  0.93750000000000000        0.0000000000000000     
   9.3750000000000000E-002  0.93750000000000000        0.0000000000000000     
   9.3750000000000000E-002  0.95312500000000000        0.0000000000000000     
   7.1874999999999994E-002  0.94687500000000002        0.0000000000000000     
   8.2812499999999997E-002  0.94843750000000004        0.0000000000000000     
   8.4375000000000006E-002  0.95937499999999998        0.0000000000000000     
   7.3437500000000003E-002  0.95781249999999996        0.0000000000000000     
  0.10937500000000000       0.93750000000000000        0.0000000000000000     
  0.12500000000000000       0.93750000000000000        0.0000000000000000     
  0.12500000000000000       0.95312500000000000        0.0000000000000000     
  0.10312499999999999       0.94687500000000002        0.0000000000000000     
  0.11406250000000000       0.94843750000000004        0.0000000000000000     
  0.11562500000000001       0.95937499999999998        0.0000000000000000     
  0.10468750000000000       0.95781249999999996        0.0000000000000000     
   1.5625000000000000E-002  0.90625000000000000        0.0000000000000000     
   3.1250000000000000E-002  0.90625000000000000        0.0000000000000000     
   3.1250000000000000E-002  0.92187500000000000        0.0000000000000000     
   9.3749999999999997E-003  0.91562500000000002        0.0000000000000000     
   2.0312500000000001E-002  0.91718750000000004        0.0000000000000000     
   2.1874999999999999E-002  0.92812499999999998        0.0000000000000000     
   1.0937499999999999E-002  0.92656249999999996        0.0000000000000000     
   4.6875000000000000E-002  0.90625000000000000        0.0000000000000000     
   6.2500000000000000E-002  0.90625000000000000        0.0000000000000000     
   6.2500000000000000E-002  0.92187500000000000        0.0000000000000000     
   4.0625000000000001E-002  0.91562500000000002        0.0000000000000000     
   5.1562499999999997E-002  0.91718750000000004        0.0000000000000000     
   5.3124999999999999E-002  0.92812499999999998        0.0000000000000000     
   4.2187500000000003E-002  0.92656249999999996        0.0000000000000000     
   1.5625000000000000E-002  0.87500000000000000        0.0000000000000000     
   3.1250000000000000E-002  0.87500000000000000        0.0000000000000000     
   3.1250000000000000E-002  0.89062500000000000        0.0000000000000000     
   9.3749999999999997E-003  0.88437500000000002        0.0000000000000000     
   2.0312500000000001E-002  0.88593750000000004        0.0000000000000000     
   2.1874999999999999E-002  0.89687499999999998        0.0000000000000000     
   1.0937499999999999E-002  0.89531249999999996        0.0000000000000000     
   4.6875000000000000E-002  0.87500000000000000        0.0000000000000000     
   6.2500000000000000E-002  0.87500000000000000        0.0000000000000000     
   6.2500000000000000E-002  0.89062500000000000        0.0000000000000000     
   4.0625000000000001E-002  0.88437500000000002        0.0000000000000000     
   5.1562499999999997E-002  0.88593750000000004        0.0000000000000000     
   5.3124999999999999E-002  0.89687499999999998        0.0000000000000000     
   4.2187500000000003E-002  0.89531249999999996        0.0000000000000000     
   7.8125000000000000E-002  0.90625000000000000        0.0000000000000000     
   9.3750000000000000E-002  0.90625000000000000        0.0000000000000000     
   9.3750000000000000E-002  0.92187500000000000        0.0000000000000000     
   7.1874999999999994E-002  0.91562500000000002        0.0000000000000000     
   8.2812499999999997E-002  0.91718750000000004        0.0000000000000000     
   8.4375000000000006E-002  0.92812499999999998        0.0000000000000000     
   7.3437500000000003E-002  0.92656249999999996        0.0000000000000000     
  0.10937500000000000       0.90625000000000000        0.0000000000000000     
  0.12500000000000000       0.90625000000000000        0.0000000000000000     
  0.12500000000000000       0.92187500000000000        0.0000000000000000     
  0.10312499999999999       0.91562500000000002        0.0000000000000000     
  0.11406250000000000       0.91718750000000004        0.0000000000000000     
  0.11562500000000001       0.92812499999999998        0.0000000000000000     
  0.10468750000000000       0.92656249999999996        0.0000000000000000     
   7.8125000000000000E-002  0.87500000000000000        0.0000000000000000     
   9.3750000000000000E-002  0.87500000000000000        0.0000000000000000     
   9.3750000000000000E-002  0.89062500000000000        0.0000000000000000     
   7.1874999999999994E-002  0.88437500000000002        0.0000000000000000     
   8.2812499999999997E-002  0.88593750000000004        0.0000000000000000     
   8.4375000000000006E-002  0.89687499999999998        0.0000000000000000     
   7.3437500000000003E-002  0.89531249999999996        0.0000000000000000     
  0.10937500000000000       0.87500000000000000        0.0000000000000000     
  0.12500000000000000       0.87500000000000000        0.0000000000000000     
  0.12500000000000000       0.89062500000000000        0.0000000000000000     
  0.10312499999999999       0.88437500000000002        0.0000000000000000     
  0.11406250000000000       0.88593750000000004        0.0000000000000000     
  0.11562500000000001       0.89687499999999998        0.0000000000000000     
  0.10468750000000000       0.89531249999999996        0.0000000000000000     
  0.14062500000000000       0.96875000000000000        0.0000000000000000     
  0.15625000000000000       0.96875000000000000        0.0000000000000000     
  0.15625000000000000       0.98437500000000000        0.0000000000000000     
  0.13437499999999999       0.97812500000000002        0.0000000000000000     
  0.14531250000000001       0.97968750000000004        0.0000000000000000     
  0.14687500000000001       0.99062499999999998        0.0000000000000000     
  0.13593749999999999       0.98906249999999996        0.0000000000000000     
  0.17187500000000000       0.96875000000000000        0.0000000000000000     
  0.18750000000000000       0.96875000000000000        0.0000000000000000     
  0.18750000000000000       0.98437500000000000        0.0000000000000000     
  0.16562499999999999       0.97812500000000002        0.0000000000000000     
  0.17656250000000001       0.97968750000000004        0.0000000000000000     
  0.17812500000000001       0.99062499999999998        0.0000000000000000     
[...]
 CELL_DATA       14336
 SCALARS Nutrients float
 LOOKUP_TABLE default
    0.12472790181506061629E-04
    0.12376205709754294318E-04
    0.13067366384668625422E-04
    0.13067366383819676486E-04
    0.12376205708128772023E-04
    0.12472790177473934078E-04
    0.11919136874523751472E-04
    0.11594492273233398172E-04
    0.11243340867684393841E-04
    0.11243340867941375167E-04
    0.11594492275205400987E-04
    0.11919136879624893895E-04
    0.11867592181476954092E-04
    0.11867592180940140186E-04
    0.14734278519203006068E-04
    0.15340265945029360630E-04
    0.16989085966517039730E-04
    0.17442805446190873530E-04
    0.16210230907145325253E-04
    0.16810891122328742845E-04
    0.15512012697835411327E-04
    0.14436129712134380021E-04
    0.13305381891736794332E-04
    0.12890616079080138072E-04
    0.13602030158186662222E-04
    0.13509286434246219036E-04
    0.14617366256509168023E-04
    0.14866086806585065619E-04
    0.16810891132497613934E-04
    0.16210230913876225135E-04
    0.17442805450899146824E-04
    0.16989085970224733333E-04
    0.15340265948360520983E-04
    0.14734278520652174409E-04
    0.13509286435849842141E-04
    0.13602030161847760543E-04
    0.12890616083570166552E-04
    0.13305381897140227567E-04
    0.14436129719640338766E-04
    0.15512012709467298051E-04
    0.14866086812427566853E-04
    0.14617366261305810571E-04
    0.19855308281760042821E-04
    0.20119719330923983630E-04
    0.22694787286985105884E-04
    0.22694787287116612831E-04
    0.20119719329772252603E-04
    0.19855308278282833659E-04
    0.17570579658003318324E-04
    0.16921191903505533659E-04
    0.15223588647775476693E-04
    0.15223588648471276990E-04
    0.16921191904825390561E-04
    0.17570579661099118714E-04
    0.18320848239569625596E-04
    0.18320848239207278453E-04
    0.20820233463885956749E-04
    0.22458738870846488707E-04
    0.25668186497286769551E-04
    0.26861452194522673784E-04
    0.24737736400494423538E-04
    0.26173429932951780156E-04
    0.23639580985824233949E-04
    0.21287626222885956386E-04
    0.18859019216079272562E-04
    0.17820904397607631458E-04
    0.19127138961667773236E-04
    0.18499511057415157376E-04
    0.21335522347766259008E-04
    0.21986654264402125526E-04
    0.32977905505314467527E-04
    0.36273425489377004506E-04
    0.41936418104220509059E-04
    0.44234533491109907820E-04
    0.40654639397729079391E-04
    0.43298946269523639783E-04
    0.38825965448517011768E-04
    0.34574183716601059556E-04
    0.30151466219247164671E-04
    0.28141165934642257978E-04
    0.30417561413331103959E-04
    0.28917967005391025559E-04
    0.34493636113265865428E-04
    0.35743856840228346763E-04
    0.27832168348031523236E-04
    0.29111772302572137084E-04
    0.33623181006076189063E-04
    0.34224211920176783499E-04
    0.30212544415245135427E-04
    0.30440897829079789514E-04
    0.26485665851916461968E-04
    0.24740116164308485449E-04
    0.21501065704119038578E-04
    0.21014908406471520752E-04
    0.23725901328947916980E-04
    0.24030357976663918352E-04
    0.26510726700998959321E-04
    0.26818900256317324877E-04
    0.42927296828723171887E-04
    0.45866993969879938731E-04
    0.53629768864669886117E-04
    0.55232079106013117506E-04
    0.48810387458323843018E-04
    0.49827397358661270114E-04
    0.43156330766710975378E-04
    0.39648929134066428551E-04
    0.33944290219307637056E-04
    0.32656568756024231684E-04
    0.36948239110120808431E-04
    0.36709682733761564953E-04
    0.41968124276508309673E-04
    0.42793297571516874405E-04
    0.26173429953648745619E-04
    0.24737736417105024236E-04
    0.26861452210625742505E-04
    0.25668186510695704293E-04
    0.22458738881684302372E-04
    0.20820233470775997180E-04
    0.18499511062039625232E-04
    0.19127138970983550010E-04
    0.17820904408145744538E-04
    0.18859019228586689811E-04
    0.21287626238922245029E-04
    0.23639581008338986327E-04
    0.21986654278428093278E-04
    0.21335522359863336227E-04
    0.30440897842748106073E-04
    0.30212544426976612898E-04
    0.34224211933559226439E-04
    0.33623181018025852056E-04
    0.29111772309698811417E-04
    0.27832168350102220636E-04
    0.24030357975939695017E-04
    0.23725901332720259525E-04
    0.21014908410990116265E-04
    0.21501065710542394349E-04
    0.24740116173327488983E-04
    0.26485665864212429299E-04
    0.26818900264859411593E-04
    0.26510726708162760801E-04
    0.43298946329193085817E-04
    0.40654639448639222192E-04
    0.44234533544871177074E-04
    0.41936418151397540492E-04
    0.36273425525958819286E-04
    0.32977905531315478767E-04
    0.28917967023762407855E-04
    0.30417561440361270394E-04
    0.28141165959747179511E-04
    0.30151466250732114545E-04
    0.34574183759466340922E-04
    0.38825965506915169768E-04
    0.35743856881359528069E-04
    0.34493636149953904916E-04
    0.49827397414057231640E-04
    0.48810387509215649249E-04
    0.55232079166267815872E-04
    0.53629768920103259395E-04
    0.45866994008785456265E-04
    0.42927296854335191716E-04
    0.36709682749300214964E-04
    0.36948239133875650925E-04
    0.32656568775531136185E-04
    0.33944290245057147273E-04
    0.39648929170856742185E-04
    0.43156330813194876362E-04
    0.42793297610612174753E-04
    0.41968124311971485309E-04
    0.41558749810374655319E-04
    0.42555825534871096014E-04
    0.49252126178336397104E-04
    0.49252126175598949249E-04
    0.42555825530420994974E-04
    0.41558749800408336912E-04
    0.35457978340314376907E-04
    0.34045005620971241641E-04
    0.29363920502925758120E-04
    0.29363920504345751258E-04
    0.34045005625855104866E-04
    0.35457978353090716952E-04
    0.37912801665081362801E-04
    0.37912801663725500222E-04
    0.62243648157104289158E-04
    0.65188111967838402601E-04
    0.76452324489525790669E-04
    0.77498501548839402223E-04
    0.67006694906173499410E-04
    0.66438635720301300928E-04
    0.56340888700386182312E-04
    0.53085512629053190460E-04
    0.45096383896715038896E-04
    0.44387397756762626453E-04
    0.51523266817304125872E-04
    0.52605414533363834136E-04
    0.58356154216747311268E-04
    0.58850928687911884842E-04
    0.66438635785741656970E-04
    0.67006694962085832550E-04
    0.77498501612539356280E-04
    0.76452324541747174354E-04
    0.65188112003281147803E-04
    0.62243648176292675389E-04
    0.52605414539272051574E-04
    0.51523266837020362707E-04
    0.44387397773639120958E-04
    0.45096383922386079981E-04
    0.53085512670225300398E-04
    0.56340888759644404014E-04
    0.58850928728746320013E-04
    0.58356154251460950837E-04
    0.96700070179706886799E-04
    0.99499926946401096527E-04
    0.11650198415703486672E-03
    0.11650198414588391514E-03
    0.99499926925463390748E-04
    0.96700070131786519580E-04
    0.81262457849532167774E-04
    0.77941810795335159101E-04
    0.66168475778485112021E-04
    0.66168475788272272794E-04
    0.77941810816484392724E-04
    0.81262457900519146628E-04
    0.87792011339655061006E-04
    0.87792011333610376397E-04
    0.54778953755494858913E-04
    0.60695539049389652807E-04
    0.70504890622666180301E-04
    0.74617283918519886738E-04
    0.68503346094219734670E-04
    0.73172604469179120933E-04
    0.65452752875102954947E-04
    0.58022456450022989228E-04
    0.50325454114085707612E-04
    0.46770193808084673936E-04
    0.50648010973441976855E-04
    0.47862958072225378716E-04
    0.57751006249000736879E-04
    0.59972929893784709563E-04
    0.92939353079275275195E-04
    0.10328512842194130549E-03
    0.12035338889512869692E-03
    0.12744801550245758400E-03
    0.11678059730045757861E-03
    0.12472835083114652572E-03
    0.11143923423774298662E-03
    0.98649102650299688461E-04
    0.85339962774082521501E-04
    0.79184631253430257688E-04
    0.85864310605158621244E-04
    0.80953850096193412660E-04
    0.98186998486480886114E-04
    0.10203602814999040570E-03
    0.70089484030200034713E-04
    0.75846918724736984985E-04
    0.89319207308861486806E-04
    0.92612655828797654746E-04
    0.81815875137231076041E-04
    0.84006887145251013722E-04
    0.72505133456446399054E-04
    0.66152905359049516158E-04
    0.56285971816064504672E-04
    0.53759052948025404207E-04
    0.60779405291212247999E-04
    0.59675327140397914881E-04
    0.69600276296111231980E-04
    0.71260101863673710847E-04
    0.11842279810502058795E-03
    0.12904549592091519553E-03
    0.15270025499608728633E-03
    0.15876754336498427947E-03
    0.13995445118714674830E-03
    0.14387044832662437680E-03
    0.12383952142044907241E-03
    0.11266478894024171281E-03
    0.95492108548578599888E-04
    0.90918629240517492146E-04
    0.10290628618039132202E-03
    0.10049138123075698878E-03
    0.11839631953492298555E-03
    0.12142088886697110204E-03
    0.15918249060945798847E-03
    0.17676858723602746344E-03
    0.20611993222034578118E-03
    0.21777819193541001711E-03
    0.19918864822609987715E-03
    0.21216420289665299391E-03
    0.18970146978807383140E-03
    0.16815520331511733788E-03
    0.14552718495986871443E-03
    0.13504497565018823359E-03
    0.14663020102810109084E-03
    0.13837959975616299815E-03
    0.16770460469564779475E-03
    0.17413981660200961209E-03
    0.27226068472485643029E-03
    0.30086216650851860949E-03
    0.35052387820756693466E-03
    0.36850447901148430767E-03
    0.33628406473331387766E-03
    0.35630740805370480096E-03
    0.31942477377606916158E-03
    0.28427345322426712413E-03
    0.24669378251395080370E-03
    0.22942101681871999845E-03
    0.24935998534519318364E-03
    0.23627188194799993008E-03
    0.28457309556739317918E-03
    0.29487383961992238296E-03
    0.20432861112561114805E-03
    0.22312296457897880654E-03
    0.26504928911759271680E-03
    0.27535670246977422826E-03
    0.24163676680639964238E-03
    0.24751948848342458093E-03
    0.21250625232607239117E-03
    0.19361190072927781237E-03
    0.16373454779656317114E-03
    0.15590790460697092441E-03
    0.17696690072829853314E-03
    0.17270033651453476731E-03
    0.20414148114473106791E-03
    0.20929141480841007266E-03
    0.35625285141096727209E-03
    0.38795055726906707083E-03
    0.46199462413378130071E-03
    0.47774992355356139546E-03
    0.41665609371221903195E-03
    0.42341210310092782399E-03
    0.36258224172340991660E-03
    0.33220376073865283493E-03
    0.28075872093696126360E-03
    0.26818445999729403212E-03
    0.30588120600866860067E-03
    0.29976498513753800429E-03
    0.35297801560337145350E-03
    0.36103740532603248231E-03
    0.99212385220156525762E-04
    0.10559068296849233141E-03
    0.12486548972920821364E-03
    0.12781311048253436681E-03
    0.11061537413019437853E-03
    0.11082153786960644026E-03
    0.93613768023826407190E-04
    0.87142666006288882854E-04
    0.73396700319196175183E-04
    0.71498204852962459334E-04
    0.82928495374168107379E-04
    0.83474788669989416880E-04
    0.94915575014235548795E-04
    0.96265418487361355867E-04
    0.16516641414976302436E-03
    0.17791348010529945854E-03
    0.21186664371006648597E-03
    0.21836623035608438933E-03
    0.18878223100209020084E-03
    0.19016738841481431997E-03
    0.16000805945402788604E-03
    0.14795077665006478064E-03
    0.12383316802327970236E-03
    0.11985229065842422627E-03
    0.13900770803416368057E-03
    0.13849894984701443829E-03
    0.16032424633118021748E-03
    0.16322379786373817766E-03
    0.14917796775519980034E-03
    0.15626267358872925734E-03
    0.18443367798856883863E-03
    0.18673888236772951429E-03
    0.16004189151888281403E-03
    0.15784280972995303502E-03
    0.13220930507699734996E-03
    0.12488267546092960835E-03
    0.10500043465854121962E-03
    0.10367135144749400867E-03
    0.12184433446249236395E-03
    0.12490514070644101658E-03
    0.13882137250008220303E-03
    0.13981847232603933232E-03
    0.24111225299946746387E-03
    0.25684493749080427542E-03
    0.30541089006979953938E-03
    0.31285032382926119144E-03
    0.26873551006998205480E-03
    0.26822445021261026024E-03
    0.22380199162559780450E-03
    0.20879926942745757586E-03
    0.17422389420257669199E-03
    0.17029435989231124417E-03
    0.19957971658796428132E-03
    0.20157895164942118559E-03
    0.22954925600864948122E-03
    0.23263899056463483838E-03
    0.28469710684607142095E-03
    0.30906060525289505642E-03
    0.37034970430514145773E-03
    0.38287878147543147420E-03
    0.32975997942408724140E-03
    0.33224939351570180511E-03
    0.27825539614375867717E-03
    0.25671721804679790459E-03
    0.21379820391582280066E-03
    0.20634170206837971844E-03
    0.23985223848222280026E-03
    0.23771120268392361471E-03
    0.27820776250069278188E-03
    0.28370708872318278499E-03
    0.50344080211039629602E-03
    0.54790901426752451446E-03
    0.65998753560217015418E-03
    0.68147637549891134853E-03
    0.58323332291392634280E-03
    0.58446730555857429219E-03
    0.48694748599325973987E-03
    0.45053554432138539143E-03
    0.37376707481966142677E-03
    0.36112911582744606836E-03
    0.42187635293241122596E-03
    0.41810863716355319009E-03
    0.49110181518349576516E-03
    0.50047111899869864415E-03
    0.40789849392188306555E-03
    0.44112737441741865264E-03
    0.52886438837048657842E-03
    0.54650473610246691480E-03
    0.46899963358827570330E-03
    0.47128423857432455782E-03
    0.39120783786555490130E-03
    0.36206319373945317032E-03
    0.29987087852160863735E-03
    0.29096796892327298932E-03
    0.34082175440735049511E-03
    0.33998731946815883209E-03
    0.39556506665267644534E-03
    0.40275715420485581376E-03
    0.72015733956405951141E-03
    0.78672091222025872497E-03
    0.95051095217139100046E-03
    0.98625651650351120990E-03
    0.84267098697328110535E-03
    0.84705826352385847622E-03
    0.69889687364112370281E-03
    0.64508101400809984144E-03
    0.53079495901803155997E-03
    0.51333237661108565772E-03
    0.60300128519814692740E-03
    0.59732652254938247392E-03
    0.70488679175125217979E-03
    0.71924797255344186716E-03
    0.73172604618072862779E-04
    0.68503346225521008776E-04
    0.74617284060003160944E-04
    0.70504890749840696336E-04
    0.60695539151501087349E-04
    0.54778953835312210101E-04
    0.47862958133368533329E-04
    0.50648011050877207121E-04
    0.46770193879036124488E-04
    0.50325454198150122655E-04
    0.58022456559707291342E-04
    0.65452753016308930895E-04
    0.59972930002318361464E-04
    0.57751006348657090469E-04
    0.84006887297909484981E-04
    0.81815875282245664486E-04
    0.92612655999409321359E-04
    0.89319207470148431977E-04
    0.75846918846371146603E-04
    0.70089484125309867808E-04
    0.59675327208556806227E-04
    0.60779405373860932173E-04
    0.53759053016465815423E-04
    0.56285971897516249977E-04
    0.66152905466868407777E-04
    0.72505133585141481531E-04
    0.71260101980510291405E-04
    0.69600276405796225273E-04
    0.12472835116236072133E-03
    0.11678059759783141207E-03
    0.12744801582554598249E-03
    0.12035338918956813719E-03
    0.10328512866375941345E-03
    0.92939353277745977416E-04
    0.80953850253815049756E-04
    0.85864310792939564383E-04
    0.79184631425208308999E-04
    0.85339962972026084625E-04
    0.98649102899894751503E-04
    0.11143923454821528336E-03
    0.10203602840035700056E-03
    0.98186998719528340604E-04
    0.14387044868242944320E-03
    0.13995445153235596108E-03
    0.15876754376924640672E-03
    0.15270025538489600896E-03
    0.12904549622293570266E-03
    0.11842279835689090346E-03
    0.10049138142113722531E-03
    0.10290628639445809631E-03
    0.90918629420544126479E-04
    0.95492108752099258331E-04
    0.11266478920057265418E-03
    0.12383952172217302314E-03
    0.12142088915101687885E-03
    0.11839631980605081873E-03
    0.11082153806883899780E-03
    0.11061537431570985413E-03
    0.12781311069895144746E-03
    0.12486548992588544218E-03
    0.10559068311675211314E-03
    0.99212385334937580974E-04
    0.83474788746345357764E-04
    0.82928495472793981014E-04
    0.71498204935253092517E-04
    0.73396700417656016808E-04
    0.87142666143757044708E-04
    0.93613768196002889246E-04
    0.96265418633873620535E-04
    0.94915575149818960697E-04
    0.15784280995620214886E-03
    0.16004189170376075164E-03
    0.18673888256955423659E-03
    0.18443367814708193386E-03
    0.15626267370090908115E-03
    0.14917796781156280922E-03
    0.12490514073191515978E-03
    0.12184433453524185539E-03
    0.10367135151898880714E-03
    0.10500043476449441614E-03
    0.12488267560741597413E-03
    0.13220930527918107870E-03
    0.13981847246463476628E-03
    0.13882137261698527229E-03
    0.19016738890181224026E-03
    0.18878223146933596332E-03
    0.21836623090791266641E-03
    0.21186664422319202521E-03
    0.17791348050891835574E-03
    0.16516641448796566191E-03
    0.13849895009527513306E-03
    0.13900770831642037472E-03
    0.11985229089352048405E-03
    0.12383316828702949910E-03
    0.14795077699999000182E-03
    0.16000805986822192861E-03
    0.16322379824558559051E-03
    0.16032424669343254631E-03
    0.26822445083340013807E-03
    0.26873551063346566787E-03
    0.31285032446512082895E-03
    0.30541089063949096883E-03
    0.25684493792898409554E-03
    0.24111225333586517585E-03
    0.20157895188767442326E-03
    0.19957971690014820803E-03
    0.17029436016827663837E-03
    0.17422389453858531092E-03
    0.20879926986380623272E-03
    0.22380199216628861476E-03
    0.23263899101595106886E-03
    0.22954925642375739779E-03
    0.21216420358105862395E-03
    0.19918864884982455474E-03
    0.21777819261379743063E-03
    0.20611993284944932128E-03
    0.17676858775650291762E-03
    0.15918249104992398439E-03
    0.13837960011168020887E-03
    0.14663020143836400606E-03
    0.13504497602554645249E-03
    0.14552718538510633190E-03
    0.16815520383985221582E-03
    0.18970147042621032058E-03
    0.17413981713241551792E-03
    0.16770460519424207043E-03
    0.24751948924610627390E-03
    0.24163676755237396962E-03
    0.27535670334743702530E-03
    0.26504928996191900754E-03
    0.22312296525044751942E-03
    0.20432861170238504687E-03
    0.17270033696292384166E-03
    0.17696690121413679079E-03
    0.15590790501839206571E-03
    0.16373454824847338178E-03
    0.19361190129820295483E-03
    0.21250625297163851127E-03
    0.20929141543182702657E-03
    0.20414148174485792259E-03
    0.35630740938592955032E-03
    0.33628406597380948537E-03
    0.36850448038122857793E-03
    0.35052387947804913501E-03
    0.30086216756679371332E-03
    0.27226068563464218613E-03
    0.23627188269295049941E-03
    0.24935998618433265119E-03
    0.22942101758635370353E-03
    0.24669378337241872285E-03
    0.28427345426645348088E-03
    0.31942477501878857636E-03
    0.29487384068246300919E-03
    0.28457309657352975948E-03
    0.42341210462636000257E-03
    0.41665609523639245181E-03
    0.47774992535931962937E-03
    0.46199462587737615254E-03
    0.38795055866526029047E-03
    0.35625285263721483695E-03
    0.29976498609867282185E-03
    0.30588120703168214303E-03
    0.26818446086293069603E-03
    0.28075872187656615705E-03
    0.33220376190513408029E-03
    0.36258224302831699960E-03
    0.36103740661033050831E-03
    0.35297801684806601359E-03
    0.33224939458182626163E-03
    0.32975998047021011939E-03
    0.38287878270905860694E-03
    0.37034970547998716022E-03
    0.30906060618829877488E-03
    0.28469710766281880682E-03
    0.23771120330044788883E-03
    0.23985223915234590982E-03
    0.20634170262566033983E-03
    0.21379820452514320187E-03
    0.25671721883302196354E-03
    0.27825539705026623933E-03
    0.28370708959055428080E-03
    0.27820776333495317702E-03
    0.47128424002292176789E-03
    0.46899963495036718674E-03
    0.54650473767328623578E-03
    0.52886438981596041887E-03
    0.44112737556893628172E-03
    0.40789849487904043324E-03
    0.33998732019578219729E-03
    0.34082175524557684759E-03
    0.29096796965165741024E-03
    0.29987087934749801594E-03
    0.36206319479166601191E-03
    0.39120783910461025485E-03