# vtk DataFile Version 3.0
LAPLACIEN  2D
ASCII
DATASET UNSTRUCTURED_GRID
 POINTS        7297  float
   1.5625000000000000E-002  0.96875000000000000        0.0000000000000000     
   3.1250000000000000E-002  0.96875000000000000        0.0000000000000000     
   3.1250000000000000E-002  0.98437500000000000        0.0000000000000000     
   9.3749999999999997E-003  0.97812500000000002        0.0000000000000000     
   2.0312500000000001E-002  0.97968750000000004        0.0000000000000000     
   2.1874999999999999E-002  0.99062499999999998        0.0000000000000000     
   1.0937499999999999E-002  0.98906249999999996        0.0000000000000000     
   4.6875000000000000E-002  0.96875000000000000        0.0000000000000000     
   6.2500000000000000E-002  0.96875000000000000        0.0000000000000000     
   6.2500000000000000E-002  0.98437500000000000        0.0000000000000000     
   4.0625000000000001E-002  0.97812500000000002        0.0000000000000000     
   5.1562499999999997E-002  0.97968750000000004        0.0000000000000000     
   5.3124999999999999E-002  0.99062499999999998        0.0000000000000000     
   4.2187500000000003E-002  0.98906249999999996        0.0000000000000000     
   1.5625000000000000E-002  0.93750000000000000        0.0000000000000000     
   3.1250000000000000E-002  0.93750000000000000        0.0000000000000000     
   3.1250000000000000E-002  0.95312500000000000        0.0000000000000000     
   9.3749999999999997E-003  0.94687500000000002        0.0000000000000000     
   2.0312500000000001E-002  0.94843750000000004        0.0000000000000000     
   2.1874999999999999E-002  0.95937499999999998        0.0000000000000000     
   1.0937499999999999E-002  0.95781249999999996        0.0000000000000000     
   4.6875000000000000E-002  0.93750000000000000        0.0000000000000000     
   6.2500000000000000E-002  0.93750000000000000        0.0000000000000000     
   6.2500000000000000E-002  0.95312500000000000        0.0000000000000000     
   4.0625000000000001E-002  0.94687500000000002        0.0000000000000000     
   5.1562499999999997E-002  0.94843750000000004        0.0000000000000000     
   5.3124999999999999E-002  0.95937499999999998        0.0000000000000000     
   4.2187500000000003E-002  0.95781249999999996        0.0000000000000000     
   7.8125000000000000E-002  0.96875000000000000        0.0000000000000000     
   9.3750000000000000E-002  0.96875000000000000        0.0000000000000000     
   9.3750000000000000E-002  0.98437500000000000        0.0000000000000000     
   7.1874999999999994E-002  0.97812500000000002        0.0000000000000000     
   8.2812499999999997E-002  0.97968750000000004        0.0000000000000000     
   8.4375000000000006E-002  0.99062499999999998        0.0000000000000000     
   7.3437500000000003E-002  0.98906249999999996        0.0000000000000000     
  0.10937500000000000       0.96875000000000000        0.0000000000000000     
  0.12500000000000000       0.96875000000000000        0.0000000000000000     
  0.12500000000000000       0.98437500000000000        0.0000000000000000     
  0.10312499999999999       0.97812500000000002        0.0000000000000000     
  0.11406250000000000       0.97968750000000004        0.0000000000000000     
  0.11562500000000001       0.99062499999999998        0.0000000000000000     
  0.10468750000000000       0.98906249999999996        0.0000000000000000     
   7.8125000000000000E-002  0.93750000000000000        0.0000000000000000     
   9.3750000000000000E-002  0.93750000000000000        0.0000000000000000     
   9.3750000000000000E-002  0.95312500000000000        0.0000000000000000     
   7.1874999999999994E-002  0.94687500000000002        0.0000000000000000     
   8.2812499999999997E-002  0.94843750000000004        0.0000000000000000     
   8.4375000000000006E-002  0.95937499999999998        0.0000000000000000     
   7.3437500000000003E-002  0.95781249999999996        0.0000000000000000     
  0.10937500000000000       0.93750000000000000        0.0000000000000000     
  0.12500000000000000       0.93750000000000000        0.0000000000000000     
  0.12500000000000000       0.95312500000000000        0.0000000000000000     
  0.10312499999999999       0.94687500000000002        0.0000000000000000     
  0.11406250000000000       0.94843750000000004        0.0000000000000000     
  0.11562500000000001       0.95937499999999998        0.0000000000000000     
  0.10468750000000000       0.95781249999999996        0.0000000000000000     
   1.5625000000000000E-002  0.90625000000000000        0.0000000000000000     
   3.1250000000000000E-002  0.90625000000000000        0.0000000000000000     
   3.1250000000000000E-002  0.92187500000000000        0.0000000000000000     
   9.3749999999999997E-003  0.91562500000000002        0.0000000000000000     
   2.0312500000000001E-002  0.91718750000000004        0.0000000000000000     
   2.1874999999999999E-002  0.92812499999999998        0.0000000000000000     
   1.0937499999999999E-002  0.92656249999999996        0.0000000000000000     
   4.6875000000000000E-002  0.90625000000000000        0.0000000000000000     
   6.2500000000000000E-002  0.90625000000000000        0.0000000000000000     
   6.2500000000000000E-002  0.92187500000000000        0.0000000000000000     
   4.0625000000000001E-002  0.91562500000000002        0.0000000000000000     
   5.1562499999999997E-002  0.91718750000000004        0.0000000000000000     
   5.3124999999999999E-002  0.92812499999999998        0.0000000000000000     
   4.2187500000000003E-002  0.92656249999999996        0.0000000000000000     
   1.5625000000000000E-002  0.87500000000000000        0.0000000000000000     
   3.1250000000000000E-002  0.87500000000000000        0.0000000000000000     
   3.1250000000000000E-002  0.89062500000000000        0.0000000000000000     
   9.3749999999999997E-003  0.88437500000000002        0.0000000000000000     
   2.0312500000000001E-002  0.88593750000000004        0.0000000000000000     
   2.1874999999999999E-002  0.89687499999999998        0.0000000000000000     
   1.0937499999999999E-002  0.89531249999999996        0.0000000000000000     
   4.6875000000000000E-002  0.87500000000000000        0.0000000000000000     
   6.2500000000000000E-002  0.87500000000000000        0.0000000000000000     
   6.2500000000000000E-002  0.89062500000000000        0.0000000000000000     
   4.0625000000000001E-002  0.88437500000000002        0.0000000000000000     
   5.1562499999999997E-002  0.88593750000000004        0.0000000000000000     
   5.3124999999999999E-002  0.89687499999999998        0.0000000000000000     
   4.2187500000000003E-002  0.89531249999999996        0.0000000000000000     
   7.8125000000000000E-002  0.90625000000000000        0.0000000000000000     
   9.3750000000000000E-002  0.90625000000000000        0.0000000000000000     
   9.3750000000000000E-002  0.92187500000000000        0.0000000000000000     
   7.1874999999999994E-002  0.91562500000000002        0.0000000000000000     
   8.2812499999999997E-002  0.91718750000000004        0.0000000000000000     
   8.4375000000000006E-002  0.92812499999999998        0.0000000000000000     
   7.3437500000000003E-002  0.92656249999999996        0.0000000000000000     
  0.10937500000000000       0.90625000000000000        0.0000000000000000     
  0.12500000000000000       0.90625000000000000        0.0000000000000000     
  0.12500000000000000       0.92187500000000000        0.0000000000000000     
  0.10312499999999999       0.91562500000000002        0.0000000000000000     
  0.11406250000000000       0.91718750000000004        0.0000000000000000     
  0.11562500000000001       0.92812499999999998        0.0000000000000000     
  0.10468750000000000       0.92656249999999996        0.0000000000000000     
   7.8125000000000000E-002  0.87500000000000000        0.0000000000000000     
   9.3750000000000000E-002  0.87500000000000000        0.0000000000000000     
   9.3750000000000000E-002  0.89062500000000000        0.0000000000000000     
   7.1874999999999994E-002  0.88437500000000002        0.0000000000000000     
   8.2812499999999997E-002  0.88593750000000004        0.0000000000000000     
   8.4375000000000006E-002  0.89687499999999998        0.0000000000000000     
   7.3437500000000003E-002  0.89531249999999996        0.0000000000000000     
  0.10937500000000000       0.87500000000000000        0.0000000000000000     
  0.12500000000000000       0.87500000000000000        0.0000000000000000     
  0.12500000000000000       0.89062500000000000        0.0000000000000000     
  0.10312499999999999       0.88437500000000002        0.0000000000000000     
  0.11406250000000000       0.88593750000000004        0.0000000000000000     
  0.11562500000000001       0.89687499999999998        0.0000000000000000     
  0.10468750000000000       0.89531249999999996        0.0000000000000000     
  0.14062500000000000       0.96875000000000000        0.0000000000000000     
  0.15625000000000000       0.96875000000000000        0.0000000000000000     
  0.15625000000000000       0.98437500000000000        0.0000000000000000     
  0.13437499999999999       0.97812500000000002        0.0000000000000000     
  0.14531250000000001       0.97968750000000004        0.0000000000000000     
  0.14687500000000001       0.99062499999999998        0.0000000000000000     
  0.13593749999999999       0.98906249999999996        0.0000000000000000     
  0.17187500000000000       0.96875000000000000        0.0000000000000000     
  0.18750000000000000       0.96875000000000000        0.0000000000000000     
  0.18750000000000000       0.98437500000000000        0.0000000000000000     
  0.16562499999999999       0.97812500000000002        0.0000000000000000     
  0.17656250000000001       0.97968750000000004        0.0000000000000000     
  0.17812500000000001       0.99062499999999998        0.0000000000000000     
[...]
 CELL_DATA       14336
 SCALARS Nutrients float
 LOOKUP_TABLE default
    0.12032474337623366242E-04
    0.11939638889091823388E-04
    0.12611090619627719398E-04
    0.12611090618845736887E-04
    0.11939638887504612394E-04
    0.12032474333751249992E-04
    0.11496081172877377718E-04
    0.11182905159176750241E-04
    0.10844869408196676936E-04
    0.10844869408464757782E-04
    0.11182905161067949502E-04
    0.11496081177814470187E-04
    0.11446789975990005319E-04
    0.11446789975470250656E-04
    0.14227591727813667586E-04
    0.14814611618043675568E-04
    0.16411017381513680937E-04
    0.16849933086205453112E-04
    0.15655867631099044729E-04
    0.16236397665293413474E-04
    0.14977833535925666591E-04
    0.13935683910923581553E-04
    0.12839290755337478750E-04
    0.12437567605692461558E-04
    0.13128716546148145919E-04
    0.13039723346761110398E-04
    0.14113352261088940779E-04
    0.14353886984100543785E-04
    0.16236397675017893809E-04
    0.15655867637553496773E-04
    0.16849933090696804657E-04
    0.16411017385037927533E-04
    0.14814611621224951747E-04
    0.14227591729187451689E-04
    0.13039723348263726517E-04
    0.13128716549632360043E-04
    0.12437567609963681099E-04
    0.12839290760576341953E-04
    0.13935683918151349267E-04
    0.14977833547131221305E-04
    0.14353886989687859402E-04
    0.14113352265651273685E-04
    0.19183896804737597230E-04
    0.19438667486937208839E-04
    0.21930878736206204564E-04
    0.21930878736338033384E-04
    0.19438667485834609111E-04
    0.19183896801408781464E-04
    0.16973539155019890071E-04
    0.16344132242532972396E-04
    0.14701500183049621842E-04
    0.14701500183708491503E-04
    0.16344132243800980718E-04
    0.16973539157993067195E-04
    0.17697658203642831177E-04
    0.17697658203293318278E-04
    0.20117448714658861373E-04
    0.21701805888333209710E-04
    0.24806153921646396899E-04
    0.25960234090693347988E-04
    0.23906340903060552651E-04
    0.25295771997677950010E-04
    0.22845270656933740222E-04
    0.20569354041243247946E-04
    0.18219157017683238186E-04
    0.17214269170390615442E-04
    0.18478772212192930813E-04
    0.17872316164912969961E-04
    0.20615228667670588693E-04
    0.21245252213917503427E-04
    0.31876373583140487885E-04
    0.35062325685028720794E-04
    0.40538066791698857446E-04
    0.42760505168110932595E-04
    0.39298758561194098936E-04
    0.41856434397387771431E-04
    0.37532210664723498399E-04
    0.33420278893408884402E-04
    0.29143289955589471630E-04
    0.27198799514776377786E-04
    0.29399512496342402820E-04
    0.27949088102992918309E-04
    0.33341078167096457668E-04
    0.34550435616270160338E-04
    0.26903848577580412543E-04
    0.28142043335000487307E-04
    0.32508448104258771440E-04
    0.33088882525682563847E-04
    0.29205395597101157704E-04
    0.29424487667448166327E-04
    0.25597598106426940230E-04
    0.23909856107794726652E-04
    0.20776334600604746554E-04
    0.20306035969139984466E-04
    0.22929338703530185344E-04
    0.23223712373122511437E-04
    0.25624157580566153528E-04
    0.25922025256638645354E-04
    0.41511058436970617715E-04
    0.44352275716298775752E-04
    0.51862831101094329926E-04
    0.53409835464905248373E-04
    0.47193072514262058149E-04
    0.48171651215393936909E-04
    0.41719432292690683084E-04
    0.38329247619579089089E-04
    0.32811934549084842113E-04
    0.31567626429102225863E-04
    0.35721063980462121974E-04
    0.35493178935145170891E-04
    0.40576577198242563219E-04
    0.41373394805263336450E-04
    0.25295772017354196725E-04
    0.23906340918965988257E-04
    0.25960234106080216470E-04
    0.24806153934405721746E-04
    0.21701805898711291161E-04
    0.20117448721251555971E-04
    0.17872316169322579438E-04
    0.18478772221107454528E-04
    0.17214269180577636753E-04
    0.18219157029692234143E-04
    0.20569354056638000612E-04
    0.22845270678534015501E-04
    0.21245252227356890699E-04
    0.20615228679310508678E-04
    0.29424487680357907284E-04
    0.29205395608246339297E-04
    0.33088882538437734845E-04
    0.32508448115666001310E-04
    0.28142043341791580737E-04
    0.26903848579537116250E-04
    0.23223712372380602055E-04
    0.22929338707118108488E-04
    0.20306035973463359214E-04
    0.20776334606764319324E-04
    0.23909856116408868766E-04
    0.25597598118180979270E-04
    0.25922025264781437350E-04
    0.25624157587384128397E-04
    0.41856434454114367508E-04
    0.39298758609580903482E-04
    0.42760505219133019270E-04
    0.40538066836418673404E-04
    0.35062325719755303027E-04
    0.31876373607840009284E-04
    0.27949088120453211638E-04
    0.29399512522051648479E-04
    0.27198799538770412220E-04
    0.29143289985535521881E-04
    0.33420278934254452974E-04
    0.37532210720371489497E-04
    0.34550435655396218146E-04
    0.33341078202029919228E-04
    0.48171651267850301085E-04
    0.47193072562550444243E-04
    0.53409835522124492365E-04
    0.51862831153888423079E-04
    0.44352275753270950748E-04
    0.41511058461370621488E-04
    0.35493178949874037076E-04
    0.35721064003011135141E-04
    0.31567626447608032288E-04
    0.32811934573536650421E-04
    0.38329247654449355215E-04
    0.41719432336739798025E-04
    0.41373394842339086634E-04
    0.40576577231900189872E-04
    0.40191006810324218139E-04
    0.41158254511258308766E-04
    0.47640694534222178570E-04
    0.47640694531675401220E-04
    0.41158254507077875911E-04
    0.40191006800937934343E-04
    0.34285446602575614643E-04
    0.32918464088842055114E-04
    0.28386823248582947025E-04
    0.28386823249932422976E-04
    0.32918464093519262629E-04
    0.34285446614790609013E-04
    0.36663563276675463173E-04
    0.36663563275389409661E-04
    0.60216050183067846061E-04
    0.63063309518801474230E-04
    0.73966842890303225117E-04
    0.74975599609938353924E-04
    0.64817166764148686662E-04
    0.64261442186881471343E-04
    0.54489525818244109051E-04
    0.51342877787256317409E-04
    0.43611776304265797446E-04
    0.42928155515016499946E-04
    0.49836250859140381086E-04
    0.50886250769267798554E-04
    0.56448210108291265027E-04
    0.56925474333720862139E-04
    0.64261442249280518318E-04
    0.64817166817503888321E-04
    0.74975599670889191400E-04
    0.73966842940239300357E-04
    0.63063309552719058683E-04
    0.60216050201424832185E-04
    0.50886250774833252251E-04
    0.49836250877921025985E-04
    0.42928155531057447271E-04
    0.43611776328689856954E-04
    0.51342877826539916569E-04
    0.54489525874712814088E-04
    0.56925474372692407585E-04
    0.56448210141444324318E-04
    0.93573179892737906311E-04
    0.96289710835799143689E-04
    0.11275179554734802826E-03
    0.11275179553658462475E-03
    0.96289710815760038223E-04
    0.93573179846936314083E-04
    0.78626553128341010956E-04
    0.75415250744614642162E-04
    0.64016452287223913654E-04
    0.64016452296613700779E-04
    0.75415250764881308111E-04
    0.78626553177218145934E-04
    0.84954230325229754630E-04
    0.84954230319423513183E-04
    0.52955860861407051861E-04
    0.58674640235963522992E-04
    0.68157233535181933827E-04
    0.72130460152031633568E-04
    0.66218642478724378366E-04
    0.70729778528987743784E-04
    0.63268426852990282470E-04
    0.56087801072440884788E-04
    0.48648814895739719291E-04
    0.45212068845210538390E-04
    0.48960604861146892310E-04
    0.46267838288529591483E-04
    0.55826459416544585489E-04
    0.57973885479041315958E-04
    0.89840140709455528368E-04
    0.99831862315799454457E-04
    0.11632586246239964281E-03
    0.12317567372414466855E-03
    0.11286342555277722771E-03
    0.12053607563106124103E-03
    0.10769910055436393483E-03
    0.95344527809643322752E-04
    0.82486073795863757091E-04
    0.76539042530836972852E-04
    0.82995344305405747217E-04
    0.78252749201934780122E-04
    0.94901636069908689992E-04
    0.98619155673552674366E-04
    0.67784204296168659612E-04
    0.73345859304813526862E-04
    0.86374943913848352493E-04
    0.89554602235895813052E-04
    0.79106904836851506951E-04
    0.81216230231251763765E-04
    0.70094835793473882603E-04
    0.63956463969388701761E-04
    0.54414196733944162840E-04
    0.51973690381091628484E-04
    0.58767893562854726073E-04
    0.57706281986567281432E-04
    0.67298391555529771756E-04
    0.68900905007198855038E-04
    0.11451321395109470786E-03
    0.12477166894807054987E-03
    0.14764120255661382082E-03
    0.15349298227873515782E-03
    0.13529519705166338241E-03
    0.13906421836394966605E-03
    0.11970042372061418749E-03
    0.10891017191382117689E-03
    0.92310767616780105456E-04
    0.87897073593201630439E-04
    0.99493759563956142827E-04
    0.97169926957812677044E-04
    0.11446531084979197476E-03
    0.11738343980700908706E-03
    0.15383991230541807504E-03
    0.17081749882147856303E-03
    0.19917361131137890332E-03
    0.21042363618782605359E-03
    0.19245868378463417249E-03
    0.20498322222944618848E-03
    0.18328873419332604639E-03
    0.16248139808044514531E-03
    0.14062449308972343131E-03
    0.13050084826735205892E-03
    0.14169704326167831981E-03
    0.13373547084180039627E-03
    0.16205270479701861159E-03
    0.16826557949851077148E-03
    0.26305585587169713060E-03
    0.29066372110103557824E-03
    0.33862578433614275077E-03
    0.35597207951939164065E-03
    0.32484543912386892438E-03
    0.34416751554344044393E-03
    0.30855245156837581445E-03
    0.27461292598318100787E-03
    0.23832508566786912620E-03
    0.22164798587501647145E-03
    0.24091112573582080083E-03
    0.22828427926350192937E-03
    0.27491646606373978815E-03
    0.28485795651670732520E-03
    0.19753991698012843313E-03
    0.21568073253475729444E-03
    0.25620134589550132374E-03
    0.26613646985492795576E-03
    0.23353297577960002414E-03
    0.23918904678854707962E-03
    0.20535300887489975428E-03
    0.18711470268522378065E-03
    0.15824608549041817318E-03
    0.15069436198589028215E-03
    0.17105902985947851335E-03
    0.16695630572888443431E-03
    0.19731628584100489735E-03
    0.20228295520250335628E-03
    0.34431256689315800548E-03
    0.37489788001592331754E-03
    0.44643244611441106192E-03
    0.46161496428904217259E-03
    0.40256632437382595729E-03
    0.40905000547539026442E-03
    0.35028660815555141741E-03
    0.32097103083577059645E-03
    0.27127621961761671805E-03
    0.25914699510946735033E-03
    0.29558787000946159596E-03
    0.28971538602992776392E-03
    0.34107941004582264600E-03
    0.34884976156973450129E-03
    0.95992721264357997661E-04
    0.10215436315442928282E-03
    0.12080505256883998023E-03
    0.12364547413536589667E-03
    0.10699509047758610440E-03
    0.10717965708523437978E-03
    0.90533787401169733508E-04
    0.84283111137997777235E-04
    0.70986704267395745165E-04
    0.69155932223630047894E-04
    0.80219861983042166820E-04
    0.80757549676372465718E-04
    0.91814578573585361814E-04
    0.93115529049756090032E-04
    0.15979000340576662181E-03
    0.17209986883452016437E-03
    0.20494580372040378520E-03
    0.21120896040319458173E-03
    0.18257661566183330370E-03
    0.18388799137377165901E-03
    0.15471776635802005572E-03
    0.14307484228296131978E-03
    0.11975113225470115409E-03
    0.11591201288175214030E-03
    0.13445181214555306957E-03
    0.13397951955192269639E-03
    0.15506724258328356369E-03
    0.15786246952493007190E-03
    0.14438854603493887665E-03
    0.15124133685356344592E-03
    0.17851734177939696468E-03
    0.18073741563352750130E-03
    0.15488151777233005301E-03
    0.15273378654697956870E-03
    0.12792095474528389853E-03
    0.12084244880923396465E-03
    0.10159955370566237608E-03
    0.10032014994326020243E-03
    0.11791659798524842294E-03
    0.12088679643901081883E-03
    0.13434894618174952267E-03
    0.13530919438172974876E-03
    0.23338234710578616691E-03
    0.24858418756991927656E-03
    0.29559247155310684968E-03
    0.30275902652413005283E-03
    0.26003619053943069798E-03
    0.25949686403974162084E-03
    0.21650762912371282086E-03
    0.20202147860029612248E-03
    0.16856484553855167162E-03
    0.16478018602988003588E-03
    0.19314033590242779114E-03
    0.19510005311079207609E-03
    0.22213879811928440022E-03
    0.22511473644414505967E-03
    0.27536702721457650706E-03
    0.29888636766102033267E-03
    0.35814655048371129079E-03
    0.37021802746584200417E-03
    0.31882883418711673940E-03
    0.32118408363564237727E-03
    0.26898232846683003657E-03
    0.24819784023088212665E-03
    0.20670749913665690395E-03
    0.19952060453419024526E-03
    0.23194541123995542184E-03
    0.22991152963407947437E-03
    0.26902104179529919394E-03
    0.27432001297862364459E-03
    0.48677735929347906111E-03
    0.52968512366218965456E-03
    0.63800563106096214085E-03
    0.65869876969822018647E-03
    0.56370499509570803215E-03
    0.56481358722534609571E-03
    0.47057073024767164708E-03
    0.43544341134137191885E-03
    0.36126276100078761168E-03
    0.34908436729747329991E-03
    0.40783636681807837032E-03
    0.40426017923963044384E-03
    0.47472340523480781533E-03
    0.48374789696584656997E-03
    0.39475185839402810156E-03
    0.42683742901606080153E-03
    0.51172323877463673364E-03
    0.52871318362225649696E-03
    0.45368389108696319592E-03
    0.45580565310222978569E-03
    0.37834752979074384206E-03
    0.35021742749487451288E-03
    0.29006710192917470846E-03
    0.28148870241792925406E-03
    0.32975563881670113273E-03
    0.32900863741084816153E-03
    0.38270073577574852033E-03
    0.38962873079429930596E-03
    0.69669963788858066660E-03
    0.76093858672275497320E-03
    0.91931613993160915185E-03
    0.95373925457823099765E-03
    0.81481950511513411960E-03
    0.81890634033978402032E-03
    0.67566445264222987823E-03
    0.62374386198940136045E-03
    0.51326137529998400611E-03
    0.49644474974477946320E-03
    0.58321881635369681243E-03
    0.57784663726465318023E-03
    0.68170490259191417713E-03
    0.69553484999608982883E-03
    0.70729778671068142338E-04
    0.66218642603892320783E-04
    0.72130460286647435689E-04
    0.68157233656406538075E-04
    0.58674640333087912144E-04
    0.52955860937258655776E-04
    0.46267838346513970500E-04
    0.48960604934759645844E-04
    0.45212068912649343311E-04
    0.48648814975818444517E-04
    0.56087801177035264278E-04
    0.63268426987854285573E-04
    0.57973885582443472858E-04
    0.55826459511412939655E-04
    0.81216230376826966048E-04
    0.79106904975179983229E-04
    0.89554602398909661891E-04
    0.86374944068012577281E-04
    0.73345859420886463172E-04
    0.67784204386882920259E-04
    0.57706282051382615250E-04
    0.58767893641403635258E-04
    0.51973690446084663038E-04
    0.54414196811257542334E-04
    0.63956464071988677802E-04
    0.70094835915891285424E-04
    0.68900905118471838596E-04
    0.67298391660006664388E-04
    0.12053607594793252610E-03
    0.11286342583720983430E-03
    0.12317567403285874174E-03
    0.11632586274415847132E-03
    0.99831862546785000360E-04
    0.89840140898831427770E-04
    0.78252749352257093855E-04
    0.82995344484663506027E-04
    0.76539042694820586324E-04
    0.82486073984971790794E-04
    0.95344528048277101830E-04
    0.10769910085147606899E-03
    0.98619155912848738342E-04
    0.94901636292603883983E-04
    0.13906421870445823900E-03
    0.13529519738193884868E-03
    0.15349298266588453613E-03
    0.14764120292884942904E-03
    0.12477166923715571193E-03
    0.11451321419208502746E-03
    0.97169927139702824519E-04
    0.99493759768520250992E-04
    0.87897073764891061774E-04
    0.92310767811141369735E-04
    0.10891017216268235703E-03
    0.11970042400893140914E-03
    0.11738344007867740858E-03
    0.11446531110909254460E-03
    0.10717965727580370118E-03
    0.10699509065511091511E-03
    0.12364547434271912847E-03
    0.12080505275721596062E-03
    0.10215436329643781232E-03
    0.95992721374376477990E-04
    0.80757549749334758935E-04
    0.80219862077337384613E-04
    0.69155932302150625521E-04
    0.70986704361426471838E-04
    0.84283111269426512859E-04
    0.90533787565867145032E-04
    0.93115529189938186106E-04
    0.91814578703308552554E-04
    0.15273378676364319693E-03
    0.15488151794961082337E-03
    0.18073741582651757509E-03
    0.17851734193189482494E-03
    0.15124133696106881338E-03
    0.14438854608925924864E-03
    0.12088679646329593105E-03
    0.11791659805493245471E-03
    0.10032015001177480018E-03
    0.10159955380713476831E-03
    0.12084244894963153236E-03
    0.12792095493922240527E-03
    0.13530919451452369821E-03
    0.13434894629387987976E-03
    0.18388799184012734572E-03
    0.18257661610974828354E-03
    0.21120896093164811050E-03
    0.20494580421314355888E-03
    0.17209986922138472277E-03
    0.15979000373033509178E-03
    0.13397951978962155438E-03
    0.13445181241588410903E-03
    0.11591201310675470625E-03
    0.11975113250711218833E-03
    0.14307484261812382733E-03
    0.15471776675493026224E-03
    0.15786246989069806180E-03
    0.15506724293048816925E-03
    0.25949686463559647502E-03
    0.26003619107966435440E-03
    0.30275902713489360844E-03
    0.29559247209884792788E-03
    0.24858418799053241940E-03
    0.23338234742820507055E-03
    0.19510005333944578773E-03
    0.19314033620170846517E-03
    0.16478018629467215748E-03
    0.16856484586063314444E-03
    0.20202147901898990221E-03
    0.21650762964193554687E-03
    0.22511473687713840896E-03
    0.22213879851739365304E-03
    0.20498322288529550539E-03
    0.19245868438212630747E-03
    0.21042363683788434855E-03
    0.19917361191384771600E-03
    0.17081749931998282282E-03
    0.15383991272682691386E-03
    0.13373547118200720864E-03
    0.14169704365437436801E-03
    0.13050084862661372447E-03
    0.14062449349693838317E-03
    0.16248139858317483912E-03
    0.18328873480503096055E-03
    0.16826558000660921761E-03
    0.16205270527450439254E-03
    0.23918904751897842004E-03
    0.23353297649465821800E-03
    0.26613647069539399887E-03
    0.25620134670595025392E-03
    0.21568073317809879430E-03
    0.19753991753300933500E-03
    0.16695630615806198826E-03
    0.17105903032470657558E-03
    0.15069436237941433556E-03
    0.15824608592321986263E-03
    0.18711470323008492036E-03
    0.20535300949345471197E-03
    0.20228295579967662740E-03
    0.19731628641604187719E-03
    0.34416751682111974093E-03
    0.32484544031364360290E-03
    0.35597208083261547588E-03
    0.33862578555494883981E-03
    0.29066372211556740701E-03
    0.26305585674396645551E-03
    0.22828427997705042591E-03
    0.24091112654015000606E-03
    0.22164798661067979207E-03
    0.23832508649091130857E-03
    0.27461292698266286365E-03
    0.30855245276065445788E-03
    0.28485795753555585071E-03
    0.27491646702844943712E-03
    0.40905000693852814351E-03
    0.40256632583563015928E-03
    0.46161496602218824283E-03
    0.44643244778691911412E-03
    0.37489788135549575922E-03
    0.34431256806862685317E-03
    0.28971538695201373920E-03
    0.29558787099009058543E-03
    0.25914699593940123670E-03
    0.27127622051793397369E-03
    0.32097103195435753610E-03
    0.35028660940650973871E-03
    0.34884976280143099522E-03
    0.34107941123953211104E-03
    0.32118408465870411242E-03
    0.31882883519026010855E-03
    0.37021802865012883076E-03
    0.35814655161019214383E-03
    0.29888636855865142322E-03
    0.27536702799771671556E-03
    0.22991153022563755402E-03
    0.23194541188233875804E-03
    0.19952060506849488789E-03
    0.20670749972033313196E-03
    0.24819784098490478477E-03
    0.26898232933555250249E-03
    0.27432001381053511572E-03
    0.26902104259537610404E-03
    0.45580565449112599944E-03
    0.45368389239405776522E-03
    0.52871318512768769333E-03
    0.51172324016332093165E-03
    0.42683743012059203580E-03
    0.39475185931344628897E-03
    0.32900863810798636373E-03
    0.32975563962098355464E-03
    0.28148870311592977646E-03
    0.29006710272221221912E-03
    0.35021742850422580683E-03
    0.37834753098039595152E-03