# vtk DataFile Version 3.0
LAPLACIEN  2D
ASCII
DATASET UNSTRUCTURED_GRID
FIELD FieldData 1
TIME 1 1 double
11.7000
 POINTS        7297  float
   1.5625000000000000E-002  0.96875000000000000        0.0000000000000000     
   3.1250000000000000E-002  0.96875000000000000        0.0000000000000000     
   3.1250000000000000E-002  0.98437500000000000        0.0000000000000000     
   9.3749999999999997E-003  0.97812500000000002        0.0000000000000000     
   2.0312500000000001E-002  0.97968750000000004        0.0000000000000000     
   2.1874999999999999E-002  0.99062499999999998        0.0000000000000000     
   1.0937499999999999E-002  0.98906249999999996        0.0000000000000000     
   4.6875000000000000E-002  0.96875000000000000        0.0000000000000000     
   6.2500000000000000E-002  0.96875000000000000        0.0000000000000000     
   6.2500000000000000E-002  0.98437500000000000        0.0000000000000000     
   4.0625000000000001E-002  0.97812500000000002        0.0000000000000000     
   5.1562499999999997E-002  0.97968750000000004        0.0000000000000000     
   5.3124999999999999E-002  0.99062499999999998        0.0000000000000000     
   4.2187500000000003E-002  0.98906249999999996        0.0000000000000000     
   1.5625000000000000E-002  0.93750000000000000        0.0000000000000000     
   3.1250000000000000E-002  0.93750000000000000        0.0000000000000000     
   3.1250000000000000E-002  0.95312500000000000        0.0000000000000000     
   9.3749999999999997E-003  0.94687500000000002        0.0000000000000000     
   2.0312500000000001E-002  0.94843750000000004        0.0000000000000000     
   2.1874999999999999E-002  0.95937499999999998        0.0000000000000000     
   1.0937499999999999E-002  0.95781249999999996        0.0000000000000000     
   4.6875000000000000E-002  0.93750000000000000        0.0000000000000000     
   6.2500000000000000E-002  0.93750000000000000        0.0000000000000000     
   6.2500000000000000E-002  0.95312500000000000        0.0000000000000000     
   4.0625000000000001E-002  0.94687500000000002        0.0000000000000000     
   5.1562499999999997E-002  0.94843750000000004        0.0000000000000000     
   5.3124999999999999E-002  0.95937499999999998        0.0000000000000000     
   4.2187500000000003E-002  0.95781249999999996        0.0000000000000000     
   7.8125000000000000E-002  0.96875000000000000        0.0000000000000000     
   9.3750000000000000E-002  0.96875000000000000        0.0000000000000000     
   9.3750000000000000E-002  0.98437500000000000        0.0000000000000000     
   7.1874999999999994E-002  0.97812500000000002        0.0000000000000000     
   8.2812499999999997E-002  0.97968750000000004        0.0000000000000000     
   8.4375000000000006E-002  0.99062499999999998        0.0000000000000000     
   7.3437500000000003E-002  0.98906249999999996        0.0000000000000000     
  0.10937500000000000       0.96875000000000000        0.0000000000000000     
  0.12500000000000000       0.96875000000000000        0.0000000000000000     
  0.12500000000000000       0.98437500000000000        0.0000000000000000     
  0.10312499999999999       0.97812500000000002        0.0000000000000000     
  0.11406250000000000       0.97968750000000004        0.0000000000000000     
  0.11562500000000001       0.99062499999999998        0.0000000000000000     
  0.10468750000000000       0.98906249999999996        0.0000000000000000     
   7.8125000000000000E-002  0.93750000000000000        0.0000000000000000     
   9.3750000000000000E-002  0.93750000000000000        0.0000000000000000     
   9.3750000000000000E-002  0.95312500000000000        0.0000000000000000     
   7.1874999999999994E-002  0.94687500000000002        0.0000000000000000     
   8.2812499999999997E-002  0.94843750000000004        0.0000000000000000     
   8.4375000000000006E-002  0.95937499999999998        0.0000000000000000     
   7.3437500000000003E-002  0.95781249999999996        0.0000000000000000     
  0.10937500000000000       0.93750000000000000        0.0000000000000000     
  0.12500000000000000       0.93750000000000000        0.0000000000000000     
  0.12500000000000000       0.95312500000000000        0.0000000000000000     
  0.10312499999999999       0.94687500000000002        0.0000000000000000     
  0.11406250000000000       0.94843750000000004        0.0000000000000000     
  0.11562500000000001       0.95937499999999998        0.0000000000000000     
  0.10468750000000000       0.95781249999999996        0.0000000000000000     
   1.5625000000000000E-002  0.90625000000000000        0.0000000000000000     
   3.1250000000000000E-002  0.90625000000000000        0.0000000000000000     
   3.1250000000000000E-002  0.92187500000000000        0.0000000000000000     
   9.3749999999999997E-003  0.91562500000000002        0.0000000000000000     
   2.0312500000000001E-002  0.91718750000000004        0.0000000000000000     
   2.1874999999999999E-002  0.92812499999999998        0.0000000000000000     
   1.0937499999999999E-002  0.92656249999999996        0.0000000000000000     
   4.6875000000000000E-002  0.90625000000000000        0.0000000000000000     
   6.2500000000000000E-002  0.90625000000000000        0.0000000000000000     
   6.2500000000000000E-002  0.92187500000000000        0.0000000000000000     
   4.0625000000000001E-002  0.91562500000000002        0.0000000000000000     
   5.1562499999999997E-002  0.91718750000000004        0.0000000000000000     
   5.3124999999999999E-002  0.92812499999999998        0.0000000000000000     
   4.2187500000000003E-002  0.92656249999999996        0.0000000000000000     
   1.5625000000000000E-002  0.87500000000000000        0.0000000000000000     
   3.1250000000000000E-002  0.87500000000000000        0.0000000000000000     
   3.1250000000000000E-002  0.89062500000000000        0.0000000000000000     
   9.3749999999999997E-003  0.88437500000000002        0.0000000000000000     
   2.0312500000000001E-002  0.88593750000000004        0.0000000000000000     
   2.1874999999999999E-002  0.89687499999999998        0.0000000000000000     
   1.0937499999999999E-002  0.89531249999999996        0.0000000000000000     
   4.6875000000000000E-002  0.87500000000000000        0.0000000000000000     
   6.2500000000000000E-002  0.87500000000000000        0.0000000000000000     
   6.2500000000000000E-002  0.89062500000000000        0.0000000000000000     
   4.0625000000000001E-002  0.88437500000000002        0.0000000000000000     
   5.1562499999999997E-002  0.88593750000000004        0.0000000000000000     
   5.3124999999999999E-002  0.89687499999999998        0.0000000000000000     
   4.2187500000000003E-002  0.89531249999999996        0.0000000000000000     
   7.8125000000000000E-002  0.90625000000000000        0.0000000000000000     
   9.3750000000000000E-002  0.90625000000000000        0.0000000000000000     
   9.3750000000000000E-002  0.92187500000000000        0.0000000000000000     
   7.1874999999999994E-002  0.91562500000000002        0.0000000000000000     
   8.2812499999999997E-002  0.91718750000000004        0.0000000000000000     
   8.4375000000000006E-002  0.92812499999999998        0.0000000000000000     
   7.3437500000000003E-002  0.92656249999999996        0.0000000000000000     
  0.10937500000000000       0.90625000000000000        0.0000000000000000     
  0.12500000000000000       0.90625000000000000        0.0000000000000000     
  0.12500000000000000       0.92187500000000000        0.0000000000000000     
  0.10312499999999999       0.91562500000000002        0.0000000000000000     
  0.11406250000000000       0.91718750000000004        0.0000000000000000     
  0.11562500000000001       0.92812499999999998        0.0000000000000000     
  0.10468750000000000       0.92656249999999996        0.0000000000000000     
   7.8125000000000000E-002  0.87500000000000000        0.0000000000000000     
   9.3750000000000000E-002  0.87500000000000000        0.0000000000000000     
   9.3750000000000000E-002  0.89062500000000000        0.0000000000000000     
   7.1874999999999994E-002  0.88437500000000002        0.0000000000000000     
   8.2812499999999997E-002  0.88593750000000004        0.0000000000000000     
   8.4375000000000006E-002  0.89687499999999998        0.0000000000000000     
   7.3437500000000003E-002  0.89531249999999996        0.0000000000000000     
  0.10937500000000000       0.87500000000000000        0.0000000000000000     
  0.12500000000000000       0.87500000000000000        0.0000000000000000     
  0.12500000000000000       0.89062500000000000        0.0000000000000000     
  0.10312499999999999       0.88437500000000002        0.0000000000000000     
  0.11406250000000000       0.88593750000000004        0.0000000000000000     
  0.11562500000000001       0.89687499999999998        0.0000000000000000     
  0.10468750000000000       0.89531249999999996        0.0000000000000000     
  0.14062500000000000       0.96875000000000000        0.0000000000000000     
  0.15625000000000000       0.96875000000000000        0.0000000000000000     
  0.15625000000000000       0.98437500000000000        0.0000000000000000     
  0.13437499999999999       0.97812500000000002        0.0000000000000000     
  0.14531250000000001       0.97968750000000004        0.0000000000000000     
  0.14687500000000001       0.99062499999999998        0.0000000000000000     
  0.13593749999999999       0.98906249999999996        0.0000000000000000     
  0.17187500000000000       0.96875000000000000        0.0000000000000000     
  0.18750000000000000       0.96875000000000000        0.0000000000000000     
  0.18750000000000000       0.98437500000000000        0.0000000000000000     
  0.16562499999999999       0.97812500000000002        0.0000000000000000     
  0.17656250000000001       0.97968750000000004        0.0000000000000000     
[...]
 CELL_DATA       14336
 SCALARS Nutrient float
 LOOKUP_TABLE default
    0.64454544227250630539E-02
    0.64453709523837367235E-02
    0.64460226295035127214E-02
    0.64460226294178208511E-02
    0.64453709527269561000E-02
    0.64454544224284435541E-02
    0.64449376962702389221E-02
    0.64446319815004054002E-02
    0.64443018975596641149E-02
    0.64443018955903531159E-02
    0.64446319825141821364E-02
    0.64449376958489752037E-02
    0.64448897553508665767E-02
    0.64448897550308456572E-02
    0.64475960360740602884E-02
    0.64481665893268563794E-02
    0.64497150272925882902E-02
    0.64501438615697402265E-02
    0.64489829599588214398E-02
    0.64495391696822437430E-02
    0.64483224154700544486E-02
    0.64473101342923371665E-02
    0.64462413628947647093E-02
    0.64458588509253168103E-02
    0.64465244496469649785E-02
    0.64464422878888873528E-02
    0.64474857149173590148E-02
    0.64477146655226762542E-02
    0.64495391697360028235E-02
    0.64489829599062367671E-02
    0.64501438615915058020E-02
    0.64497150272703395943E-02
    0.64481665894107250553E-02
    0.64475960359688076762E-02
    0.64464422880989233344E-02
    0.64465244494419987262E-02
    0.64458588511909177196E-02
    0.64462413626422019816E-02
    0.64473101344239662491E-02
    0.64483224154261173725E-02
    0.64477146655876112907E-02
    0.64474857148867385434E-02
    0.64524121803230492789E-02
    0.64526614228015474056E-02
    0.64550817678893455259E-02
    0.64550817678815756995E-02
    0.64526614228250104080E-02
    0.64524121802949528301E-02
    0.64502665417162756423E-02
    0.64496547395141972520E-02
    0.64480588731419654150E-02
    0.64480588730391639671E-02
    0.64496547395787671292E-02
    0.64502665416735225148E-02
    0.64509712306762773473E-02
    0.64509712306577930013E-02
    0.64533182392734270150E-02
    0.64548597299242185810E-02
    0.64578790390119981957E-02
    0.64590034773533014714E-02
    0.64570060703897941973E-02
    0.64583574136162719484E-02
    0.64559723880534911761E-02
    0.64537588534114478239E-02
    0.64514693692493043503E-02
    0.64505017178903409011E-02
    0.64517235349993767510E-02
    0.64511361057996378238E-02
    0.64538053571312889098E-02
    0.64544138649557051407E-02
    0.64647607452054754035E-02
    0.64678664512723355387E-02
    0.64732001951794231054E-02
    0.64753678974750856698E-02
    0.64720008281052938612E-02
    0.64744982352526996711E-02
    0.64702827775309380148E-02
    0.64662740768336932073E-02
    0.64621060905603738833E-02
    0.64602123092075032507E-02
    0.64623538846983151485E-02
    0.64609395301167705378E-02
    0.64661938086299480116E-02
    0.64673729996272757981E-02
    0.64599133057282138656E-02
    0.64611176335024663592E-02
    0.64653620895021510218E-02
    0.64659277878263256636E-02
    0.64621542752849982574E-02
    0.64623703151011346879E-02
    0.64586487279246320228E-02
    0.64570055527098275949E-02
    0.64539603983637290618E-02
    0.64535016999834162246E-02
    0.64560519629202808151E-02
    0.64563374868763599018E-02
    0.64586707502383832596E-02
    0.64589618183786643574E-02
    0.64741146631610976478E-02
    0.64768847091685333855E-02
    0.64841897537503368973E-02
    0.64857004034426521746E-02
    0.64796609917553002131E-02
    0.64806240349223713515E-02
    0.64743445355464127045E-02
    0.64710393463736307768E-02
    0.64656702777094073042E-02
    0.64644551339568976853E-02
    0.64684936264241396295E-02
    0.64682670791374767202E-02
    0.64732182257004611259E-02
    0.64739965796471324669E-02
    0.64583574136455896425E-02
    0.64570060703967643162E-02
    0.64590034773728925710E-02
    0.64578790390209476341E-02
    0.64548597299513791464E-02
    0.64533182392560277385E-02
    0.64511361058482907457E-02
    0.64517235349715032142E-02
    0.64505017179421180601E-02
    0.64514693692235489109E-02
    0.64537588534459523412E-02
    0.64559723880672752888E-02
    0.64544138649787361969E-02
    0.64538053571399208938E-02
    0.64623703151198462827E-02
    0.64621542752907566720E-02
    0.64659277878418254179E-02
    0.64653620895115740397E-02
    0.64611176335163805762E-02
    0.64599133057217936540E-02
    0.64563374868918197574E-02
    0.64560519629058643956E-02
    0.64535017000133766338E-02
    0.64539603983497324455E-02
    0.64570055527309860172E-02
    0.64586487279279045787E-02
    0.64589618183927772002E-02
    0.64586707502424459820E-02
    0.64744982353120705820E-02
    0.64720008281527593649E-02
    0.64753678975278689683E-02
    0.64732001952240584078E-02
    0.64678664513112748766E-02
    0.64647607452261723893E-02
    0.64609395301428286865E-02
    0.64623538847193399970E-02
    0.64602123092370013560E-02
    0.64621060905858986045E-02
    0.64662740768783484591E-02
    0.64702827775859296164E-02
    0.64673729996693619243E-02
    0.64661938086645800311E-02
    0.64806240349766178893E-02
    0.64796609918026841848E-02
    0.64857004035010351606E-02
    0.64841897538023959488E-02
    0.64768847092076678798E-02
    0.64741146631837245135E-02
    0.64682670791570062371E-02
    0.64684936264429726549E-02
    0.64644551339817016289E-02
    0.64656702777308684357E-02
    0.64710393464113792270E-02
    0.64743445355894477244E-02
    0.64739965796860440492E-02
    0.64732182257343012441E-02
    0.64728234435013657852E-02
    0.64737592744191670147E-02
    0.64800535866911465610E-02
    0.64800535866874550694E-02
    0.64737592744170827444E-02
    0.64728234434892808341E-02
    0.64670862745911132305E-02
    0.64657568411701869110E-02
    0.64613537308058034345E-02
    0.64613537307990596970E-02
    0.64657568411802864711E-02
    0.64670862745994303622E-02
    0.64693937808239978388E-02
    0.64693937808211650353E-02
    0.64922707633379974843E-02
    0.64950410937191808622E-02
    0.65056363479004978775E-02
    0.65066233112303709096E-02
    0.64967599009350023367E-02
    0.64962349578922308491E-02
    0.64867364442226004353E-02
    0.64836685436371506441E-02
    0.64761534945762038937E-02
    0.64754833962046556492E-02
    0.64821918906880658315E-02
    0.64832069586650059242E-02
    0.64886191072112894829E-02
    0.64890868601541213528E-02
    0.64962349579551726883E-02
    0.64967599009875115490E-02
    0.65066233112915563414E-02
    0.65056363479494882032E-02
    0.64950410937537512990E-02
    0.64922707633554080364E-02
    0.64832069586721165558E-02
    0.64821918907053237280E-02
    0.64754833962235225017E-02
    0.64761534945988784642E-02
    0.64836685436779183805E-02
    0.64867364442782373540E-02
    0.64890868601936105980E-02
    0.64886191072441390740E-02
    0.65246709071118298706E-02
    0.65273010254480387515E-02
    0.65432753543269240107E-02
    0.65432753543156691248E-02
    0.65273010254285699500E-02
    0.65246709070661337848E-02
    0.65101571055135847715E-02
    0.65070345337595774174E-02
    0.64959618250367851672E-02
    0.64959618250451127072E-02
    0.65070345337802674643E-02
    0.65101571055615576819E-02
    0.65162958178370481571E-02
    0.65162958178311145355E-02
    0.64852973468296978843E-02
    0.64908810496525368508E-02
    0.65001216436668795423E-02
    0.65040022160598228579E-02
    0.64982517573925315316E-02
    0.65026599387707053126E-02
    0.64953842675969878512E-02
    0.64883780715693740657E-02
    0.64811239893720401159E-02
    0.64777693492619010593E-02
    0.64814203103664667915E-02
    0.64787880243676338604E-02
    0.64881142453541785012E-02
    0.64902119189393552359E-02
    0.65212582365601215809E-02
    0.65310180093703651405E-02
    0.65470982300419432870E-02
    0.65537950188370788784E-02
    0.65437541812591133381E-02
    0.65512546840488170008E-02
    0.65387324013639804704E-02
    0.65266732593655882311E-02
    0.65141303603886710830E-02
    0.65083255816093107601E-02
    0.65146139229479991042E-02
    0.65099750235815753707E-02
    0.65262266265402116283E-02
    0.65298586832268860208E-02
    0.64996815779692334453E-02
    0.65051089325420157275E-02
    0.65177886796574406245E-02
    0.65208992315567747625E-02
    0.65107457294644533255E-02
    0.65128243240749287418E-02
    0.65019976998886572575E-02
    0.64960042256386818851E-02
    0.64867130511029030132E-02
    0.64843256135279246297E-02
    0.64909311079733508776E-02
    0.64898846808931201155E-02
    0.64992377797029217412E-02
    0.65008051606288072555E-02
    0.65451885682573807818E-02
    0.65552114289501592706E-02
    0.65774839622946817269E-02
    0.65832163909023480586E-02
    0.65655186232722448011E-02
    0.65692333818884417196E-02
    0.65503710708118938200E-02
    0.65398283434971804864E-02
    0.65236560229242112133E-02
    0.65193341216476415056E-02
    0.65306119527436855624E-02
    0.65283200945732873521E-02
    0.65452008122807419505E-02
    0.65480580264278441180E-02
    0.65836935208040568354E-02
    0.66002853413176876610E-02
    0.66279514641702438893E-02
    0.66389569832939771682E-02
    0.66214479155188186651E-02
    0.66336980816513579223E-02
    0.66125200156944502830E-02
    0.65922001211507546756E-02
    0.65708663470017579164E-02
    0.65609792431678953112E-02
    0.65718914110529970396E-02
    0.65640999304699713598E-02
    0.65917575681354798056E-02
    0.65978307296268301485E-02
    0.66903105925324090827E-02
    0.67173041187613474409E-02
    0.67641196469758668383E-02
    0.67810994290665753056E-02
    0.67507446136192798825E-02
    0.67696534608369038355E-02
    0.67348690477582887418E-02
    0.67017056999481910626E-02
    0.66662672582362839449E-02
    0.66499721615680840864E-02
    0.66687600655679158193E-02
    0.66563957098146192548E-02
    0.67019669561010656797E-02
    0.67116890540458301606E-02
    0.66261189970812746017E-02
    0.66438538817223703747E-02
    0.66833451350529976889E-02
    0.66930882267989318807E-02
    0.66613518202673707713E-02
    0.66669364017995563429E-02
    0.66339534694354581126E-02
    0.66161209427905093641E-02
    0.65879717678160674282E-02
    0.65805793538021850608E-02
    0.66003955050581751898E-02
    0.65963452261348070466E-02
    0.66260024576193250062E-02
    0.66308680555809147023E-02
    0.67692874885474764793E-02
    0.67992073973810115972E-02
    0.68689740049005130682E-02
    0.68838753469304212601E-02
    0.68263499587724683210E-02
    0.68327837026223529199E-02
    0.67754653342202569855E-02
    0.67467886048351273856E-02
    0.66982983443387945563E-02
    0.66864200692416126542E-02
    0.67219087656072550735E-02
    0.67160958581803176584E-02
    0.67663029193723162047E-02
    0.67739212558324780541E-02
    0.65270394968361365728E-02
    0.65330461134347492594E-02
    0.65511702385428038226E-02
    0.65539542259942960498E-02
    0.65377907186215189830E-02
    0.65380049885890301198E-02
    0.65218197314397142322E-02
    0.65157194667221154938E-02
    0.65027900837723306982E-02
    0.65009946315063397992E-02
    0.65117398229896875789E-02
    0.65122449832155857030E-02
    0.65230142013439273638E-02
    0.65242891990964675675E-02
    0.65890820931477816005E-02
    0.66011029860416963952E-02
    0.66330464184299877881E-02
    0.66391958296871042555E-02
    0.66113847897033249656E-02
    0.66127303003777173143E-02
    0.65843486021816980194E-02
    0.65729701046439766715E-02
    0.65502715829948224280E-02
    0.65465055621794811247E-02
    0.65645140524673026641E-02
    0.65640104265849395782E-02
    0.65845799125076936650E-02
    0.65873224247363117156E-02
    0.65739696208880803521E-02
    0.65806299834147265540E-02
    0.66070951049615337172E-02
    0.66092747951733204700E-02
    0.65842011473685509854E-02
    0.65821578800272393869E-02
    0.65580660424075865392E-02
    0.65511655384495543278E-02
    0.65324782509228107238E-02
    0.65312231549465686598E-02
    0.65482979684616188579E-02
    0.65511701540979828950E-02
    0.65642521275927510557E-02
    0.65651940517621742988E-02
    0.66603556049478589152E-02
    0.66751756162430056149E-02
    0.67208108419746157014E-02
    0.67278510902859722451E-02
    0.66864246775062688086E-02
    0.66860079586685688957E-02
    0.66442476008211123067E-02
    0.66300985224842547139E-02
    0.65975852081970711230E-02
    0.65938674791906470157E-02
    0.66213775329731225719E-02
    0.66232233095810683771E-02
    0.66495552765916737456E-02
    0.66524779236181467643E-02
    0.67015976891157827758E-02
    0.67245891659236676011E-02
    0.67822695351608406136E-02
    0.67941269984686967695E-02
    0.67441729527194030358E-02
    0.67465867388958556880E-02
    0.66957576847434139775E-02
    0.66754311626194221679E-02
    0.66350154728840272586E-02
    0.66279655386998507713E-02
    0.66594807849196715338E-02
    0.66574111343298859877E-02
    0.66955999606703106575E-02
    0.67008014174718757983E-02
    0.69075948405636555458E-02
    0.69495681027830942533E-02
    0.70550941073637086706E-02
    0.70754369446386035022E-02
    0.69830004798793771786E-02
    0.69842809075994979895E-02
    0.68924410950188330985E-02
    0.68580662638956270405E-02
    0.67857534688431026329E-02
    0.67738016043039630740E-02
    0.68309511532854746280E-02
    0.68273111992124702746E-02
    0.68961622119250720608E-02
    0.69050282756873511067E-02
    0.68171709419666730659E-02
    0.68485017403448235351E-02
    0.69309881689407007443E-02
    0.69476782598215415521E-02
    0.68748794086782947371E-02
    0.68771590616884935993E-02
    0.68018502006313517200E-02
    0.67743461895892450111E-02
    0.67158398794647149524E-02
    0.67074136714777863114E-02
    0.67542412729959082351E-02
    0.67533758510314187765E-02
    0.68057420604733563987E-02
    0.68125488651559059847E-02
    0.71109437470961408059E-02
    0.71737357300926604675E-02
    0.73278069029180962698E-02
    0.73616351937604417727E-02
    0.72266910972313934403E-02
    0.72310495469433341831E-02
    0.70916415547789442286E-02
    0.70408397185202642454E-02
    0.69332772603533437614E-02
    0.69167498367493111464E-02
    0.70010100437208457394E-02
    0.69955045237497298291E-02
    0.70969080212465781438E-02
    0.71105005194138648505E-02
    0.65026599389135615256E-02
    0.64982517575173396815E-02
    0.65040022161953316496E-02
    0.65001216437873873127E-02
    0.64908810497510266435E-02
    0.64852973469051644270E-02
    0.64787880244279658082E-02
    0.64814203104397944202E-02
    0.64777693493311251996E-02
    0.64811239894517714763E-02
    0.64883780716751826567E-02
    0.64953842677314939727E-02
    0.64902119190435652793E-02
    0.64881142454493853297E-02
    0.65128243242201823426E-02
    0.65107457296017089837E-02
    0.65208992317191613597E-02
    0.65177886798096747525E-02
    0.65051089326580756669E-02
    0.64996815780591623776E-02
    0.64898846809590664958E-02
    0.64909311080510569483E-02
    0.64843256135948918947E-02
    0.64867130511798709591E-02
    0.64960042257418875236E-02
    0.65019977000109370480E-02
    0.65008051607401634922E-02
    0.64992377798071491318E-02
    0.65512546843633414489E-02
    0.65437541815407005916E-02
    0.65537950191437493661E-02
    0.65470982303202935465E-02
    0.65310180096001865108E-02
    0.65212582367483729051E-02
    0.65099750237318145668E-02
    0.65146139231264266894E-02
    0.65083255817734138662E-02
    0.65141303605767662821E-02
    0.65266732596031213146E-02
    0.65387324016581921740E-02
    0.65298586834647651816E-02
    0.65262266267614834139E-02
    0.65692333822248392960E-02
    0.65655186235979781650E-02
    0.65832163912845310591E-02
    0.65774839626603484252E-02
    0.65552114292358569514E-02
    0.65451885684952608099E-02
    0.65283200947537671152E-02
    0.65306119529461017711E-02
    0.65193341218190894309E-02
    0.65236560231168002136E-02
    0.65398283437440541885E-02
    0.65503710710975568063E-02
    0.65480580266966516637E-02
    0.65452008125371028552E-02
    0.65380049887775095602E-02
    0.65377907187964276817E-02
    0.65539542261991105138E-02
    0.65511702387275648832E-02
    0.65330461135752618609E-02
    0.65270394969443590316E-02
    0.65122449832884328133E-02
    0.65117398230827242683E-02
    0.65009946315854440571E-02
    0.65027900838652494264E-02
    0.65157194668527774681E-02
    0.65218197316026351243E-02
    0.65242891992353061609E-02
    0.65230142014721321023E-02
    0.65821578802400630692E-02
    0.65842011475421031302E-02
    0.66092747953632267205E-02
    0.66070951051096955819E-02
    0.65806299835204059082E-02
    0.65739696209411290634E-02
    0.65511701541220079478E-02
    0.65482979685299973205E-02
    0.65312231550146843118E-02
    0.65324782510224168111E-02
    0.65511655385878759736E-02
    0.65580660425983358652E-02
    0.65651940518927885682E-02
    0.65642521277027594123E-02
    0.66127303008357424252E-02
    0.66113847901424572032E-02
    0.66391958302061742855E-02
    0.66330464189111280893E-02
    0.66011029864215288454E-02
    0.65890820934660851438E-02
    0.65640104268187707617E-02
    0.65645140527330874541E-02
    0.65465055624019828293E-02
    0.65502715832434265167E-02
    0.65729701049739427607E-02
    0.65843486025722840205E-02
    0.65873224250958583095E-02
    0.65845799128486258087E-02
    0.66860079592502459633E-02
    0.66864246780339508733E-02
    0.67278510908818332792E-02
    0.67208108425068600889E-02
    0.66751756166537248166E-02
    0.66603556052630677117E-02
    0.66232233098043186148E-02
    0.66213775332659291495E-02
    0.65938674794507583926E-02
    0.65975852085124880864E-02
    0.66300985228941559935E-02
    0.66442476013288944911E-02
    0.66524779240414661299E-02
    0.66495552769808407428E-02
    0.66336980822976890013E-02
    0.66214479161070790084E-02
    0.66389569839343347268E-02
    0.66279514647627595092E-02
    0.66002853418094418678E-02
    0.65836935212199897485E-02
    0.65640999308064018961E-02
    0.65718914114409766186E-02
    0.65609792435234988786E-02
    0.65708663474039405439E-02
    0.65922001216470417148E-02
    0.66125200162968486226E-02
    0.65978307301280784969E-02
    0.65917575686064745766E-02
    0.66669364025176251765E-02
    0.66613518209688339644E-02
    0.66930882276249083207E-02
    0.66833451358454835575E-02
    0.66438538823543986586E-02
    0.66261189976241762628E-02
    0.65963452265571237421E-02
    0.66003955055159782561E-02
    0.65805793541910649613E-02
    0.65879717682422950578E-02
    0.66161209433270003547E-02
    0.66339534700438412482E-02
    0.66308680561681706406E-02
    0.66260024581843634736E-02
    0.67696534620921610184E-02
    0.67507446147858042249E-02
    0.67810994303549821868E-02
    0.67641196481701467563E-02
    0.67173041197575167338E-02
    0.66903105933886382328E-02
    0.66563957105165395475E-02
    0.66687600663586027797E-02
    0.66499721622921116951E-02
    0.66662672590453199428E-02
    0.67017057009301061327E-02
    0.67348690489276372140E-02
    0.67116890550465053977E-02
    0.67019669570482984233E-02
    0.68327837040545744487E-02
    0.68263499602027374186E-02
    0.68838753486251923197E-02
    0.68689740065345401832E-02
    0.67992073986916055917E-02
    0.67692874896985747932E-02
    0.67160958590828604559E-02
    0.67219087665685529551E-02
    0.66864200700560818061E-02
    0.66982983452225103999E-02
    0.67467886059317180858E-02
    0.67754653354463985696E-02
    0.67739212570388056267E-02
    0.67663029205411668113E-02
    0.67465867398957303502E-02
    0.67441729537001757905E-02
    0.67941269996254424757E-02
    0.67822695362602762603E-02
    0.67245891668010517039E-02
    0.67015976898818193155E-02
    0.66574111349083867767E-02
    0.66594807855487984927E-02
    0.66279655392245924797E-02
    0.66350154734563368195E-02
    0.66754311633581255372E-02
    0.66957576855953366765E-02
    0.67008014182859633109E-02
    0.66955999614531271774E-02
    0.68771590630428060947E-02
    0.68748794099513701322E-02
    0.69476782612897542563E-02
    0.69309881702899270306E-02
    0.68485017414213469542E-02
    0.68171709428617279294E-02
    0.67533758517116350764E-02
    0.67542412737802313624E-02
    0.67074136721609108752E-02
    0.67158398802381310058E-02
    0.67743461905744655968E-02
    0.68018502017920586672E-02