# vtk DataFile Version 3.0
LAPLACIEN  2D
ASCII
DATASET UNSTRUCTURED_GRID
FIELD FieldData 1
TIME 1 1 double
15.1000
 POINTS        7297  float
   1.5625000000000000E-002  0.96875000000000000        0.0000000000000000     
   3.1250000000000000E-002  0.96875000000000000        0.0000000000000000     
   3.1250000000000000E-002  0.98437500000000000        0.0000000000000000     
   9.3749999999999997E-003  0.97812500000000002        0.0000000000000000     
   2.0312500000000001E-002  0.97968750000000004        0.0000000000000000     
   2.1874999999999999E-002  0.99062499999999998        0.0000000000000000     
   1.0937499999999999E-002  0.98906249999999996        0.0000000000000000     
   4.6875000000000000E-002  0.96875000000000000        0.0000000000000000     
   6.2500000000000000E-002  0.96875000000000000        0.0000000000000000     
   6.2500000000000000E-002  0.98437500000000000        0.0000000000000000     
   4.0625000000000001E-002  0.97812500000000002        0.0000000000000000     
   5.1562499999999997E-002  0.97968750000000004        0.0000000000000000     
   5.3124999999999999E-002  0.99062499999999998        0.0000000000000000     
   4.2187500000000003E-002  0.98906249999999996        0.0000000000000000     
   1.5625000000000000E-002  0.93750000000000000        0.0000000000000000     
   3.1250000000000000E-002  0.93750000000000000        0.0000000000000000     
   3.1250000000000000E-002  0.95312500000000000        0.0000000000000000     
   9.3749999999999997E-003  0.94687500000000002        0.0000000000000000     
   2.0312500000000001E-002  0.94843750000000004        0.0000000000000000     
   2.1874999999999999E-002  0.95937499999999998        0.0000000000000000     
   1.0937499999999999E-002  0.95781249999999996        0.0000000000000000     
   4.6875000000000000E-002  0.93750000000000000        0.0000000000000000     
   6.2500000000000000E-002  0.93750000000000000        0.0000000000000000     
   6.2500000000000000E-002  0.95312500000000000        0.0000000000000000     
   4.0625000000000001E-002  0.94687500000000002        0.0000000000000000     
   5.1562499999999997E-002  0.94843750000000004        0.0000000000000000     
   5.3124999999999999E-002  0.95937499999999998        0.0000000000000000     
   4.2187500000000003E-002  0.95781249999999996        0.0000000000000000     
   7.8125000000000000E-002  0.96875000000000000        0.0000000000000000     
   9.3750000000000000E-002  0.96875000000000000        0.0000000000000000     
   9.3750000000000000E-002  0.98437500000000000        0.0000000000000000     
   7.1874999999999994E-002  0.97812500000000002        0.0000000000000000     
   8.2812499999999997E-002  0.97968750000000004        0.0000000000000000     
   8.4375000000000006E-002  0.99062499999999998        0.0000000000000000     
   7.3437500000000003E-002  0.98906249999999996        0.0000000000000000     
  0.10937500000000000       0.96875000000000000        0.0000000000000000     
  0.12500000000000000       0.96875000000000000        0.0000000000000000     
  0.12500000000000000       0.98437500000000000        0.0000000000000000     
  0.10312499999999999       0.97812500000000002        0.0000000000000000     
  0.11406250000000000       0.97968750000000004        0.0000000000000000     
  0.11562500000000001       0.99062499999999998        0.0000000000000000     
  0.10468750000000000       0.98906249999999996        0.0000000000000000     
   7.8125000000000000E-002  0.93750000000000000        0.0000000000000000     
   9.3750000000000000E-002  0.93750000000000000        0.0000000000000000     
   9.3750000000000000E-002  0.95312500000000000        0.0000000000000000     
   7.1874999999999994E-002  0.94687500000000002        0.0000000000000000     
   8.2812499999999997E-002  0.94843750000000004        0.0000000000000000     
   8.4375000000000006E-002  0.95937499999999998        0.0000000000000000     
   7.3437500000000003E-002  0.95781249999999996        0.0000000000000000     
  0.10937500000000000       0.93750000000000000        0.0000000000000000     
  0.12500000000000000       0.93750000000000000        0.0000000000000000     
  0.12500000000000000       0.95312500000000000        0.0000000000000000     
  0.10312499999999999       0.94687500000000002        0.0000000000000000     
  0.11406250000000000       0.94843750000000004        0.0000000000000000     
  0.11562500000000001       0.95937499999999998        0.0000000000000000     
  0.10468750000000000       0.95781249999999996        0.0000000000000000     
   1.5625000000000000E-002  0.90625000000000000        0.0000000000000000     
   3.1250000000000000E-002  0.90625000000000000        0.0000000000000000     
   3.1250000000000000E-002  0.92187500000000000        0.0000000000000000     
   9.3749999999999997E-003  0.91562500000000002        0.0000000000000000     
   2.0312500000000001E-002  0.91718750000000004        0.0000000000000000     
   2.1874999999999999E-002  0.92812499999999998        0.0000000000000000     
   1.0937499999999999E-002  0.92656249999999996        0.0000000000000000     
   4.6875000000000000E-002  0.90625000000000000        0.0000000000000000     
   6.2500000000000000E-002  0.90625000000000000        0.0000000000000000     
   6.2500000000000000E-002  0.92187500000000000        0.0000000000000000     
   4.0625000000000001E-002  0.91562500000000002        0.0000000000000000     
   5.1562499999999997E-002  0.91718750000000004        0.0000000000000000     
   5.3124999999999999E-002  0.92812499999999998        0.0000000000000000     
   4.2187500000000003E-002  0.92656249999999996        0.0000000000000000     
   1.5625000000000000E-002  0.87500000000000000        0.0000000000000000     
   3.1250000000000000E-002  0.87500000000000000        0.0000000000000000     
   3.1250000000000000E-002  0.89062500000000000        0.0000000000000000     
   9.3749999999999997E-003  0.88437500000000002        0.0000000000000000     
   2.0312500000000001E-002  0.88593750000000004        0.0000000000000000     
   2.1874999999999999E-002  0.89687499999999998        0.0000000000000000     
   1.0937499999999999E-002  0.89531249999999996        0.0000000000000000     
   4.6875000000000000E-002  0.87500000000000000        0.0000000000000000     
   6.2500000000000000E-002  0.87500000000000000        0.0000000000000000     
   6.2500000000000000E-002  0.89062500000000000        0.0000000000000000     
   4.0625000000000001E-002  0.88437500000000002        0.0000000000000000     
   5.1562499999999997E-002  0.88593750000000004        0.0000000000000000     
   5.3124999999999999E-002  0.89687499999999998        0.0000000000000000     
   4.2187500000000003E-002  0.89531249999999996        0.0000000000000000     
   7.8125000000000000E-002  0.90625000000000000        0.0000000000000000     
   9.3750000000000000E-002  0.90625000000000000        0.0000000000000000     
   9.3750000000000000E-002  0.92187500000000000        0.0000000000000000     
   7.1874999999999994E-002  0.91562500000000002        0.0000000000000000     
   8.2812499999999997E-002  0.91718750000000004        0.0000000000000000     
   8.4375000000000006E-002  0.92812499999999998        0.0000000000000000     
   7.3437500000000003E-002  0.92656249999999996        0.0000000000000000     
  0.10937500000000000       0.90625000000000000        0.0000000000000000     
  0.12500000000000000       0.90625000000000000        0.0000000000000000     
  0.12500000000000000       0.92187500000000000        0.0000000000000000     
  0.10312499999999999       0.91562500000000002        0.0000000000000000     
  0.11406250000000000       0.91718750000000004        0.0000000000000000     
  0.11562500000000001       0.92812499999999998        0.0000000000000000     
  0.10468750000000000       0.92656249999999996        0.0000000000000000     
   7.8125000000000000E-002  0.87500000000000000        0.0000000000000000     
   9.3750000000000000E-002  0.87500000000000000        0.0000000000000000     
   9.3750000000000000E-002  0.89062500000000000        0.0000000000000000     
   7.1874999999999994E-002  0.88437500000000002        0.0000000000000000     
   8.2812499999999997E-002  0.88593750000000004        0.0000000000000000     
   8.4375000000000006E-002  0.89687499999999998        0.0000000000000000     
   7.3437500000000003E-002  0.89531249999999996        0.0000000000000000     
  0.10937500000000000       0.87500000000000000        0.0000000000000000     
  0.12500000000000000       0.87500000000000000        0.0000000000000000     
  0.12500000000000000       0.89062500000000000        0.0000000000000000     
  0.10312499999999999       0.88437500000000002        0.0000000000000000     
  0.11406250000000000       0.88593750000000004        0.0000000000000000     
  0.11562500000000001       0.89687499999999998        0.0000000000000000     
  0.10468750000000000       0.89531249999999996        0.0000000000000000     
  0.14062500000000000       0.96875000000000000        0.0000000000000000     
  0.15625000000000000       0.96875000000000000        0.0000000000000000     
  0.15625000000000000       0.98437500000000000        0.0000000000000000     
  0.13437499999999999       0.97812500000000002        0.0000000000000000     
  0.14531250000000001       0.97968750000000004        0.0000000000000000     
  0.14687500000000001       0.99062499999999998        0.0000000000000000     
  0.13593749999999999       0.98906249999999996        0.0000000000000000     
  0.17187500000000000       0.96875000000000000        0.0000000000000000     
  0.18750000000000000       0.96875000000000000        0.0000000000000000     
  0.18750000000000000       0.98437500000000000        0.0000000000000000     
  0.16562499999999999       0.97812500000000002        0.0000000000000000     
  0.17656250000000001       0.97968750000000004        0.0000000000000000     
[...]
 CELL_DATA       14336
 SCALARS Nutrient float
 LOOKUP_TABLE default
    0.86264886187115141780E-02
    0.86264060052905489062E-02
    0.86270579010703334066E-02
    0.86270579009543341825E-02
    0.86264060057553316324E-02
    0.86264886183125711466E-02
    0.86259722360506312783E-02
    0.86256661967593593887E-02
    0.86253357625542762671E-02
    0.86253357598904175502E-02
    0.86256661981299175695E-02
    0.86259722354791370375E-02
    0.86259242732873598475E-02
    0.86259242728547822626E-02
    0.86286327936703731412E-02
    0.86292039179696813922E-02
    0.86307535135272325788E-02
    0.86311829148150425589E-02
    0.86300210572432603517E-02
    0.86305773062362450831E-02
    0.86293597918465810015E-02
    0.86283467817874527628E-02
    0.86272766411527989500E-02
    0.86268948914223521351E-02
    0.86275600371949444367E-02
    0.86274782413787616531E-02
    0.86285227464468674391E-02
    0.86287513473920739171E-02
    0.86305773063053269761E-02
    0.86300210571692483746E-02
    0.86311829148421979202E-02
    0.86307535134955964268E-02
    0.86292039180815970772E-02
    0.86286327935273174350E-02
    0.86274782416620281189E-02
    0.86275600369160130448E-02
    0.86268948917808691706E-02
    0.86272766408086801193E-02
    0.86283467819626754464E-02
    0.86293597917824968468E-02
    0.86287513474772419009E-02
    0.86285227464037942552E-02
    0.86334530434378116415E-02
    0.86337025842566708644E-02
    0.86361248998422946582E-02
    0.86361248998318689701E-02
    0.86337025842890043753E-02
    0.86334530434014240818E-02
    0.86313057406233809066E-02
    0.86306933596983683582E-02
    0.86290961983080671782E-02
    0.86290961981689440902E-02
    0.86306933597850524903E-02
    0.86313057405640256081E-02
    0.86320110563150136140E-02
    0.86320110562900977808E-02
    0.86343598776229667918E-02
    0.86359027220287449406E-02
    0.86389244581260606071E-02
    0.86400498442556761258E-02
    0.86380509207347883072E-02
    0.86394031749509447166E-02
    0.86370162925537095205E-02
    0.86348009710372781306E-02
    0.86325093741003427333E-02
    0.86315412236506842969E-02
    0.86327637999110348743E-02
    0.86321758612719692860E-02
    0.86348475678243840487E-02
    0.86354564490234309720E-02
    0.86458116474802549495E-02
    0.86489198163356012516E-02
    0.86542576158803764808E-02
    0.86564271096252424359E-02
    0.86530575505401712000E-02
    0.86555568025509458524E-02
    0.86513381303576029208E-02
    0.86473263144174472572E-02
    0.86431550135256350609E-02
    0.86412596915912964768E-02
    0.86434030034480604371E-02
    0.86419874143568026215E-02
    0.86472459503820885834E-02
    0.86484261161675762830E-02
    0.86409602964278540982E-02
    0.86421656689003988755E-02
    0.86464134413860270489E-02
    0.86469796010635990163E-02
    0.86432031418746980977E-02
    0.86434192765474961162E-02
    0.86396948110384688690E-02
    0.86380502650489476152E-02
    0.86350026653197395343E-02
    0.86345434080274952038E-02
    0.86370959104949927843E-02
    0.86373816107140361648E-02
    0.86397168276535641490E-02
    0.86400082156627422414E-02
    0.86551727202285044793E-02
    0.86579449773236168836E-02
    0.86652553168528444888E-02
    0.86667672244107474971E-02
    0.86607233550605074168E-02
    0.86616870146776162726E-02
    0.86554028850729207434E-02
    0.86520951220265072262E-02
    0.86467219529348850887E-02
    0.86455056956441025950E-02
    0.86495474835376218864E-02
    0.86493207019415190712E-02
    0.86542757247624908096E-02
    0.86550547443233361716E-02
    0.86394031749816718735E-02
    0.86380509207372290631E-02
    0.86400498442752785011E-02
    0.86389244581323073463E-02
    0.86359027220607870179E-02
    0.86343598775963561337E-02
    0.86321758613354601652E-02
    0.86327637998694656957E-02
    0.86315412237155508118E-02
    0.86325093740605048087E-02
    0.86348009710772218733E-02
    0.86370162925634864221E-02
    0.86354564490488377321E-02
    0.86348475678306065018E-02
    0.86434192765669250191E-02
    0.86432031418775465137E-02
    0.86469796010790866275E-02
    0.86464134413940709617E-02
    0.86421656689162507786E-02
    0.86409602964182662815E-02
    0.86373816107349725424E-02
    0.86370959104737111967E-02
    0.86345434080660077997E-02
    0.86350026652978247726E-02
    0.86380502650736223219E-02
    0.86396948110376119156E-02
    0.86400082156781292386E-02
    0.86397168276560014355E-02
    0.86555568026086947969E-02
    0.86530575505850450269E-02
    0.86564271096762814700E-02
    0.86542576159228112864E-02
    0.86489198163740496628E-02
    0.86458116474978519844E-02
    0.86419874143843222747E-02
    0.86434030034654944080E-02
    0.86412596916215153597E-02
    0.86431550135475810476E-02
    0.86473263144614398445E-02
    0.86513381304101130004E-02
    0.86484261162084515723E-02
    0.86472459504148314891E-02
    0.86616870147302720689E-02
    0.86607233551057108412E-02
    0.86667672244677054078E-02
    0.86652553169031983071E-02
    0.86579449773621017239E-02
    0.86551727202493922847E-02
    0.86493207019616036996E-02
    0.86495474835537773661E-02
    0.86455056956697053788E-02
    0.86467219529537241857E-02
    0.86520951220634689793E-02
    0.86554028851135358241E-02
    0.86550547443612277365E-02
    0.86542757247948381982E-02
    0.86538804463997410360E-02
    0.86548170527765370258E-02
    0.86611159588997673614E-02
    0.86611159588958520905E-02
    0.86548170527754823139E-02
    0.86538804463873637840E-02
    0.86481389439549347098E-02
    0.86468084636438236057E-02
    0.86424018480190604313E-02
    0.86424018480093529188E-02
    0.86468084636555867656E-02
    0.86481389439613167575E-02
    0.86504482739486934090E-02
    0.86504482739454147816E-02
    0.86733421238337961995E-02
    0.86761144825481511383E-02
    0.86867172698782274542E-02
    0.86877050507654842576E-02
    0.86778345855340714710E-02
    0.86773092788315214774E-02
    0.86678040024695760662E-02
    0.86647337340289929536E-02
    0.86572130990809261636E-02
    0.86565423785841776050E-02
    0.86632558902641661203E-02
    0.86642716818104165838E-02
    0.86696878701744244100E-02
    0.86701560478241283814E-02
    0.86773092788932325303E-02
    0.86778345855852145885E-02
    0.86877050508258283484E-02
    0.86867172699262671515E-02
    0.86761144825823841714E-02
    0.86733421238506819978E-02
    0.86642716818177735461E-02
    0.86632558902802712930E-02
    0.86565423786032630327E-02
    0.86572130991019822371E-02
    0.86647337340691969049E-02
    0.86678040025235346400E-02
    0.86701560478628855733E-02
    0.86696878702063988331E-02
    0.87057652597586354659E-02
    0.87083974031763322632E-02
    0.87243825296639109651E-02
    0.87243825296526265889E-02
    0.87083974031572849994E-02
    0.87057652597135361250E-02
    0.86912413697518738076E-02
    0.86881166551996871078E-02
    0.86770359430717938776E-02
    0.86770359430796608485E-02
    0.86881166552203251130E-02
    0.86912413697990808376E-02
    0.86973845699880401178E-02
    0.86973845699821264454E-02
    0.86663638883255154216E-02
    0.86719518806168249120E-02
    0.86811989572039179042E-02
    0.86850826751449592550E-02
    0.86793281187628208012E-02
    0.86837394744740965119E-02
    0.86764585430312672620E-02
    0.86694471171223277256E-02
    0.86621877131345115242E-02
    0.86588303465170868983E-02
    0.86624842379592736225E-02
    0.86598496968276848090E-02
    0.86691830581295172692E-02
    0.86712824429672989007E-02
    0.87023505977110275633E-02
    0.87121171198684052572E-02
    0.87282080104103352408E-02
    0.87349097581892812259E-02
    0.87248621849849456594E-02
    0.87323677686757424088E-02
    0.87198372258560103570E-02
    0.87077696360409288789E-02
    0.86952181115749083845E-02
    0.86894090177733456642E-02
    0.86957019587148680351E-02
    0.86910593685420329396E-02
    0.87073225719826712748E-02
    0.87109573452088372852E-02
    0.86807584091385149583E-02
    0.86861896235370383845E-02
    0.86988779969304329959E-02
    0.87019910833688561558E-02
    0.86918304073406796317E-02
    0.86939104929457406562E-02
    0.86830765626005161628E-02
    0.86770784724045681158E-02
    0.86677806429595206233E-02
    0.86653912508107399509E-02
    0.86720017387947670451E-02
    0.86709544020422413269E-02
    0.86803143463706679966E-02
    0.86818829772569890146E-02
    0.87262965197254811073E-02
    0.87363261671239717671E-02
    0.87586128648159747301E-02
    0.87643492876206333109E-02
    0.87466402405097353617E-02
    0.87503575549937404748E-02
    0.87314831830955490916E-02
    0.87209331180598381045E-02
    0.87047499496391549795E-02
    0.87004247711391959064E-02
    0.87117104207276134520E-02
    0.87094166490580340878E-02
    0.87263089660346519066E-02
    0.87291682651763867484E-02
    0.87648274493721811673E-02
    0.87814300388379742945E-02
    0.88091135977912352756E-02
    0.88201261042016622371E-02
    0.88026064990893750084E-02
    0.88148644865354286448E-02
    0.87936732179895449324E-02
    0.87733401851715474978E-02
    0.87519926767930088934E-02
    0.87420986904774358739E-02
    0.87530181670071333794E-02
    0.87452210717893653219E-02
    0.87728970308868538253E-02
    0.87789742957109714871E-02
    0.88715106463460348396E-02
    0.88985205518856795581E-02
    0.89453631649298280537E-02
    0.89623530485109827171E-02
    0.89319816538463107231E-02
    0.89509019870254846046E-02
    0.89160974283770521448E-02
    0.88829138088334404222E-02
    0.88474541578292577315E-02
    0.88311486897507673888E-02
    0.88499479284073756524E-02
    0.88375754151540503178E-02
    0.88831747893089209323E-02
    0.88929028941944175679E-02
    0.88072784641805030442E-02
    0.88250241487730536616E-02
    0.88645389631265888303E-02
    0.88742877835979519507E-02
    0.88425332218265255413E-02
    0.88481215964082704506E-02
    0.88151191026076512747E-02
    0.87972750065450286416E-02
    0.87691083625414927710E-02
    0.87617108527829716536E-02
    0.87815393998911684542E-02
    0.87774861188573659321E-02
    0.88071622736736118742E-02
    0.88120310259605667130E-02
    0.89505303409042492185E-02
    0.89804673077220273369E-02
    0.90502720062904280784E-02
    0.90651815869832279293E-02
    0.90076261993694804742E-02
    0.90140644625929938760E-02
    0.89567148039005409221E-02
    0.89280209666974443689E-02
    0.88795027176686927572E-02
    0.88676168166428783607E-02
    0.89031257902800493148E-02
    0.88973089236439144301E-02
    0.89475454103791346450E-02
    0.89551683317300682236E-02
    0.87081352725976324952E-02
    0.87141460215316123017E-02
    0.87322819630141230302E-02
    0.87350680440387764442E-02
    0.87188937232654806220E-02
    0.87191080779266509626E-02
    0.87029120622020509496E-02
    0.86968074607937043835E-02
    0.86838691719424258852E-02
    0.86820722865715883876E-02
    0.86928251214169662692E-02
    0.86933305029921522505E-02
    0.87041071907706189098E-02
    0.87053831780415438790E-02
    0.87702184253754568444E-02
    0.87822467497576262724E-02
    0.88142098543316210052E-02
    0.88203631069136874399E-02
    0.87925349391860824905E-02
    0.87938813023847248185E-02
    0.87654821135379236419E-02
    0.87540960282445935692E-02
    0.87313829186293923784E-02
    0.87276142505764778279E-02
    0.87456346012040834387E-02
    0.87451304757267776802E-02
    0.87657133247743615478E-02
    0.87684576881255100328E-02
    0.87550971112873767627E-02
    0.87617616771287973321E-02
    0.87882436476313351148E-02
    0.87904247223708452397E-02
    0.87653348011600441814E-02
    0.87632899844716869581E-02
    0.87391826679923366450E-02
    0.87322775371111074211E-02
    0.87135778156140659967E-02
    0.87123219395081972355E-02
    0.87294084159216644297E-02
    0.87322826011485589481E-02
    0.87453731050826880727E-02
    0.87463156158014369185E-02
    0.88415370329941820465E-02
    0.88563657688265611662E-02
    0.89020277099066541515E-02
    0.89090718861374526560E-02
    0.88676207446728005229E-02
    0.88672032907790888923E-02
    0.88254180154514177276E-02
    0.88112605034842538670E-02
    0.87787269698299929405E-02
    0.87750069983139975666E-02
    0.88025347006166244912E-02
    0.88043816763942288339E-02
    0.88307295916572048355E-02
    0.88336538913436710857E-02
    0.88828017153052551969E-02
    0.89058064258963100246E-02
    0.89635192337070498936E-02
    0.89753831000339654583E-02
    0.89254012760339243582E-02
    0.89278164164803240632E-02
    0.88769584043197520551E-02
    0.88566199641232200984E-02
    0.88161802041448415063E-02
    0.88091257975278277476E-02
    0.88406601520330790195E-02
    0.88385890909113869196E-02
    0.88768005379705021418E-02
    0.88820050215293010198E-02
    0.90889119318821633142E-02
    0.91309068619965551294E-02
    0.92364867849007246253E-02
    0.92568395787639978778E-02
    0.91643567056533866561E-02
    0.91656380677153578840E-02
    0.90737509548256961578E-02
    0.90393573299476486643E-02
    0.89670053811677849498E-02
    0.89550465296867071824E-02
    0.90122273125826761475E-02
    0.90085854184372739228E-02
    0.90774732428336880191E-02
    0.90863440527591855800E-02
    0.89984423534937626327E-02
    0.90297895901449796302E-02
    0.91123204547793289210E-02
    0.91290184678061714330E-02
    0.90561803538786594947E-02
    0.90584605043227527793E-02
    0.89831107816431207680E-02
    0.89555917581896089114E-02
    0.88970524138545972054E-02
    0.88886214463091452187E-02
    0.89354762819213277847E-02
    0.89346110671262805175E-02
    0.89870058174313094401E-02
    0.89938161822650190130E-02
    0.92923676598621260392E-02
    0.93551889786221680695E-02
    0.95093347066193649464E-02
    0.95431773777170259693E-02
    0.94081685982375824751E-02
    0.94125279676685134206E-02
    0.92730522360514773539E-02
    0.92222252637613414544E-02
    0.91146078211032637711E-02
    0.90980721535628486518E-02
    0.91823764817495698298E-02
    0.91768690470159907518E-02
    0.92783227002367369557E-02
    0.92919214972700600597E-02
    0.86837394746138163448E-02
    0.86793281188843589974E-02
    0.86850826752774140660E-02
    0.86811989573213291932E-02
    0.86719518807128834897E-02
    0.86663638883982593158E-02
    0.86598496968862768292E-02
    0.86624842380298074790E-02
    0.86588303465843594747E-02
    0.86621877132113302838E-02
    0.86694471172256131614E-02
    0.86764585431625563389E-02
    0.86712824430687941019E-02
    0.86691830582219936430E-02
    0.86939104930880053285E-02
    0.86918304074749680455E-02
    0.87019910835285686768E-02
    0.86988779970799678942E-02
    0.86861896236509663488E-02
    0.86807584092262971703E-02
    0.86709544021066897734E-02
    0.86720017388699759814E-02
    0.86653912508760557593E-02
    0.86677806430338726063E-02
    0.86770784725053815706E-02
    0.86830765627197280948E-02
    0.86818829773659261795E-02
    0.86803143464724858563E-02
    0.87323677689857027995E-02
    0.87248621852620000805E-02
    0.87349097584914908721E-02
    0.87282080106843122624E-02
    0.87121171200943686025E-02
    0.87023505978955761203E-02
    0.86910593686890091208E-02
    0.86957019588895425460E-02
    0.86894090179340521818E-02
    0.86952181117591412218E-02
    0.87077696362745336811E-02
    0.87198372261457230553E-02
    0.87109573454426467848E-02
    0.87073225721999714111E-02
    0.87503575553257439967E-02
    0.87466402408312386024E-02
    0.87643492879988012939E-02
    0.87586128651776472276E-02
    0.87363261674061921946E-02
    0.87262965199601371519E-02
    0.87094166492355778314E-02
    0.87117104209265706222E-02
    0.87004247713075005127E-02
    0.87047499498280802438E-02
    0.87209331183029457218E-02
    0.87314831833768761365E-02
    0.87291682654414230053E-02
    0.87263089662873525448E-02
    0.87191080781125959720E-02
    0.87188937234380474439E-02
    0.87350680442416141908E-02
    0.87322819631968657400E-02
    0.87141460216705896730E-02
    0.87081352727045435030E-02
    0.86933305030639194955E-02
    0.86928251215082717046E-02
    0.86820722866493664494E-02
    0.86838691720332594759E-02
    0.86968074609224382127E-02
    0.87029120623624452169E-02
    0.87053831781784864197E-02
    0.87041071908969883109E-02
    0.87632899846826900481E-02
    0.87653348013321356891E-02
    0.87904247225595952969E-02
    0.87882436477784448697E-02
    0.87617616772338122871E-02
    0.87550971113401175605E-02
    0.87322826011722882306E-02
    0.87294084159892284397E-02
    0.87123219395756519579E-02
    0.87135778157123987969E-02
    0.87322775372482216993E-02
    0.87391826681813486455E-02
    0.87463156159309374954E-02
    0.87453731051917345252E-02
    0.87938813028388181786E-02
    0.87925349396216281872E-02
    0.88203631074293929737E-02
    0.88142098548095459964E-02
    0.87822467501346580115E-02
    0.87702184256913326421E-02
    0.87451304759582609155E-02
    0.87456346014670519051E-02
    0.87276142507963401507E-02
    0.87313829188747967697E-02
    0.87540960285713235317E-02
    0.87654821139247340173E-02
    0.87684576884818656028E-02
    0.87657133251122752726E-02
    0.88672032913577041729E-02
    0.88676207451977469287E-02
    0.89090718867309987017E-02
    0.89020277104365098247E-02
    0.88563657692354094686E-02
    0.88415370333079119913E-02
    0.88043816766160340470E-02
    0.88025347009074821070E-02
    0.87750069985722736060E-02
    0.87787269701429474639E-02
    0.88112605038916953087E-02
    0.88254180159561684826E-02
    0.88336538917646416358E-02
    0.88307295920442008264E-02
    0.88148644871756543645E-02
    0.88026064996716019834E-02
    0.88201261048360558165E-02
    0.88091135983778615093E-02
    0.87814300393243907572E-02
    0.87648274497830261365E-02
    0.87452210721211207783E-02
    0.87530181673899781769E-02
    0.87420986908282108385E-02
    0.87519926771899344414E-02
    0.87733401856624169957E-02
    0.87936732185859654148E-02
    0.87789742962066843329E-02
    0.87728970313524275854E-02
    0.88481215971204143361E-02
    0.88425332225223040455E-02
    0.88742877844183824798E-02
    0.88645389639137109339E-02
    0.88250241494001631370E-02
    0.88072784647188692708E-02
    0.87774861192753076550E-02
    0.87815394003441776122E-02
    0.87617108531672285160E-02
    0.87691083629626871004E-02
    0.87972750070762894409E-02
    0.88151191032102317602E-02
    0.88120310265425855212E-02
    0.88071622742335736733E-02
    0.89509019882730717077E-02
    0.89319816550052066190E-02
    0.89623530497918123261E-02
    0.89453631661166772837E-02
    0.88985205528749368453E-02
    0.88715106471956677037E-02
    0.88375754158497299429E-02
    0.88499479291913926010E-02
    0.88311486904683982047E-02
    0.88474541586315031544E-02
    0.88829138098083584851E-02
    0.89160974295388311511E-02
    0.88929028951879526832E-02
    0.88831747902491705465E-02
    0.90140644640177292057E-02
    0.90076262007925157749E-02
    0.90651815886709907061E-02
    0.90502720079175241058E-02
    0.89804673090262271407E-02
    0.89505303420492742655E-02
    0.88973089245406554448E-02
    0.89031257912350319356E-02
    0.88676168174512196019E-02
    0.88795027185457967023E-02
    0.89280209677872670454E-02
    0.89567148051192865127E-02
    0.89551683329296069558E-02
    0.89475454115413854961E-02
    0.89278164174749034820E-02
    0.89254012770096889662E-02
    0.89753831011860265437E-02
    0.89635192348017939806E-02
    0.89058064267695264543E-02
    0.88828017160675239172E-02
    0.88385890914862378503E-02
    0.88406601526580530503E-02
    0.88091257980485934698E-02
    0.88161802047125436416E-02
    0.88566199648572926234E-02
    0.88769584051664220115E-02
    0.88820050223387906480E-02
    0.88768005387488916474E-02
    0.90584605056725532590E-02
    0.90561803551477311480E-02
    0.91290184692706024400E-02
    0.91123204561250493311E-02
    0.90297895912182842698E-02
    0.89984423543861529610E-02
    0.89346110678036952391E-02
    0.89354762827024321326E-02
    0.88886214469890614115E-02
    0.88970524146243200325E-02
    0.89555917591710061665E-02
    0.89831107827995256010E-02