# vtk DataFile Version 3.0
LAPLACIEN  2D
ASCII
DATASET UNSTRUCTURED_GRID
FIELD FieldData 1
TIME 1 1 double
15.4000
 POINTS        7297  float
   1.5625000000000000E-002  0.96875000000000000        0.0000000000000000     
   3.1250000000000000E-002  0.96875000000000000        0.0000000000000000     
   3.1250000000000000E-002  0.98437500000000000        0.0000000000000000     
   9.3749999999999997E-003  0.97812500000000002        0.0000000000000000     
   2.0312500000000001E-002  0.97968750000000004        0.0000000000000000     
   2.1874999999999999E-002  0.99062499999999998        0.0000000000000000     
   1.0937499999999999E-002  0.98906249999999996        0.0000000000000000     
   4.6875000000000000E-002  0.96875000000000000        0.0000000000000000     
   6.2500000000000000E-002  0.96875000000000000        0.0000000000000000     
   6.2500000000000000E-002  0.98437500000000000        0.0000000000000000     
   4.0625000000000001E-002  0.97812500000000002        0.0000000000000000     
   5.1562499999999997E-002  0.97968750000000004        0.0000000000000000     
   5.3124999999999999E-002  0.99062499999999998        0.0000000000000000     
   4.2187500000000003E-002  0.98906249999999996        0.0000000000000000     
   1.5625000000000000E-002  0.93750000000000000        0.0000000000000000     
   3.1250000000000000E-002  0.93750000000000000        0.0000000000000000     
   3.1250000000000000E-002  0.95312500000000000        0.0000000000000000     
   9.3749999999999997E-003  0.94687500000000002        0.0000000000000000     
   2.0312500000000001E-002  0.94843750000000004        0.0000000000000000     
   2.1874999999999999E-002  0.95937499999999998        0.0000000000000000     
   1.0937499999999999E-002  0.95781249999999996        0.0000000000000000     
   4.6875000000000000E-002  0.93750000000000000        0.0000000000000000     
   6.2500000000000000E-002  0.93750000000000000        0.0000000000000000     
   6.2500000000000000E-002  0.95312500000000000        0.0000000000000000     
   4.0625000000000001E-002  0.94687500000000002        0.0000000000000000     
   5.1562499999999997E-002  0.94843750000000004        0.0000000000000000     
   5.3124999999999999E-002  0.95937499999999998        0.0000000000000000     
   4.2187500000000003E-002  0.95781249999999996        0.0000000000000000     
   7.8125000000000000E-002  0.96875000000000000        0.0000000000000000     
   9.3750000000000000E-002  0.96875000000000000        0.0000000000000000     
   9.3750000000000000E-002  0.98437500000000000        0.0000000000000000     
   7.1874999999999994E-002  0.97812500000000002        0.0000000000000000     
   8.2812499999999997E-002  0.97968750000000004        0.0000000000000000     
   8.4375000000000006E-002  0.99062499999999998        0.0000000000000000     
   7.3437500000000003E-002  0.98906249999999996        0.0000000000000000     
  0.10937500000000000       0.96875000000000000        0.0000000000000000     
  0.12500000000000000       0.96875000000000000        0.0000000000000000     
  0.12500000000000000       0.98437500000000000        0.0000000000000000     
  0.10312499999999999       0.97812500000000002        0.0000000000000000     
  0.11406250000000000       0.97968750000000004        0.0000000000000000     
  0.11562500000000001       0.99062499999999998        0.0000000000000000     
  0.10468750000000000       0.98906249999999996        0.0000000000000000     
   7.8125000000000000E-002  0.93750000000000000        0.0000000000000000     
   9.3750000000000000E-002  0.93750000000000000        0.0000000000000000     
   9.3750000000000000E-002  0.95312500000000000        0.0000000000000000     
   7.1874999999999994E-002  0.94687500000000002        0.0000000000000000     
   8.2812499999999997E-002  0.94843750000000004        0.0000000000000000     
   8.4375000000000006E-002  0.95937499999999998        0.0000000000000000     
   7.3437500000000003E-002  0.95781249999999996        0.0000000000000000     
  0.10937500000000000       0.93750000000000000        0.0000000000000000     
  0.12500000000000000       0.93750000000000000        0.0000000000000000     
  0.12500000000000000       0.95312500000000000        0.0000000000000000     
  0.10312499999999999       0.94687500000000002        0.0000000000000000     
  0.11406250000000000       0.94843750000000004        0.0000000000000000     
  0.11562500000000001       0.95937499999999998        0.0000000000000000     
  0.10468750000000000       0.95781249999999996        0.0000000000000000     
   1.5625000000000000E-002  0.90625000000000000        0.0000000000000000     
   3.1250000000000000E-002  0.90625000000000000        0.0000000000000000     
   3.1250000000000000E-002  0.92187500000000000        0.0000000000000000     
   9.3749999999999997E-003  0.91562500000000002        0.0000000000000000     
   2.0312500000000001E-002  0.91718750000000004        0.0000000000000000     
   2.1874999999999999E-002  0.92812499999999998        0.0000000000000000     
   1.0937499999999999E-002  0.92656249999999996        0.0000000000000000     
   4.6875000000000000E-002  0.90625000000000000        0.0000000000000000     
   6.2500000000000000E-002  0.90625000000000000        0.0000000000000000     
   6.2500000000000000E-002  0.92187500000000000        0.0000000000000000     
   4.0625000000000001E-002  0.91562500000000002        0.0000000000000000     
   5.1562499999999997E-002  0.91718750000000004        0.0000000000000000     
   5.3124999999999999E-002  0.92812499999999998        0.0000000000000000     
   4.2187500000000003E-002  0.92656249999999996        0.0000000000000000     
   1.5625000000000000E-002  0.87500000000000000        0.0000000000000000     
   3.1250000000000000E-002  0.87500000000000000        0.0000000000000000     
   3.1250000000000000E-002  0.89062500000000000        0.0000000000000000     
   9.3749999999999997E-003  0.88437500000000002        0.0000000000000000     
   2.0312500000000001E-002  0.88593750000000004        0.0000000000000000     
   2.1874999999999999E-002  0.89687499999999998        0.0000000000000000     
   1.0937499999999999E-002  0.89531249999999996        0.0000000000000000     
   4.6875000000000000E-002  0.87500000000000000        0.0000000000000000     
   6.2500000000000000E-002  0.87500000000000000        0.0000000000000000     
   6.2500000000000000E-002  0.89062500000000000        0.0000000000000000     
   4.0625000000000001E-002  0.88437500000000002        0.0000000000000000     
   5.1562499999999997E-002  0.88593750000000004        0.0000000000000000     
   5.3124999999999999E-002  0.89687499999999998        0.0000000000000000     
   4.2187500000000003E-002  0.89531249999999996        0.0000000000000000     
   7.8125000000000000E-002  0.90625000000000000        0.0000000000000000     
   9.3750000000000000E-002  0.90625000000000000        0.0000000000000000     
   9.3750000000000000E-002  0.92187500000000000        0.0000000000000000     
   7.1874999999999994E-002  0.91562500000000002        0.0000000000000000     
   8.2812499999999997E-002  0.91718750000000004        0.0000000000000000     
   8.4375000000000006E-002  0.92812499999999998        0.0000000000000000     
   7.3437500000000003E-002  0.92656249999999996        0.0000000000000000     
  0.10937500000000000       0.90625000000000000        0.0000000000000000     
  0.12500000000000000       0.90625000000000000        0.0000000000000000     
  0.12500000000000000       0.92187500000000000        0.0000000000000000     
  0.10312499999999999       0.91562500000000002        0.0000000000000000     
  0.11406250000000000       0.91718750000000004        0.0000000000000000     
  0.11562500000000001       0.92812499999999998        0.0000000000000000     
  0.10468750000000000       0.92656249999999996        0.0000000000000000     
   7.8125000000000000E-002  0.87500000000000000        0.0000000000000000     
   9.3750000000000000E-002  0.87500000000000000        0.0000000000000000     
   9.3750000000000000E-002  0.89062500000000000        0.0000000000000000     
   7.1874999999999994E-002  0.88437500000000002        0.0000000000000000     
   8.2812499999999997E-002  0.88593750000000004        0.0000000000000000     
   8.4375000000000006E-002  0.89687499999999998        0.0000000000000000     
   7.3437500000000003E-002  0.89531249999999996        0.0000000000000000     
  0.10937500000000000       0.87500000000000000        0.0000000000000000     
  0.12500000000000000       0.87500000000000000        0.0000000000000000     
  0.12500000000000000       0.89062500000000000        0.0000000000000000     
  0.10312499999999999       0.88437500000000002        0.0000000000000000     
  0.11406250000000000       0.88593750000000004        0.0000000000000000     
  0.11562500000000001       0.89687499999999998        0.0000000000000000     
  0.10468750000000000       0.89531249999999996        0.0000000000000000     
  0.14062500000000000       0.96875000000000000        0.0000000000000000     
  0.15625000000000000       0.96875000000000000        0.0000000000000000     
  0.15625000000000000       0.98437500000000000        0.0000000000000000     
  0.13437499999999999       0.97812500000000002        0.0000000000000000     
  0.14531250000000001       0.97968750000000004        0.0000000000000000     
  0.14687500000000001       0.99062499999999998        0.0000000000000000     
  0.13593749999999999       0.98906249999999996        0.0000000000000000     
  0.17187500000000000       0.96875000000000000        0.0000000000000000     
  0.18750000000000000       0.96875000000000000        0.0000000000000000     
  0.18750000000000000       0.98437500000000000        0.0000000000000000     
  0.16562499999999999       0.97812500000000002        0.0000000000000000     
  0.17656250000000001       0.97968750000000004        0.0000000000000000     
[...]
 CELL_DATA       14336
 SCALARS Tumor_cells float
 LOOKUP_TABLE default
    0.45915217756876042232E-01
    0.45915217400880697918E-01
    0.45915220221423518054E-01
    0.45915220221422928248E-01
    0.45915217400882793464E-01
    0.45915217756873988320E-01
    0.45915215523828045718E-01
    0.45915214200467520389E-01
    0.45915212771484761878E-01
    0.45915212771472306563E-01
    0.45915214200473980499E-01
    0.45915215523825499144E-01
    0.45915215316887324215E-01
    0.45915215316885284180E-01
    0.45915227040396397462E-01
    0.45915229514329886085E-01
    0.45915236230435571563E-01
    0.45915238092315235896E-01
    0.45915233054407388058E-01
    0.45915235465124222547E-01
    0.45915230187366116998E-01
    0.45915225800007807011E-01
    0.45915221166693720445E-01
    0.45915219515913908988E-01
    0.45915222394367495584E-01
    0.45915222041187635227E-01
    0.45915226563014374661E-01
    0.45915227552380366571E-01
    0.45915235465125346648E-01
    0.45915233054407651736E-01
    0.45915238092315971419E-01
    0.45915236230435883813E-01
    0.45915229514330753446E-01
    0.45915227040395856228E-01
    0.45915222041189071578E-01
    0.45915222394366433933E-01
    0.45915219515915831061E-01
    0.45915221166692422872E-01
    0.45915225800009090706E-01
    0.45915230187366470882E-01
    0.45915227552381220055E-01
    0.45915226563014568950E-01
    0.45915247944040990524E-01
    0.45915249028252141938E-01
    0.45915259546842154825E-01
    0.45915259546842009108E-01
    0.45915249028252093366E-01
    0.45915247944040345207E-01
    0.45915238626294138657E-01
    0.45915235971449620822E-01
    0.45915229048178747562E-01
    0.45915229048178164695E-01
    0.45915235971450196750E-01
    0.45915238626294277435E-01
    0.45915241687049343500E-01
    0.45915241687049163088E-01
    0.45915251880470443757E-01
    0.45915258582666776399E-01
    0.45915271714417282833E-01
    0.45915276609995898938E-01
    0.45915267921064109591E-01
    0.45915273802307983442E-01
    0.45915263425343168235E-01
    0.45915253799370683851E-01
    0.45915243847824901979E-01
    0.45915239646553245023E-01
    0.45915244951799931428E-01
    0.45915242400160476144E-01
    0.45915253999844904409E-01
    0.45915256645360953691E-01
    0.45915301679175513083E-01
    0.45915315217338915910E-01
    0.45915338468308503073E-01
    0.45915347928188784965E-01
    0.45915333248361979435E-01
    0.45915344143216081652E-01
    0.45915325759237339553E-01
    0.45915308285076915362E-01
    0.45915290125089949780E-01
    0.45915281877534110111E-01
    0.45915291202253891156E-01
    0.45915285039104601628E-01
    0.45915307931400375918E-01
    0.45915313072121571869E-01
    0.45915280561514129620E-01
    0.45915285804121956648E-01
    0.45915304281296830113E-01
    0.45915306747652075148E-01
    0.45915290318786175505E-01
    0.45915291261674373580E-01
    0.45915275063045928039E-01
    0.45915267913496510266E-01
    0.45915254671841612688E-01
    0.45915252677596628261E-01
    0.45915263765966947418E-01
    0.45915265007067621039E-01
    0.45915275156627938236E-01
    0.45915276423820178264E-01
    0.45915342421245314286E-01
    0.45915354508318802218E-01
    0.45915386369840716085E-01
    0.45915392972588994769E-01
    0.45915366631932838515E-01
    0.45915370844160627306E-01
    0.45915343455692828045E-01
    0.45915329038672535178E-01
    0.45915305639133360827E-01
    0.45915300341343681656E-01
    0.45915317933606543399E-01
    0.45915316939911472727E-01
    0.45915338527986272743E-01
    0.45915341925572748794E-01
    0.45915273802309919393E-01
    0.45915267921065670842E-01
    0.45915276609997592028E-01
    0.45915271714418712246E-01
    0.45915258582668087850E-01
    0.45915251880471172341E-01
    0.45915242400161510039E-01
    0.45915244951800694706E-01
    0.45915239646554452391E-01
    0.45915243847825776280E-01
    0.45915253799372175714E-01
    0.45915263425344791937E-01
    0.45915256645362376164E-01
    0.45915253999846118715E-01
    0.45915291261675941770E-01
    0.45915290318787334300E-01
    0.45915306747653261699E-01
    0.45915304281297683597E-01
    0.45915285804122664415E-01
    0.45915280561514344726E-01
    0.45915265007067940228E-01
    0.45915263765967391507E-01
    0.45915252677597398479E-01
    0.45915254671842306577E-01
    0.45915267913497641306E-01
    0.45915275063047267246E-01
    0.45915276423821170526E-01
    0.45915275156628729269E-01
    0.45915344143219564976E-01
    0.45915333248365101937E-01
    0.45915347928192046245E-01
    0.45915338468311424347E-01
    0.45915315217341476361E-01
    0.45915301679177580874E-01
    0.45915285039106516762E-01
    0.45915291202256035274E-01
    0.45915281877536240351E-01
    0.45915290125092246554E-01
    0.45915308285079656225E-01
    0.45915325759240475934E-01
    0.45915313072124305793E-01
    0.45915307931402915553E-01
    0.45915370844163756747E-01
    0.45915366631935551622E-01
    0.45915392972591777265E-01
    0.45915386369843123882E-01
    0.45915354508320821436E-01
    0.45915342421246813087E-01
    0.45915316939912867444E-01
    0.45915317933608271184E-01
    0.45915300341345464952E-01
    0.45915305639135380045E-01
    0.45915329038674936035E-01
    0.45915343455695679931E-01
    0.45915341925575052506E-01
    0.45915338527988368289E-01
    0.45915336783835178358E-01
    0.45915340859514243432E-01
    0.45915368293101589681E-01
    0.45915368293101381514E-01
    0.45915340859513910365E-01
    0.45915336783834359569E-01
    0.45915311789560063482E-01
    0.45915305998868442827E-01
    0.45915286829185601725E-01
    0.45915286829185684991E-01
    0.45915305998868782833E-01
    0.45915311789560785127E-01
    0.45915321838243920716E-01
    0.45915321838243816632E-01
    0.45915421582849433313E-01
    0.45915433680325787313E-01
    0.45915479928797811593E-01
    0.45915484251450859599E-01
    0.45915441201907672419E-01
    0.45915438927993691698E-01
    0.45915397476541233712E-01
    0.45915384081226681690E-01
    0.45915351305423832140E-01
    0.45915348378258807882E-01
    0.45915377626003506251E-01
    0.45915382045606821515E-01
    0.45915405664615986658E-01
    0.45915407710862006507E-01
    0.45915438927996148066E-01
    0.45915441201909580615E-01
    0.45915484251452698405E-01
    0.45915479928799171616E-01
    0.45915433680326828147E-01
    0.45915421582849891280E-01
    0.45915382045607217032E-01
    0.45915377626004415246E-01
    0.45915348378259855655E-01
    0.45915351305425206041E-01
    0.45915384081228409474E-01
    0.45915397476543530486E-01
    0.45915407710863519186E-01
    0.45915405664617249537E-01
    0.45915563050094330977E-01
    0.45915574529713606977E-01
    0.45915644315691145350E-01
    0.45915644315690860855E-01
    0.45915574529713093499E-01
    0.45915563050093116670E-01
    0.45915499663660812313E-01
    0.45915486022955163958E-01
    0.45915437687490470720E-01
    0.45915437687490706642E-01
    0.45915486022955663559E-01
    0.45915499663661984986E-01
    0.45915526459417876914E-01
    0.45915526459417731198E-01
    0.45915391255060188092E-01
    0.45915415645178203619E-01
    0.45915456004611929219E-01
    0.45915472971012817605E-01
    0.45915447852369666026E-01
    0.45915467119290377662E-01
    0.45915435329930427699E-01
    0.45915404727745058600E-01
    0.45915373056458964884E-01
    0.45915358414215998173E-01
    0.45915374345725200322E-01
    0.45915362850563988528E-01
    0.45915403568956084102E-01
    0.45915412732613375413E-01
    0.45915548397574022788E-01
    0.45915591092248478344E-01
    0.45915661428935987398E-01
    0.45915690744036743998E-01
    0.45915646821463595995E-01
    0.45915679645851567581E-01
    0.45915624859499258592E-01
    0.45915572109157580527E-01
    0.45915517259698342134E-01
    0.45915491880865799690E-01
    0.45915519367524457173E-01
    0.45915499076485830066E-01
    0.45915570146213995073E-01
    0.45915586035970769319E-01
    0.45915454006350608918E-01
    0.45915477733926415849E-01
    0.45915533134189299991E-01
    0.45915546753202876595E-01
    0.45915502394899568306E-01
    0.45915511500935542177E-01
    0.45915464196213714998E-01
    0.45915438001467960560E-01
    0.45915397429451304534E-01
    0.45915386998762228177E-01
    0.45915415825520694559E-01
    0.45915411238911914282E-01
    0.45915452103594302236E-01
    0.45915458958790976440E-01
    0.45915652949337165678E-01
    0.45915696828560927101E-01
    0.45915794272255741615E-01
    0.45915819393847791263E-01
    0.45915741976395849089E-01
    0.45915758265000335137E-01
    0.45915675739670654132E-01
    0.45915629600161857182E-01
    0.45915558872305389793E-01
    0.45915539960438664369E-01
    0.45915589254871214120E-01
    0.45915579200648815039E-01
    0.45915653064834589803E-01
    0.45915665577266617792E-01
    0.45915821590038027877E-01
    0.45915894242618375543E-01
    0.45916015376117627622E-01
    0.45916063583837346540E-01
    0.45915986921886836614E-01
    0.45916040572992429525E-01
    0.45915947836115619807E-01
    0.45915858867752311345E-01
    0.45915765477819184270E-01
    0.45915722200920647267E-01
    0.45915769956089355630E-01
    0.45915735840486977815E-01
    0.45915856919043485096E-01
    0.45915883512205594996E-01
    0.45916288499198487649E-01
    0.45916406761799616332E-01
    0.45916611855102970607E-01
    0.45916686257073381638E-01
    0.45916553275609117701E-01
    0.45916636120662816800E-01
    0.45916483729337251307E-01
    0.45916338448209956247E-01
    0.45916183217686201701E-01
    0.45916111844949369925E-01
    0.45916194128488144188E-01
    0.45916139960451282653E-01
    0.45916339584598050982E-01
    0.45916382176538476922E-01
    0.45916007182375873086E-01
    0.45916084885657092174E-01
    0.45916257821390353555E-01
    0.45916300537314713726E-01
    0.45916161581098076383E-01
    0.45916186079662510422E-01
    0.45916041647599666053E-01
    0.45915963539813600680E-01
    0.45915840305215990802E-01
    0.45915807926514562443E-01
    0.45915894642641931489E-01
    0.45915876866005483903E-01
    0.45916006759569652496E-01
    0.45916028081934921745E-01
    0.45916634311017591463E-01
    0.45916765456328029194E-01
    0.45917071137926868118E-01
    0.45917136479948029992E-01
    0.45916884456582117424E-01
    0.45916912684173041836E-01
    0.45916661554393341238E-01
    0.45916535895901208764E-01
    0.45916323474712604502E-01
    0.45916271421899523819E-01
    0.45916426846572280795E-01
    0.45916401328306988283E-01
    0.45916621340067818868E-01
    0.45916654736185474883E-01
    0.45915573429630388014E-01
    0.45915599709108377569E-01
    0.45915678930499498334E-01
    0.45915691138180593500E-01
    0.45915620500680764948E-01
    0.45915621478664500610E-01
    0.45915550738949290066E-01
    0.45915524054477761806E-01
    0.45915467570861005775E-01
    0.45915459713055307989E-01
    0.45915506628531346789E-01
    0.45915508807904958921E-01
    0.45915555892201267985E-01
    0.45915561478213427760E-01
    0.45915844770858485480E-01
    0.45915897427476461135E-01
    0.45916037215752068812E-01
    0.45916064194708797186E-01
    0.45915942521912743446E-01
    0.45915948482073587478E-01
    0.45915824289130026392E-01
    0.45915774454991960252E-01
    0.45915675159298389996E-01
    0.45915658656597087284E-01
    0.45915737386626319372E-01
    0.45915735126180058645E-01
    0.45915825181318835335E-01
    0.45915837207551317423E-01
    0.45915778477001484292E-01
    0.45915807616588304174E-01
    0.45915923347786928577E-01
    0.45915932913742005250E-01
    0.45915823283362244833E-01
    0.45915814397698921645E-01
    0.45915709061497111954E-01
    0.45915678859523238742E-01
    0.45915597180894010543E-01
    0.45915591679493383825E-01
    0.45915666285719761164E-01
    0.45915678820336140731E-01
    0.45915736030509801680E-01
    0.45915740162233945054E-01
    0.45916156384945727709E-01
    0.45916221313134789050E-01
    0.45916421052280165238E-01
    0.45916451954494237608E-01
    0.45916270682656322444E-01
    0.45916268966472099933E-01
    0.45916086200608191570E-01
    0.45916024204450116286E-01
    0.45915881937095649745E-01
    0.45915865627199257959E-01
    0.45915985937618933321E-01
    0.45915993943757012208E-01
    0.45916109251822156967E-01
    0.45916122078041111954E-01
    0.45916337376592036845E-01
    0.45916438159021459586E-01
    0.45916690778862366551E-01
    0.45916742808942784260E-01
    0.45916524079218666576E-01
    0.45916534751290719041E-01
    0.45916312149287319411E-01
    0.45916223067823919157E-01
    0.45916046099671696534E-01
    0.45916015185944805688E-01
    0.45916153108748164469E-01
    0.45916143954070010036E-01
    0.45916311285602792736E-01
    0.45916334103280879997E-01
    0.45917239875389412318E-01
    0.45917423918245180159E-01
    0.45917886319769576908E-01
    0.45917975582690249980E-01
    0.45917570607091021118E-01
    0.45917576336680775151E-01
    0.45917173926967744246E-01
    0.45917023229280054530E-01
    0.45916706407783586252E-01
    0.45916653984482379280E-01
    0.45916904278779376025E-01
    0.45916888205978632909E-01
    0.45917190016626578675E-01
    0.45917228914836738518E-01
    0.45916843022839708144E-01
    0.45916980377199372032E-01
    0.45917341662953241321E-01
    0.45917414914532383996E-01
    0.45917096148410475875E-01
    0.45917106308672121784E-01
    0.45916776479067195060E-01
    0.45916655896573461970E-01
    0.45916399683271408305E-01
    0.45916362704950745843E-01
    0.45916567660486420910E-01
    0.45916563734600103486E-01
    0.45916793225050323013E-01
    0.45916823100101089583E-01
    0.45918130153113384528E-01
    0.45918405505807419198E-01
    0.45919080642485878008E-01
    0.45919229091377661289E-01
    0.45918637903376254006E-01
    0.45918657240691301835E-01
    0.45918046387622944715E-01
    0.45917823610903109322E-01
    0.45917352316367156251E-01
    0.45917279785209409726E-01
    0.45917648813851588696E-01
    0.45917624478507293451E-01
    0.45918069043283771258E-01
    0.45918128695162978292E-01
    0.45915467119296053677E-01
    0.45915447852374891013E-01
    0.45915472971018243820E-01
    0.45915456004616932162E-01
    0.45915415645182679205E-01
    0.45915391255064053055E-01
    0.45915362850567541242E-01
    0.45915374345729134675E-01
    0.45915358414219772931E-01
    0.45915373056463051893E-01
    0.45915404727749735414E-01
    0.45915435329935680442E-01
    0.45915412732618093861E-01
    0.45915403568960573566E-01
    0.45915511500940878187E-01
    0.45915502394904425532E-01
    0.45915546753207879538E-01
    0.45915533134193858844E-01
    0.45915477733930405713E-01
    0.45915454006353925709E-01
    0.45915411238914967396E-01
    0.45915415825524212579E-01
    0.45915386998765676807E-01
    0.45915397429455113987E-01
    0.45915438001472290430E-01
    0.45915464196218662429E-01
    0.45915458958795264677E-01
    0.45915452103598340672E-01
    0.45915679645860137115E-01
    0.45915646821471596539E-01
    0.45915690744045056793E-01
    0.45915661428943772837E-01
    0.45915591092255500505E-01
    0.45915548397580288609E-01
    0.45915499076491603225E-01
    0.45915519367530729933E-01
    0.45915491880871857344E-01
    0.45915517259704795305E-01
    0.45915572109164803916E-01
    0.45915624859507279953E-01
    0.45915586035978020463E-01
    0.45915570146220961723E-01
    0.45915758265008675687E-01
    0.45915741976403620650E-01
    0.45915819393855875075E-01
    0.45915794272263284193E-01
    0.45915696828567657828E-01
    0.45915652949343035982E-01
    0.45915579200654192682E-01
    0.45915589254877174630E-01
    0.45915539960444416712E-01
    0.45915558872311613980E-01
    0.45915629600168837710E-01
    0.45915675739678404876E-01
    0.45915665577273626075E-01
    0.45915653064841285835E-01
    0.45915621478669302324E-01
    0.45915620500684935223E-01
    0.45915691138184853981E-01
    0.45915678930503196764E-01
    0.45915599709111520887E-01
    0.45915573429632781932E-01
    0.45915508807907103039E-01
    0.45915506628534108469E-01
    0.45915459713058062730E-01
    0.45915467570864197666E-01
    0.45915524054481494931E-01
    0.45915550738953779530E-01
    0.45915561478217008229E-01
    0.45915555892204557020E-01
    0.45915814397702696403E-01
    0.45915823283365200802E-01
    0.45915932913744857136E-01
    0.45915923347789058817E-01
    0.45915807616589941753E-01
    0.45915778477002219815E-01
    0.45915678820336730537E-01
    0.45915666285721169759E-01
    0.45915591679494958954E-01
    0.45915597180896168539E-01
    0.45915678859525896338E-01
    0.45915709061500657728E-01
    0.45915740162236290400E-01
    0.45915736030511765386E-01
    0.45915948482081719861E-01
    0.45915942521920161123E-01
    0.45916064194716547930E-01
    0.45916037215759139545E-01
    0.45915897427482643689E-01
    0.45915844770863717406E-01
    0.45915735126184756276E-01
    0.45915737386631724770E-01
    0.45915658656602326149E-01
    0.45915675159304183972E-01
    0.45915774454998552201E-01
    0.45915824289137562031E-01
    0.45915837207557874677E-01
    0.45915825181325031767E-01
    0.45916268966479628633E-01
    0.45916270682662907454E-01
    0.45916451954500989152E-01
    0.45916421052286049420E-01
    0.45916221313139743421E-01
    0.45916156384949502467E-01
    0.45915993943760301244E-01
    0.45915985937623207680E-01
    0.45915865627203525379E-01
    0.45915881937100673504E-01
    0.45916024204455958835E-01
    0.45916086200615192914E-01
    0.45916122078046739396E-01
    0.45916109251827312565E-01
    0.45916040573004940351E-01
    0.45915986921898625794E-01
    0.45916063583849579810E-01
    0.45916015376129222514E-01
    0.45915894242628908783E-01
    0.45915821590047575795E-01
    0.45915735840495769393E-01
    0.45915769956098820281E-01
    0.45915722200929751096E-01
    0.45915765477828864027E-01
    0.45915858867763024997E-01
    0.45915947836127422865E-01
    0.45915883512216398854E-01
    0.45915856919053921192E-01
    0.45916186079675021248E-01
    0.45916161581109955769E-01
    0.45916300537327280062E-01
    0.45916257821402260697E-01
    0.45916084885667701743E-01
    0.45916007182385365493E-01
    0.45915876866014102009E-01
    0.45915894642651264301E-01
    0.45915807926523478921E-01
    0.45915840305225510964E-01
    0.45915963539824210249E-01
    0.45916041647611274823E-01
    0.45916028081945697847E-01
    0.45916006759580040020E-01
    0.45916636120680830169E-01
    0.45916553275626229014E-01
    0.45916686257091270107E-01
    0.45916611855119936203E-01
    0.45916406761815034554E-01
    0.45916288499212559726E-01
    0.45916139960464188996E-01
    0.45916194128501959526E-01
    0.45916111844962616273E-01
    0.45916183217700239083E-01
    0.45916338448225492430E-01
    0.45916483729354307108E-01
    0.45916382176554172700E-01
    0.45916339584613226343E-01
    0.45916912684191499294E-01
    0.45916884456599978137E-01
    0.45917136479967216034E-01
    0.45917071137945214554E-01
    0.45916765456344287022E-01
    0.45916634311032371307E-01
    0.45916401328320290143E-01
    0.45916426846586422261E-01
    0.45916271421912860373E-01
    0.45916323474726725151E-01
    0.45916535895916925358E-01
    0.45916661554410410917E-01
    0.45916654736201656384E-01
    0.45916621340083528524E-01
    0.45916534751303743345E-01
    0.45916524079230948419E-01
    0.45916742808955836319E-01
    0.45916690778874620638E-01
    0.45916438159032187116E-01
    0.45916337376601487619E-01
    0.45916143954078392220E-01
    0.45916153108757420953E-01
    0.45916015185953604205E-01
    0.45916046099681195880E-01
    0.45916223067834695259E-01
    0.45916312149299365331E-01
    0.45916334103291850388E-01
    0.45916311285613298221E-01
    0.45917106308685583238E-01
    0.45917096148422806290E-01
    0.45917414914545470750E-01
    0.45917341662965176219E-01
    0.45916980377209627717E-01
    0.45916843022848305433E-01
    0.45916563734607576674E-01
    0.45916567660495101466E-01
    0.45916362704959086394E-01
    0.45916399683280706423E-01
    0.45916655896584189500E-01
    0.45916776479079518536E-01