# vtk DataFile Version 3.0
LAPLACIEN  2D
ASCII
DATASET UNSTRUCTURED_GRID
FIELD FieldData 1
TIME 1 1 double
16.4000
 POINTS        7297  float
   1.5625000000000000E-002  0.96875000000000000        0.0000000000000000     
   3.1250000000000000E-002  0.96875000000000000        0.0000000000000000     
   3.1250000000000000E-002  0.98437500000000000        0.0000000000000000     
   9.3749999999999997E-003  0.97812500000000002        0.0000000000000000     
   2.0312500000000001E-002  0.97968750000000004        0.0000000000000000     
   2.1874999999999999E-002  0.99062499999999998        0.0000000000000000     
   1.0937499999999999E-002  0.98906249999999996        0.0000000000000000     
   4.6875000000000000E-002  0.96875000000000000        0.0000000000000000     
   6.2500000000000000E-002  0.96875000000000000        0.0000000000000000     
   6.2500000000000000E-002  0.98437500000000000        0.0000000000000000     
   4.0625000000000001E-002  0.97812500000000002        0.0000000000000000     
   5.1562499999999997E-002  0.97968750000000004        0.0000000000000000     
   5.3124999999999999E-002  0.99062499999999998        0.0000000000000000     
   4.2187500000000003E-002  0.98906249999999996        0.0000000000000000     
   1.5625000000000000E-002  0.93750000000000000        0.0000000000000000     
   3.1250000000000000E-002  0.93750000000000000        0.0000000000000000     
   3.1250000000000000E-002  0.95312500000000000        0.0000000000000000     
   9.3749999999999997E-003  0.94687500000000002        0.0000000000000000     
   2.0312500000000001E-002  0.94843750000000004        0.0000000000000000     
   2.1874999999999999E-002  0.95937499999999998        0.0000000000000000     
   1.0937499999999999E-002  0.95781249999999996        0.0000000000000000     
   4.6875000000000000E-002  0.93750000000000000        0.0000000000000000     
   6.2500000000000000E-002  0.93750000000000000        0.0000000000000000     
   6.2500000000000000E-002  0.95312500000000000        0.0000000000000000     
   4.0625000000000001E-002  0.94687500000000002        0.0000000000000000     
   5.1562499999999997E-002  0.94843750000000004        0.0000000000000000     
   5.3124999999999999E-002  0.95937499999999998        0.0000000000000000     
   4.2187500000000003E-002  0.95781249999999996        0.0000000000000000     
   7.8125000000000000E-002  0.96875000000000000        0.0000000000000000     
   9.3750000000000000E-002  0.96875000000000000        0.0000000000000000     
   9.3750000000000000E-002  0.98437500000000000        0.0000000000000000     
   7.1874999999999994E-002  0.97812500000000002        0.0000000000000000     
   8.2812499999999997E-002  0.97968750000000004        0.0000000000000000     
   8.4375000000000006E-002  0.99062499999999998        0.0000000000000000     
   7.3437500000000003E-002  0.98906249999999996        0.0000000000000000     
  0.10937500000000000       0.96875000000000000        0.0000000000000000     
  0.12500000000000000       0.96875000000000000        0.0000000000000000     
  0.12500000000000000       0.98437500000000000        0.0000000000000000     
  0.10312499999999999       0.97812500000000002        0.0000000000000000     
  0.11406250000000000       0.97968750000000004        0.0000000000000000     
  0.11562500000000001       0.99062499999999998        0.0000000000000000     
  0.10468750000000000       0.98906249999999996        0.0000000000000000     
   7.8125000000000000E-002  0.93750000000000000        0.0000000000000000     
   9.3750000000000000E-002  0.93750000000000000        0.0000000000000000     
   9.3750000000000000E-002  0.95312500000000000        0.0000000000000000     
   7.1874999999999994E-002  0.94687500000000002        0.0000000000000000     
   8.2812499999999997E-002  0.94843750000000004        0.0000000000000000     
   8.4375000000000006E-002  0.95937499999999998        0.0000000000000000     
   7.3437500000000003E-002  0.95781249999999996        0.0000000000000000     
  0.10937500000000000       0.93750000000000000        0.0000000000000000     
  0.12500000000000000       0.93750000000000000        0.0000000000000000     
  0.12500000000000000       0.95312500000000000        0.0000000000000000     
  0.10312499999999999       0.94687500000000002        0.0000000000000000     
  0.11406250000000000       0.94843750000000004        0.0000000000000000     
  0.11562500000000001       0.95937499999999998        0.0000000000000000     
  0.10468750000000000       0.95781249999999996        0.0000000000000000     
   1.5625000000000000E-002  0.90625000000000000        0.0000000000000000     
   3.1250000000000000E-002  0.90625000000000000        0.0000000000000000     
   3.1250000000000000E-002  0.92187500000000000        0.0000000000000000     
   9.3749999999999997E-003  0.91562500000000002        0.0000000000000000     
   2.0312500000000001E-002  0.91718750000000004        0.0000000000000000     
   2.1874999999999999E-002  0.92812499999999998        0.0000000000000000     
   1.0937499999999999E-002  0.92656249999999996        0.0000000000000000     
   4.6875000000000000E-002  0.90625000000000000        0.0000000000000000     
   6.2500000000000000E-002  0.90625000000000000        0.0000000000000000     
   6.2500000000000000E-002  0.92187500000000000        0.0000000000000000     
   4.0625000000000001E-002  0.91562500000000002        0.0000000000000000     
   5.1562499999999997E-002  0.91718750000000004        0.0000000000000000     
   5.3124999999999999E-002  0.92812499999999998        0.0000000000000000     
   4.2187500000000003E-002  0.92656249999999996        0.0000000000000000     
   1.5625000000000000E-002  0.87500000000000000        0.0000000000000000     
   3.1250000000000000E-002  0.87500000000000000        0.0000000000000000     
   3.1250000000000000E-002  0.89062500000000000        0.0000000000000000     
   9.3749999999999997E-003  0.88437500000000002        0.0000000000000000     
   2.0312500000000001E-002  0.88593750000000004        0.0000000000000000     
   2.1874999999999999E-002  0.89687499999999998        0.0000000000000000     
   1.0937499999999999E-002  0.89531249999999996        0.0000000000000000     
   4.6875000000000000E-002  0.87500000000000000        0.0000000000000000     
   6.2500000000000000E-002  0.87500000000000000        0.0000000000000000     
   6.2500000000000000E-002  0.89062500000000000        0.0000000000000000     
   4.0625000000000001E-002  0.88437500000000002        0.0000000000000000     
   5.1562499999999997E-002  0.88593750000000004        0.0000000000000000     
   5.3124999999999999E-002  0.89687499999999998        0.0000000000000000     
   4.2187500000000003E-002  0.89531249999999996        0.0000000000000000     
   7.8125000000000000E-002  0.90625000000000000        0.0000000000000000     
   9.3750000000000000E-002  0.90625000000000000        0.0000000000000000     
   9.3750000000000000E-002  0.92187500000000000        0.0000000000000000     
   7.1874999999999994E-002  0.91562500000000002        0.0000000000000000     
   8.2812499999999997E-002  0.91718750000000004        0.0000000000000000     
   8.4375000000000006E-002  0.92812499999999998        0.0000000000000000     
   7.3437500000000003E-002  0.92656249999999996        0.0000000000000000     
  0.10937500000000000       0.90625000000000000        0.0000000000000000     
  0.12500000000000000       0.90625000000000000        0.0000000000000000     
  0.12500000000000000       0.92187500000000000        0.0000000000000000     
  0.10312499999999999       0.91562500000000002        0.0000000000000000     
  0.11406250000000000       0.91718750000000004        0.0000000000000000     
  0.11562500000000001       0.92812499999999998        0.0000000000000000     
  0.10468750000000000       0.92656249999999996        0.0000000000000000     
   7.8125000000000000E-002  0.87500000000000000        0.0000000000000000     
   9.3750000000000000E-002  0.87500000000000000        0.0000000000000000     
   9.3750000000000000E-002  0.89062500000000000        0.0000000000000000     
   7.1874999999999994E-002  0.88437500000000002        0.0000000000000000     
   8.2812499999999997E-002  0.88593750000000004        0.0000000000000000     
   8.4375000000000006E-002  0.89687499999999998        0.0000000000000000     
   7.3437500000000003E-002  0.89531249999999996        0.0000000000000000     
  0.10937500000000000       0.87500000000000000        0.0000000000000000     
  0.12500000000000000       0.87500000000000000        0.0000000000000000     
  0.12500000000000000       0.89062500000000000        0.0000000000000000     
  0.10312499999999999       0.88437500000000002        0.0000000000000000     
  0.11406250000000000       0.88593750000000004        0.0000000000000000     
  0.11562500000000001       0.89687499999999998        0.0000000000000000     
  0.10468750000000000       0.89531249999999996        0.0000000000000000     
  0.14062500000000000       0.96875000000000000        0.0000000000000000     
  0.15625000000000000       0.96875000000000000        0.0000000000000000     
  0.15625000000000000       0.98437500000000000        0.0000000000000000     
  0.13437499999999999       0.97812500000000002        0.0000000000000000     
  0.14531250000000001       0.97968750000000004        0.0000000000000000     
  0.14687500000000001       0.99062499999999998        0.0000000000000000     
  0.13593749999999999       0.98906249999999996        0.0000000000000000     
  0.17187500000000000       0.96875000000000000        0.0000000000000000     
  0.18750000000000000       0.96875000000000000        0.0000000000000000     
  0.18750000000000000       0.98437500000000000        0.0000000000000000     
  0.16562499999999999       0.97812500000000002        0.0000000000000000     
  0.17656250000000001       0.97968750000000004        0.0000000000000000     
[...]
 CELL_DATA       14336
 SCALARS Tumor_cells float
 LOOKUP_TABLE default
    0.50500499599681759888E-01
    0.50500499210912444537E-01
    0.50500502295982990786E-01
    0.50500502295982289958E-01
    0.50500499210915004988E-01
    0.50500499599679359031E-01
    0.50500497157449045216E-01
    0.50500495710089361723E-01
    0.50500494146908235515E-01
    0.50500494146893191993E-01
    0.50500495710097154101E-01
    0.50500497157445922713E-01
    0.50500496931432575787E-01
    0.50500496931430126357E-01
    0.50500509755628551767E-01
    0.50500512461904956130E-01
    0.50500519809414709527E-01
    0.50500521846057057351E-01
    0.50500516334335394941E-01
    0.50500518971464694595E-01
    0.50500513197373940455E-01
    0.50500508398235756380E-01
    0.50500503329656568074E-01
    0.50500501524366761541E-01
    0.50500504672816796947E-01
    0.50500504286694197775E-01
    0.50500509233245297058E-01
    0.50500510315317520549E-01
    0.50500518971465596652E-01
    0.50500516334335394941E-01
    0.50500521846057626341E-01
    0.50500519809414848305E-01
    0.50500512461905816552E-01
    0.50500509755627823183E-01
    0.50500504286695883926E-01
    0.50500504672815395291E-01
    0.50500501524368961170E-01
    0.50500503329654861107E-01
    0.50500508398237074770E-01
    0.50500513197374016783E-01
    0.50500510315318318522E-01
    0.50500509233245331753E-01
    0.50500532625544193588E-01
    0.50500533812328024519E-01
    0.50500545321791212583E-01
    0.50500545321791066866E-01
    0.50500533812328066152E-01
    0.50500532625543659293E-01
    0.50500522430684278985E-01
    0.50500519526537133996E-01
    0.50500511952167391472E-01
    0.50500511952166655949E-01
    0.50500519526537744619E-01
    0.50500522430684216535E-01
    0.50500525780108440621E-01
    0.50500525780108260210E-01
    0.50500536932116930899E-01
    0.50500544265213505313E-01
    0.50500558634177385164E-01
    0.50500563990785375668E-01
    0.50500554482917028865E-01
    0.50500560917799315608E-01
    0.50500549563221933114E-01
    0.50500539030847224620E-01
    0.50500528142598540005E-01
    0.50500523545615780274E-01
    0.50500529350733763811E-01
    0.50500526559104884361E-01
    0.50500539250356031584E-01
    0.50500542145154814211E-01
    0.50500591424378321603E-01
    0.50500606239449553903E-01
    0.50500631685008810778E-01
    0.50500642037763242287E-01
    0.50500625971649996948E-01
    0.50500637894155313290E-01
    0.50500617774909592472E-01
    0.50500598652219425011E-01
    0.50500578779337869373E-01
    0.50500569754188810723E-01
    0.50500579958573453554E-01
    0.50500573214547102296E-01
    0.50500598265588239610E-01
    0.50500603891237144660E-01
    0.50500568317602537172E-01
    0.50500574054595633033E-01
    0.50500594274908161552E-01
    0.50500596973661014688E-01
    0.50500578994269247624E-01
    0.50500580025074466584E-01
    0.50500562298748420675E-01
    0.50500554475980785618E-01
    0.50500539986518933055E-01
    0.50500537804708742207E-01
    0.50500549938269058414E-01
    0.50500551296598084061E-01
    0.50500562402649933069E-01
    0.50500563789088008526E-01
    0.50500636015565890380E-01
    0.50500649243905286478E-01
    0.50500684115682072106E-01
    0.50500691341875882101E-01
    0.50500662511319349690E-01
    0.50500667119912731606E-01
    0.50500637144076120089E-01
    0.50500621366688043523E-01
    0.50500595758390685874E-01
    0.50500589961103042880E-01
    0.50500609214643707445E-01
    0.50500608127867899211E-01
    0.50500631753369037980E-01
    0.50500635471491764350E-01
    0.50500560917800627059E-01
    0.50500554482918041943E-01
    0.50500563990786527524E-01
    0.50500558634178328854E-01
    0.50500544265214449002E-01
    0.50500536932117340294E-01
    0.50500526559105737845E-01
    0.50500529350734159328E-01
    0.50500523545616737842E-01
    0.50500528142598984094E-01
    0.50500539030848279332E-01
    0.50500549563222987826E-01
    0.50500542145155792595E-01
    0.50500539250356850374E-01
    0.50500580025075555990E-01
    0.50500578994270017841E-01
    0.50500596973661854294E-01
    0.50500594274908751358E-01
    0.50500574054596146512E-01
    0.50500568317602675950E-01
    0.50500551296598375495E-01
    0.50500549938269301276E-01
    0.50500537804709359768E-01
    0.50500539986519328572E-01
    0.50500554475981569713E-01
    0.50500562298749288037E-01
    0.50500563789088688538E-01
    0.50500562402650439608E-01
    0.50500637894157755781E-01
    0.50500625971652175761E-01
    0.50500642037765497427E-01
    0.50500631685010823058E-01
    0.50500606239451330259E-01
    0.50500591424379723260E-01
    0.50500573214548427625E-01
    0.50500579958574910722E-01
    0.50500569754190254013E-01
    0.50500578779339423685E-01
    0.50500598652221354024E-01
    0.50500617774911792102E-01
    0.50500603891239066734E-01
    0.50500598265590009028E-01
    0.50500667119914931236E-01
    0.50500662511321230130E-01
    0.50500691341877824991E-01
    0.50500684115683744380E-01
    0.50500649243906708952E-01
    0.50500636015566903458E-01
    0.50500608127868856778E-01
    0.50500609214644866241E-01
    0.50500589961104291881E-01
    0.50500595758392059775E-01
    0.50500621366689708858E-01
    0.50500637144078076857E-01
    0.50500635471493367235E-01
    0.50500631753370481269E-01
    0.50500629846467817718E-01
    0.50500634307635183795E-01
    0.50500664332868622219E-01
    0.50500664332868483442E-01
    0.50500634307634954812E-01
    0.50500629846467255668E-01
    0.50500602492160241719E-01
    0.50500596155208667126E-01
    0.50500575176486511841E-01
    0.50500575176486546536E-01
    0.50500596155208909988E-01
    0.50500602492160734380E-01
    0.50500613490085680124E-01
    0.50500613490085603796E-01
    0.50500722660465659219E-01
    0.50500735901888700596E-01
    0.50500786524742734274E-01
    0.50500791256135345308E-01
    0.50500744134054614820E-01
    0.50500741644006488795E-01
    0.50500696273059135499E-01
    0.50500681612375107610E-01
    0.50500645739325514261E-01
    0.50500642535857752369E-01
    0.50500674547745455500E-01
    0.50500679385241442620E-01
    0.50500705236728338221E-01
    0.50500707476336101354E-01
    0.50500741644008244335E-01
    0.50500744134055988721E-01
    0.50500791256136684515E-01
    0.50500786524743754291E-01
    0.50500735901889484691E-01
    0.50500722660465999225E-01
    0.50500679385241734054E-01
    0.50500674547746107756E-01
    0.50500642535858480953E-01
    0.50500645739326444073E-01
    0.50500681612376342733E-01
    0.50500696273060731445E-01
    0.50500707476337211577E-01
    0.50500705236729268033E-01
    0.50500877512670301617E-01
    0.50500890079644256137E-01
    0.50500966472084393710E-01
    0.50500966472084171666E-01
    0.50500890079643874497E-01
    0.50500877512669399561E-01
    0.50500808127383535473E-01
    0.50500793196511184480E-01
    0.50500740288304007963E-01
    0.50500740288304174497E-01
    0.50500793196511573058E-01
    0.50500808127384423651E-01
    0.50500837459557676445E-01
    0.50500837459557565423E-01
    0.50500689457781244851E-01
    0.50500716152383086366E-01
    0.50500760327045278453E-01
    0.50500778897496455266E-01
    0.50500751403013105501E-01
    0.50500772490566912809E-01
    0.50500737695738755206E-01
    0.50500704201514590164E-01
    0.50500669537870794545E-01
    0.50500653512734361428E-01
    0.50500670949777351493E-01
    0.50500658369172848894E-01
    0.50500702933946983730E-01
    0.50500712963488340879E-01
    0.50500861459559752420E-01
    0.50500908193066719465E-01
    0.50500985186900798629E-01
    0.50501017276553636370E-01
    0.50500969194971143117E-01
    0.50501005124983469607E-01
    0.50500945153254442332E-01
    0.50500887411379619119E-01
    0.50500827372712844832E-01
    0.50500799593553712119E-01
    0.50500829681174655428E-01
    0.50500807471347199107E-01
    0.50500885263694242355E-01
    0.50500902656841796523E-01
    0.50500758146674956661E-01
    0.50500784117396432804E-01
    0.50500844758666216250E-01
    0.50500859665745391480E-01
    0.50500811108791190951E-01
    0.50500821074181787007E-01
    0.50500769294627698147E-01
    0.50500740623888699943E-01
    0.50500696216360309310E-01
    0.50500684800538139796E-01
    0.50500716353582317253E-01
    0.50500711334501874328E-01
    0.50500756061569326838E-01
    0.50500763564622318247E-01
    0.50500975914197901440E-01
    0.50501023946459736025E-01
    0.50501130617384058785E-01
    0.50501158116842796708E-01
    0.50501073365863305420E-01
    0.50501091194012318053E-01
    0.50501000854089560244E-01
    0.50500950348505199705E-01
    0.50500872926359276216E-01
    0.50500852225884559910E-01
    0.50500906187492193566E-01
    0.50500895183228589058E-01
    0.50500976037146580455E-01
    0.50500989733460573128E-01
    0.50501160512703383021E-01
    0.50501240044451611855E-01
    0.50501372652329054591E-01
    0.50501425425181822870E-01
    0.50501341499941100610E-01
    0.50501400231432451438E-01
    0.50501298710306431750E-01
    0.50501201316320964985E-01
    0.50501099082795784800E-01
    0.50501051708454688938E-01
    0.50501103986596476703E-01
    0.50501066641803427082E-01
    0.50501199184281253540E-01
    0.50501228295578987071E-01
    0.50501671651478521885E-01
    0.50501801118257784451E-01
    0.50502025647236353789E-01
    0.50502107098218528003E-01
    0.50501961513552337535E-01
    0.50502052207702367859E-01
    0.50501885375246538534E-01
    0.50501726327819872198E-01
    0.50501556389531868096E-01
    0.50501478255141250828E-01
    0.50501568335722953063E-01
    0.50501509037200659202E-01
    0.50501727573573060304E-01
    0.50501774200669626025E-01
    0.50501363694745921018E-01
    0.50501448757244569998E-01
    0.50501638078987401426E-01
    0.50501684839920860104E-01
    0.50501532715122032791E-01
    0.50501559531320842911E-01
    0.50501401414253688227E-01
    0.50501315909303290397E-01
    0.50501181001708979335E-01
    0.50501145557951293563E-01
    0.50501240489872464834E-01
    0.50501221031786107385E-01
    0.50501363227099901887E-01
    0.50501386568326506188E-01
    0.50502050245405293027E-01
    0.50502193817023179057E-01
    0.50502528471010346700E-01
    0.50502600003064612721E-01
    0.50502324091061423506E-01
    0.50502354989996244006E-01
    0.50502080058267027896E-01
    0.50501942493942852952E-01
    0.50501709942503213158E-01
    0.50501652959148914113E-01
    0.50501823114985459895E-01
    0.50501795181822572989E-01
    0.50502036039834337366E-01
    0.50502072599530579977E-01
    0.50500888873570300153E-01
    0.50500917640162013011E-01
    0.50501004361265360021E-01
    0.50501017724523512842E-01
    0.50500940398116742069E-01
    0.50500941466802451441E-01
    0.50500864030839635876E-01
    0.50500834822495739573E-01
    0.50500772994930491488E-01
    0.50500764394495842313E-01
    0.50500815749540815813E-01
    0.50500818135747936599E-01
    0.50500869674744590376E-01
    0.50500875789129082150E-01
    0.50501185907726918456E-01
    0.50501243551159535894E-01
    0.50501396582406175850E-01
    0.50501426116513779829E-01
    0.50501292914832726644E-01
    0.50501299437034304074E-01
    0.50501163479134449086E-01
    0.50501108926855914349E-01
    0.50501000228075500209E-01
    0.50500982163997003294E-01
    0.50501068350807573615E-01
    0.50501065877431194906E-01
    0.50501164460208324003E-01
    0.50501177624957344081E-01
    0.50501113338682068754E-01
    0.50501145238121110392E-01
    0.50501271931939012427E-01
    0.50501282403975118751E-01
    0.50501162387756363958E-01
    0.50501152659263290334E-01
    0.50501037346665091088E-01
    0.50501004285459345777E-01
    0.50500914873523504445E-01
    0.50500908851829208468E-01
    0.50500990522303584873E-01
    0.50501004244009335686E-01
    0.50501066871572609929E-01
    0.50501071394367248735E-01
    0.50501527048941098619E-01
    0.50501598129408471760E-01
    0.50501816796535377307E-01
    0.50501850626939855105E-01
    0.50501652175256497856E-01
    0.50501650294521235884E-01
    0.50501450209703355188E-01
    0.50501382341035211399E-01
    0.50501226595173601130E-01
    0.50501208741078038034E-01
    0.50501340450653284253E-01
    0.50501349215684825100E-01
    0.50501475448307922567E-01
    0.50501489489403417199E-01
    0.50501725184708398664E-01
    0.50501835516495473255E-01
    0.50502112077607103080E-01
    0.50502169036894001275E-01
    0.50501929575382145665E-01
    0.50501941255134692732E-01
    0.50501697556514388299E-01
    0.50501600036874073896E-01
    0.50501406300417432671E-01
    0.50501372459553509064E-01
    0.50501523452781187096E-01
    0.50501513432560402039E-01
    0.50501696617706960668E-01
    0.50501721596539421444E-01
    0.50502713216857876566E-01
    0.50502914701427668864E-01
    0.50503420932417254774E-01
    0.50503518653338241862E-01
    0.50503075289250146107E-01
    0.50503081557409700009E-01
    0.50502641004323417517E-01
    0.50502476026646793417E-01
    0.50502129177048889208E-01
    0.50502071787571725658E-01
    0.50502345807052956284E-01
    0.50502328214133244966E-01
    0.50502658626933885633E-01
    0.50502701210569947432E-01
    0.50502278760530053270E-01
    0.50502429132503356968E-01
    0.50502824663228543245E-01
    0.50502904856296729208E-01
    0.50502555873814559961E-01
    0.50502566994129777234E-01
    0.50502205901732502569E-01
    0.50502073892853646675E-01
    0.50501793397252539575E-01
    0.50501752915728698179E-01
    0.50501977297013771195E-01
    0.50501973000693055338E-01
    0.50502224239848673981E-01
    0.50502256945737553084E-01
    0.50503687892869700282E-01
    0.50503989342709901256E-01
    0.50504728475286024547E-01
    0.50504890991621066709E-01
    0.50504243763991527039E-01
    0.50504264929423017816E-01
    0.50503596174209047787E-01
    0.50503352284094707447E-01
    0.50502836316839147535E-01
    0.50502756912982352255E-01
    0.50503160923158096907E-01
    0.50503134283721690112E-01
    0.50503620984848882070E-01
    0.50503686289518227859E-01
    0.50500772490570930429E-01
    0.50500751403016796992E-01
    0.50500778897500299414E-01
    0.50500760327048810350E-01
    0.50500716152386222746E-01
    0.50500689457783937142E-01
    0.50500658369175298323E-01
    0.50500670949780078478E-01
    0.50500653512736998207E-01
    0.50500669537873646431E-01
    0.50500704201517886138E-01
    0.50500737695742488331E-01
    0.50500712963491643792E-01
    0.50500702933950106233E-01
    0.50500821074185589521E-01
    0.50500811108794639581E-01
    0.50500859665748978888E-01
    0.50500844758669512224E-01
    0.50500784117399298567E-01
    0.50500758146677329763E-01
    0.50500711334504018446E-01
    0.50500716353584794438E-01
    0.50500684800540540653E-01
    0.50500696216362953028E-01
    0.50500740623891759995E-01
    0.50500769294631202289E-01
    0.50500763564625357482E-01
    0.50500756061572192601E-01
    0.50501005124989707673E-01
    0.50500969194976957910E-01
    0.50501017276559687086E-01
    0.50500985186906467705E-01
    0.50500908193071798735E-01
    0.50500861459564269640E-01
    0.50500807471351320810E-01
    0.50500829681179165709E-01
    0.50500799593558041989E-01
    0.50500827372717500829E-01
    0.50500887411384857983E-01
    0.50500945153260305698E-01
    0.50500902656847070082E-01
    0.50500885263699300809E-01
    0.50501091194018452035E-01
    0.50501073365869050824E-01
    0.50501158116848875179E-01
    0.50501130617389783373E-01
    0.50501023946464745906E-01
    0.50500975914202231309E-01
    0.50500895183232467900E-01
    0.50500906187496516497E-01
    0.50500852225888695490E-01
    0.50500872926363765680E-01
    0.50500950348510258159E-01
    0.50501000854095215442E-01
    0.50500989733465714848E-01
    0.50500976037151500131E-01
    0.50500941466806011093E-01
    0.50500940398119864572E-01
    0.50501017724526732489E-01
    0.50501004361268163334E-01
    0.50500917640164372235E-01
    0.50500888873572090387E-01
    0.50500818135749497850E-01
    0.50500815749542835031E-01
    0.50500764394497854592E-01
    0.50500772994932802140E-01
    0.50500834822498480436E-01
    0.50500864030842911034E-01
    0.50500875789131746685E-01
    0.50500869674747046745E-01
    0.50501152659266183853E-01
    0.50501162387758626038E-01
    0.50501282403977394708E-01
    0.50501271931940747151E-01
    0.50501145238122414904E-01
    0.50501113338682679377E-01
    0.50501004244009758959E-01
    0.50500990522304632646E-01
    0.50500908851830374202E-01
    0.50500914873525114268E-01
    0.50501004285461358057E-01
    0.50501037346667790318E-01
    0.50501071394369038969E-01
    0.50501066871574108730E-01
    0.50501299437040583773E-01
    0.50501292914838513681E-01
    0.50501426116519934628E-01
    0.50501396582411782477E-01
    0.50501243551164379242E-01
    0.50501185907730977709E-01
    0.50501065877434740681E-01
    0.50501068350811681440E-01
    0.50500982164000930708E-01
    0.50501000228079823140E-01
    0.50501108926860931170E-01
    0.50501163479140215307E-01
    0.50501177624962416413E-01
    0.50501164460213118779E-01
    0.50501650294527342111E-01
    0.50501652175261861621E-01
    0.50501850626945440914E-01
    0.50501816796540276167E-01
    0.50501598129412544891E-01
    0.50501527048944221121E-01
    0.50501349215687468819E-01
    0.50501340450656684311E-01
    0.50501208741081375642E-01
    0.50501226595177521606E-01
    0.50501382341039853519E-01
    0.50501450209708961814E-01
    0.50501489489407934419E-01
    0.50501475448312078964E-01
    0.50501400231441923028E-01
    0.50501341499949982394E-01
    0.50501425425191120988E-01
    0.50501372652337811475E-01
    0.50501240044459480560E-01
    0.50501160512710460693E-01
    0.50501066641809824742E-01
    0.50501103986603443352E-01
    0.50501051708461343337E-01
    0.50501099082802911044E-01
    0.50501201316328958590E-01
    0.50501298710315348228E-01
    0.50501228295587043127E-01
    0.50501199184288990407E-01
    0.50501559531330474095E-01
    0.50501532715131185192E-01
    0.50501684839930699455E-01
    0.50501638078996761994E-01
    0.50501448757252764832E-01
    0.50501363694753199918E-01
    0.50501221031792609129E-01
    0.50501240489879493933E-01
    0.50501145557957906329E-01
    0.50501181001716063945E-01
    0.50501315909311277064E-01
    0.50501401414262479805E-01
    0.50501386568334707960E-01
    0.50501363227107819165E-01
    0.50502052207716620347E-01
    0.50501961513565819806E-01
    0.50502107098232759674E-01
    0.50502025647249829121E-01
    0.50501801118269844248E-01
    0.50501671651489443704E-01
    0.50501509037210498554E-01
    0.50501568335733548754E-01
    0.50501478255151353858E-01
    0.50501556389542671954E-01
    0.50501726327831987506E-01
    0.50501885375260006927E-01
    0.50501774200681859295E-01
    0.50501727573584863362E-01
    0.50502354990011162628E-01
    0.50502324091075904977E-01
    0.50502600003080475033E-01
    0.50502528471025529000E-01
    0.50502193817036397649E-01
    0.50502050245417186292E-01
    0.50501795181833043780E-01
    0.50501823114996624575E-01
    0.50501652959159280820E-01
    0.50501709942514232121E-01
    0.50501942493955336022E-01
    0.50502080058280607311E-01
    0.50502072599543555709E-01
    0.50502036039846924520E-01
    0.50501941255145170462E-01
    0.50501929575392116856E-01
    0.50502169036904812072E-01
    0.50502112077617261621E-01
    0.50501835516504257895E-01
    0.50501725184716142469E-01
    0.50501513432567070316E-01
    0.50501523452788521507E-01
    0.50501372459560343875E-01
    0.50501406300424794837E-01
    0.50501600036882594857E-01
    0.50501697556523943156E-01
    0.50501721596548233839E-01
    0.50501696617715419180E-01
    0.50502566994141226409E-01
    0.50502555873825127897E-01
    0.50502904856308192261E-01
    0.50502824663239014036E-01
    0.50502429132512169363E-01
    0.50502278760537429314E-01
    0.50501973000699293403E-01
    0.50501977297021015401E-01
    0.50501752915735532989E-01
    0.50501793397260172358E-01
    0.50502073892862618665E-01
    0.50502205901742841521E-01