# vtk DataFile Version 3.0
LAPLACIEN  2D
ASCII
DATASET UNSTRUCTURED_GRID
 POINTS        7297  float
   1.5625000000000000E-002  0.96875000000000000        0.0000000000000000     
   3.1250000000000000E-002  0.96875000000000000        0.0000000000000000     
   3.1250000000000000E-002  0.98437500000000000        0.0000000000000000     
   9.3749999999999997E-003  0.97812500000000002        0.0000000000000000     
   2.0312500000000001E-002  0.97968750000000004        0.0000000000000000     
   2.1874999999999999E-002  0.99062499999999998        0.0000000000000000     
   1.0937499999999999E-002  0.98906249999999996        0.0000000000000000     
   4.6875000000000000E-002  0.96875000000000000        0.0000000000000000     
   6.2500000000000000E-002  0.96875000000000000        0.0000000000000000     
   6.2500000000000000E-002  0.98437500000000000        0.0000000000000000     
   4.0625000000000001E-002  0.97812500000000002        0.0000000000000000     
   5.1562499999999997E-002  0.97968750000000004        0.0000000000000000     
   5.3124999999999999E-002  0.99062499999999998        0.0000000000000000     
   4.2187500000000003E-002  0.98906249999999996        0.0000000000000000     
   1.5625000000000000E-002  0.93750000000000000        0.0000000000000000     
   3.1250000000000000E-002  0.93750000000000000        0.0000000000000000     
   3.1250000000000000E-002  0.95312500000000000        0.0000000000000000     
   9.3749999999999997E-003  0.94687500000000002        0.0000000000000000     
   2.0312500000000001E-002  0.94843750000000004        0.0000000000000000     
   2.1874999999999999E-002  0.95937499999999998        0.0000000000000000     
   1.0937499999999999E-002  0.95781249999999996        0.0000000000000000     
   4.6875000000000000E-002  0.93750000000000000        0.0000000000000000     
   6.2500000000000000E-002  0.93750000000000000        0.0000000000000000     
   6.2500000000000000E-002  0.95312500000000000        0.0000000000000000     
   4.0625000000000001E-002  0.94687500000000002        0.0000000000000000     
   5.1562499999999997E-002  0.94843750000000004        0.0000000000000000     
   5.3124999999999999E-002  0.95937499999999998        0.0000000000000000     
   4.2187500000000003E-002  0.95781249999999996        0.0000000000000000     
   7.8125000000000000E-002  0.96875000000000000        0.0000000000000000     
   9.3750000000000000E-002  0.96875000000000000        0.0000000000000000     
   9.3750000000000000E-002  0.98437500000000000        0.0000000000000000     
   7.1874999999999994E-002  0.97812500000000002        0.0000000000000000     
   8.2812499999999997E-002  0.97968750000000004        0.0000000000000000     
   8.4375000000000006E-002  0.99062499999999998        0.0000000000000000     
   7.3437500000000003E-002  0.98906249999999996        0.0000000000000000     
  0.10937500000000000       0.96875000000000000        0.0000000000000000     
  0.12500000000000000       0.96875000000000000        0.0000000000000000     
  0.12500000000000000       0.98437500000000000        0.0000000000000000     
  0.10312499999999999       0.97812500000000002        0.0000000000000000     
  0.11406250000000000       0.97968750000000004        0.0000000000000000     
  0.11562500000000001       0.99062499999999998        0.0000000000000000     
  0.10468750000000000       0.98906249999999996        0.0000000000000000     
   7.8125000000000000E-002  0.93750000000000000        0.0000000000000000     
   9.3750000000000000E-002  0.93750000000000000        0.0000000000000000     
   9.3750000000000000E-002  0.95312500000000000        0.0000000000000000     
   7.1874999999999994E-002  0.94687500000000002        0.0000000000000000     
   8.2812499999999997E-002  0.94843750000000004        0.0000000000000000     
   8.4375000000000006E-002  0.95937499999999998        0.0000000000000000     
   7.3437500000000003E-002  0.95781249999999996        0.0000000000000000     
  0.10937500000000000       0.93750000000000000        0.0000000000000000     
  0.12500000000000000       0.93750000000000000        0.0000000000000000     
  0.12500000000000000       0.95312500000000000        0.0000000000000000     
  0.10312499999999999       0.94687500000000002        0.0000000000000000     
  0.11406250000000000       0.94843750000000004        0.0000000000000000     
  0.11562500000000001       0.95937499999999998        0.0000000000000000     
  0.10468750000000000       0.95781249999999996        0.0000000000000000     
   1.5625000000000000E-002  0.90625000000000000        0.0000000000000000     
   3.1250000000000000E-002  0.90625000000000000        0.0000000000000000     
   3.1250000000000000E-002  0.92187500000000000        0.0000000000000000     
   9.3749999999999997E-003  0.91562500000000002        0.0000000000000000     
   2.0312500000000001E-002  0.91718750000000004        0.0000000000000000     
   2.1874999999999999E-002  0.92812499999999998        0.0000000000000000     
   1.0937499999999999E-002  0.92656249999999996        0.0000000000000000     
   4.6875000000000000E-002  0.90625000000000000        0.0000000000000000     
   6.2500000000000000E-002  0.90625000000000000        0.0000000000000000     
   6.2500000000000000E-002  0.92187500000000000        0.0000000000000000     
   4.0625000000000001E-002  0.91562500000000002        0.0000000000000000     
   5.1562499999999997E-002  0.91718750000000004        0.0000000000000000     
   5.3124999999999999E-002  0.92812499999999998        0.0000000000000000     
   4.2187500000000003E-002  0.92656249999999996        0.0000000000000000     
   1.5625000000000000E-002  0.87500000000000000        0.0000000000000000     
   3.1250000000000000E-002  0.87500000000000000        0.0000000000000000     
   3.1250000000000000E-002  0.89062500000000000        0.0000000000000000     
   9.3749999999999997E-003  0.88437500000000002        0.0000000000000000     
   2.0312500000000001E-002  0.88593750000000004        0.0000000000000000     
   2.1874999999999999E-002  0.89687499999999998        0.0000000000000000     
   1.0937499999999999E-002  0.89531249999999996        0.0000000000000000     
   4.6875000000000000E-002  0.87500000000000000        0.0000000000000000     
   6.2500000000000000E-002  0.87500000000000000        0.0000000000000000     
   6.2500000000000000E-002  0.89062500000000000        0.0000000000000000     
   4.0625000000000001E-002  0.88437500000000002        0.0000000000000000     
   5.1562499999999997E-002  0.88593750000000004        0.0000000000000000     
   5.3124999999999999E-002  0.89687499999999998        0.0000000000000000     
   4.2187500000000003E-002  0.89531249999999996        0.0000000000000000     
   7.8125000000000000E-002  0.90625000000000000        0.0000000000000000     
   9.3750000000000000E-002  0.90625000000000000        0.0000000000000000     
   9.3750000000000000E-002  0.92187500000000000        0.0000000000000000     
   7.1874999999999994E-002  0.91562500000000002        0.0000000000000000     
   8.2812499999999997E-002  0.91718750000000004        0.0000000000000000     
   8.4375000000000006E-002  0.92812499999999998        0.0000000000000000     
   7.3437500000000003E-002  0.92656249999999996        0.0000000000000000     
  0.10937500000000000       0.90625000000000000        0.0000000000000000     
  0.12500000000000000       0.90625000000000000        0.0000000000000000     
  0.12500000000000000       0.92187500000000000        0.0000000000000000     
  0.10312499999999999       0.91562500000000002        0.0000000000000000     
  0.11406250000000000       0.91718750000000004        0.0000000000000000     
  0.11562500000000001       0.92812499999999998        0.0000000000000000     
  0.10468750000000000       0.92656249999999996        0.0000000000000000     
   7.8125000000000000E-002  0.87500000000000000        0.0000000000000000     
   9.3750000000000000E-002  0.87500000000000000        0.0000000000000000     
   9.3750000000000000E-002  0.89062500000000000        0.0000000000000000     
   7.1874999999999994E-002  0.88437500000000002        0.0000000000000000     
   8.2812499999999997E-002  0.88593750000000004        0.0000000000000000     
   8.4375000000000006E-002  0.89687499999999998        0.0000000000000000     
   7.3437500000000003E-002  0.89531249999999996        0.0000000000000000     
  0.10937500000000000       0.87500000000000000        0.0000000000000000     
  0.12500000000000000       0.87500000000000000        0.0000000000000000     
  0.12500000000000000       0.89062500000000000        0.0000000000000000     
  0.10312499999999999       0.88437500000000002        0.0000000000000000     
  0.11406250000000000       0.88593750000000004        0.0000000000000000     
  0.11562500000000001       0.89687499999999998        0.0000000000000000     
  0.10468750000000000       0.89531249999999996        0.0000000000000000     
  0.14062500000000000       0.96875000000000000        0.0000000000000000     
  0.15625000000000000       0.96875000000000000        0.0000000000000000     
  0.15625000000000000       0.98437500000000000        0.0000000000000000     
  0.13437499999999999       0.97812500000000002        0.0000000000000000     
  0.14531250000000001       0.97968750000000004        0.0000000000000000     
  0.14687500000000001       0.99062499999999998        0.0000000000000000     
  0.13593749999999999       0.98906249999999996        0.0000000000000000     
  0.17187500000000000       0.96875000000000000        0.0000000000000000     
  0.18750000000000000       0.96875000000000000        0.0000000000000000     
  0.18750000000000000       0.98437500000000000        0.0000000000000000     
  0.16562499999999999       0.97812500000000002        0.0000000000000000     
  0.17656250000000001       0.97968750000000004        0.0000000000000000     
  0.17812500000000001       0.99062499999999998        0.0000000000000000     
[...]
 CELL_DATA       14336
 SCALARS Tumor_cells float
 LOOKUP_TABLE default
    0.19662147876855934717E-13
   -0.87597960089669637672E-14
    0.11047544778866146135E-13
   -0.10267973111176418914E-14
    0.23168916066323483894E-13
   -0.10746596042146899798E-13
    0.21443090622633760644E-13
   -0.36617733601146109643E-14
   -0.73436553365435774950E-14
   -0.54951162969787865019E-14
   -0.10434712791387980051E-13
    0.59923611150814790836E-14
    0.78308271918220249308E-14
    0.16753634861189807304E-13
    0.20745815494207655442E-13
    0.63638678078456376379E-14
    0.34700684010130148368E-14
    0.31906837975054950840E-13
    0.41027840153904181954E-13
    0.38307315845093793378E-14
    0.16367797197157342443E-13
   -0.74987372436914834315E-15
    0.35031882530966421202E-13
    0.94302869333152201066E-15
    0.14685255671034198925E-13
    0.11957102414679620451E-13
    0.84667633257425543155E-15
   -0.36611362815637874172E-14
   -0.16824678692288216999E-13
    0.37640520645344859618E-13
    0.48686534648177153339E-13
   -0.37530955711342606898E-14
   -0.19640148896717089529E-13
    0.34644082370603636219E-13
    0.47115465165919809121E-13
    0.31527295296287844824E-13
    0.90242848407049705746E-15
    0.81663741286989516829E-14
   -0.38661204815486141342E-14
    0.21969961826747516044E-13
    0.94127850734256491468E-15
    0.16670985495539618691E-13
    0.28568688588926867783E-13
    0.32562292476303498359E-13
   -0.18112663929852056672E-14
    0.33784901778899703978E-14
    0.34230360434916859050E-13
    0.20385262147872724409E-13
    0.30575066330975389362E-13
   -0.18227930803183276419E-13
    0.34125971848526918908E-13
    0.13756124100191051091E-13
   -0.20222301651264151334E-13
    0.41772745187802625871E-13
    0.39355915220124404173E-14
   -0.25252692891110001459E-14
    0.95327943411282588853E-14
   -0.19717405084768960342E-14
    0.31572257017847916987E-13
    0.37589306840643072308E-13
    0.16281566159413096874E-13
    0.18583734937858672806E-13
   -0.10805713084887060811E-14
    0.14165221543091736765E-13
    0.51444549148486645561E-13
    0.39147781896792227423E-13
    0.76205709024854906106E-14
    0.20845329938172579119E-14
    0.14830659230859758612E-13
    0.11101910164001021802E-13
   -0.10862748488680060116E-13
    0.17384296872799410444E-13
   -0.23458127646458837764E-13
    0.14969062202773745299E-13
    0.11131176947440173300E-13
    0.58372642502325922252E-14
   -0.13357263501236146416E-13
    0.16447910226025319038E-13
    0.12145294592446266096E-13
   -0.22546911604751731951E-13
   -0.22899177773060924171E-14
    0.32854744555653102924E-13
    0.30891190354757522391E-13
    0.12167643911967146083E-13
    0.15765764110673314155E-13
    0.27183812315316361452E-13
    0.17823576273745285850E-13
    0.25217239338428602139E-13
    0.14666315289378151708E-13
   -0.24476702986337806906E-13
    0.24181617573044054800E-13
   -0.13938498250364818891E-13
   -0.11797787379122799332E-13
    0.30305176338345480799E-13
    0.26705327954623385169E-13
    0.42889424489554315928E-14
    0.20902995606310958101E-13
    0.24305321847894777111E-13
    0.30388720675416592291E-13
    0.19888860775510445235E-13
    0.12585851712119068611E-13
   -0.19243171703573841593E-13
   -0.11928438688300018615E-13
    0.17577923879043560547E-13
   -0.20957548897280087398E-14
   -0.23818839704297074028E-13
    0.21681991640482366375E-13
    0.70638611421764658174E-14
    0.18139260500368444927E-13
    0.35155962007543597449E-14
    0.82166966625949892963E-15
   -0.13043986908107869925E-14
   -0.82140433516368972665E-14
   -0.69264409505712958503E-14
    0.31015654775266884797E-13
    0.50963322843413643577E-14
    0.11520742853552702735E-13
    0.43917654423318744152E-14
   -0.19811886882318595451E-13
   -0.33930666282268492865E-15
    0.41861198727203003468E-13
    0.19050387222190292440E-13
    0.29671538891529753102E-13
   -0.23178074749337677805E-14
   -0.52831326339249701778E-14
   -0.14631859803243536819E-13
    0.43419790806815858511E-14
    0.22571667938465450760E-14
   -0.18174151611010447402E-13
    0.10766302095562888793E-13
    0.32452665830421079358E-13
    0.37418734642793173914E-13
    0.43371848798676763855E-14
    0.13165886523554414441E-13
    0.41062307725823811454E-13
   -0.23986632701671010273E-13
   -0.24494642368141756437E-13
    0.69148679339382199086E-14
    0.11253113660233124652E-13
    0.23190025320301302583E-13
    0.32563766529636629411E-13
   -0.18458614426161496296E-14
    0.78420498677923172617E-14
   -0.56317020256419971065E-14
    0.30613028363423832134E-13
    0.56939634039240526058E-15
    0.71778647419976926023E-14
   -0.14560716520402950453E-13
    0.22285658848573173412E-14
    0.13100618262902736554E-13
    0.12195660149020963492E-13
   -0.14997659328344609459E-13
   -0.19472114123168831418E-13
    0.30058798732433560443E-13
    0.73552266688427229234E-14
    0.52899662613312794284E-14
    0.21332064139392851444E-13
    0.25660214955625974932E-13
    0.25083592555522146784E-13
   -0.39791997988120225017E-14
   -0.14946709069673758317E-14
   -0.93631305410483778578E-15
    0.10753338627342815095E-13
    0.12845520474711410660E-13
    0.74933527292359823688E-14
    0.23649740007233136633E-13
    0.15705138597479224652E-13
    0.15190776376690840677E-13
    0.18274177928522613750E-15
    0.20379135189679227204E-13
    0.95397701334875698178E-14
    0.10053788856319772804E-13
    0.13886860914589043736E-13
   -0.13773696468992879425E-14
   -0.94620729646836934013E-14
    0.24464900339678408576E-13
    0.17968452227509841357E-13
    0.55430293212825361622E-14
    0.10960800450466683070E-13
   -0.29785409446003748059E-14
    0.17774833813162034016E-13
    0.31410229210909717698E-13
    0.10433891637022373639E-14
    0.21938331927245882765E-13
   -0.27454034378248468596E-13
    0.25052652999447863631E-13
   -0.90268609170007405318E-14
    0.17227055149415354289E-13
   -0.44914636419304546073E-14
    0.19560849566539738167E-14
    0.14034029087696810100E-13
    0.18070003008440652360E-13
    0.12564188270702055307E-13
    0.11401785772449987210E-14
   -0.69668717407476920551E-15
   -0.29116994743566744430E-13
    0.26536013425590857242E-13
    0.38157689939062619670E-14
    0.43113549562974916264E-14
   -0.39128020503118574865E-13
    0.86162221346458486108E-14
    0.24012436605787888212E-13
    0.79409622523617826457E-15
   -0.20443785510957023227E-14
    0.27078393817239903792E-13
   -0.11492670043985992508E-14
   -0.16018758255960776882E-13
    0.15351143441338568940E-13
   -0.65343754293142498466E-14
   -0.12048367468189072213E-13
   -0.10451164798760048639E-13
   -0.12491139927177276302E-13
   -0.18833600145848380232E-13
    0.71474434716360527532E-14
    0.16274115545877405295E-13
    0.13764470992270361426E-13
   -0.11754610005093902368E-13
    0.33161507377922851153E-13
   -0.61793760600714279630E-14
    0.17763782872162667964E-15
    0.81834812241076910136E-14
    0.23069742108851434745E-13
   -0.26374984374892344232E-13
   -0.11660377960106692583E-13
   -0.58553842161206330552E-14
    0.16357555139512674061E-13
    0.82459558791606365547E-14
   -0.56901174419451415885E-14
    0.73537837512172441963E-14
    0.42693491206248411080E-13
    0.28418926448190844879E-13
    0.11977961877288393923E-13
    0.79574810063172808600E-14
    0.39760403536468445562E-13
   -0.24820359163930146275E-13
    0.18009130423216614217E-13
   -0.14117541292242717355E-13
    0.30643195864354197243E-14
   -0.16644651696686696717E-13
    0.92283425606612775638E-14
    0.74286367637040622057E-14
    0.23595742304959292297E-13
    0.36483269420857208805E-13
    0.10667008788025660200E-13
   -0.12190413467141512993E-14
   -0.13979794079803701402E-14
   -0.23983590704635255525E-14
    0.42937252859962150831E-13
    0.21902071461513343928E-13
    0.20677957172154644356E-13
    0.32784832771051902818E-14
    0.75275668071031922620E-14
    0.10034124109811003016E-13
    0.23735405769465613432E-13
    0.11739558122031834068E-13
    0.83207245377594078516E-14
    0.41900007991931622368E-14
   -0.10280514216585422192E-13
   -0.99669338694710456085E-14
   -0.32191531275729657749E-13
   -0.57862189894447197856E-14
    0.19925549990921084762E-13
   -0.96448141566217708866E-14
    0.10799623904709643414E-13
   -0.95169114341988786179E-14
   -0.16327637224572216610E-13
    0.42651820632201838980E-13
    0.30315160971277363775E-13
    0.41025890667137510547E-14
    0.31724637856288790176E-15
    0.78935845606042516132E-14
    0.24270634445769936626E-13
    0.24402571461660425767E-13
    0.54894627791686030799E-14
    0.15868255851456120057E-13
    0.49439540370776942235E-14
    0.44913907843745741685E-14
    0.23049752486491013206E-13
   -0.52636632426124913982E-14
   -0.90330415042260851246E-15
   -0.19136949424085429760E-13
    0.24376830779126837080E-13
   -0.13872359891296047669E-14
   -0.83654221727171467471E-15
    0.19885704063937587899E-13
    0.27970729972283239592E-14
    0.26215123676999457116E-14
    0.17612901821050022742E-13
   -0.87336843544833635127E-14
    0.93152244582046345398E-14
   -0.31392983196529890203E-14
    0.12941033375935535942E-13
    0.36136955268507865122E-13
    0.55547315191918782272E-14
    0.12378784562390623574E-13
    0.15940205550163015288E-13
    0.57802540406003413557E-14
    0.65714552041776491580E-15
    0.22594776908188274899E-13
    0.23049929370956890183E-13
    0.25084700381721374837E-13
    0.39517482676158019079E-14
    0.23455555653753175024E-13
    0.21434852886446820878E-13
    0.86364253859613286209E-14
    0.58486924741067502489E-14
    0.16304224701873491445E-13
    0.33733771648689135229E-14
   -0.16169869579634429506E-13
   -0.40571993306877753420E-14
    0.67006567521065001033E-14
    0.24210823701688119894E-13
    0.92412815866558938515E-14
    0.12038936261611122799E-13
   -0.29888955876528214075E-14
   -0.25365736407389040136E-13
   -0.14637279236099106899E-13
    0.10519602327769175084E-13
   -0.18059198622525670644E-13
    0.23255727205222627827E-13
    0.81858306132475027254E-14
    0.12899196439911005538E-13
    0.68488696895679831413E-14
    0.34521201502342295142E-14
   -0.42490192517083113275E-14
    0.27934694826217398800E-14
    0.58430570412367552925E-14
   -0.32143647766446768935E-13
   -0.90194787265392654478E-14
   -0.16103575748070036448E-13
   -0.31582306175254734360E-14
   -0.24735652606125227890E-13
   -0.21456943904757659196E-14
    0.20753360558471854106E-13
    0.68436359896095785811E-14
    0.94959113279268465940E-15
   -0.21223625825557759828E-14
    0.34469207512249852916E-13
    0.89103695780224595674E-14
    0.21166053206462955443E-14
    0.77520877921875220529E-14
    0.26096699397145293755E-13
    0.10795119592954180210E-13
   -0.37137149860985772037E-14
    0.43647054149574976697E-14
    0.83836377621727212303E-14
    0.25980424925208967809E-14
    0.43272689016279208233E-13
    0.30580996880025809466E-13
   -0.86747558610923922268E-14
    0.12303774124448777128E-14
   -0.67585942898430766887E-15
    0.14465268694325897360E-14
    0.10995613513543641843E-13
    0.29435240608878204020E-13
    0.72742951247858124134E-14
   -0.62718721910187731253E-14
   -0.82856356438790265519E-14
    0.11026117698678634126E-13
   -0.65837198474097149164E-14
   -0.57803291534598042527E-14
    0.73416572084693491009E-15
    0.12667726188495989694E-13
   -0.23285354565450143331E-13
    0.13256616582368007660E-13
   -0.20333465439302203109E-13
    0.61480392051107045521E-14
   -0.45869036680210554242E-14
   -0.31576456061169839964E-14
    0.21307198595891434767E-13
    0.39663626542711420839E-13
    0.10186404842925016498E-14
    0.20767360354832495465E-13
    0.15609215206653207245E-13
   -0.13915623176178429333E-13
    0.92958115054491943629E-14
    0.72975326485756899348E-14
    0.30719386916384490103E-13
    0.37162427829134756327E-14
   -0.41628987425106658818E-14
   -0.55014598801987610815E-15
   -0.60606037140403759850E-14
   -0.54313163854754416651E-14
    0.24942424541912554907E-14
   -0.15454980283994532168E-13
    0.37401824759658975368E-13
    0.31356430340609051635E-13
    0.12093689763841388489E-13
    0.21717705663028748643E-14
    0.50463799813093416413E-14
   -0.10218020471933292426E-13
    0.24152863478800523128E-13
   -0.29841420291922766815E-14
    0.44517545839199756744E-13
    0.17018268668566930609E-13
    0.73235719356605878310E-14
    0.29878559704011646586E-13
   -0.18965465028951899891E-14
    0.28225022450461526243E-13
    0.77120987166331640009E-14
    0.20998614889961074993E-13
    0.18325298924414819032E-13
    0.72541901682714783707E-14
    0.12437447488880633830E-14
    0.24050539957427413879E-13
    0.16643529420192176962E-13
   -0.30905008169800381889E-15
    0.52273986127430902042E-14
    0.16670239122916994085E-13
    0.15591405944549236795E-13
    0.65715233994815528408E-14
   -0.13146688396938286603E-13
   -0.10485180737645011548E-13
    0.10346814530388735439E-13
    0.89740023431585728877E-14
    0.50966860271606919118E-14
   -0.21959030639522841373E-14
   -0.27855366807101812049E-14
    0.14473225393046042759E-14
    0.56319916401680131092E-14
   -0.78689389765435308175E-14
    0.12012335031615404091E-13
    0.11029710809005173589E-13
   -0.68971431652670800166E-14
   -0.59604435977895719254E-14
   -0.28054332321201477185E-15
    0.14999064016773237512E-13
   -0.11053997955001462282E-13
    0.19245744761467637211E-13
   -0.78000327296074669144E-14
   -0.20523538116988245956E-14
   -0.14154131435471992877E-13
    0.27832771371599602641E-13
   -0.42768327359829901271E-14
    0.73241762617668623636E-15
    0.15647382621119748793E-14
    0.10551712863106504969E-13
   -0.88840561727221327208E-14
   -0.15603793663747956662E-13
    0.75435800125664132124E-14
    0.22995019539619264530E-13
    0.11774957219127558147E-13
    0.22645485271126589969E-14
   -0.14302990983716901904E-13
   -0.75054729028278946986E-14
   -0.97201241854006493388E-15
    0.52058180808551159563E-14
   -0.68563596624909128255E-14
    0.31127675090475843536E-13
    0.53684985282430778197E-15
    0.39756655751843274679E-13
    0.25151479213936888408E-13
   -0.80147975760951981138E-14
    0.12687864785563406994E-13
   -0.40681560434830087889E-14
    0.15394642197995121073E-13
    0.34026991522487846486E-13
    0.85816812998085466241E-14
    0.16523656116359545646E-13
    0.12442749487271644672E-13
   -0.42267305054423512492E-14
    0.58869801401676392896E-14
    0.81304663925747508985E-14
   -0.14763823439011567866E-13
    0.47047533283940495620E-14
    0.19755251380315461375E-13
    0.36775798207193958324E-13
   -0.54806882785274371301E-14
    0.20777555051907143061E-14
    0.37419961235358342940E-13
   -0.13941195176993626531E-14
    0.26221852751669652695E-13
    0.34766589106546028674E-14
    0.44341368948528992061E-14
    0.16589361878848496476E-13
    0.21519536480427553987E-13
    0.85548707852904317332E-14
    0.20224814743244145221E-13
    0.26497225208921589395E-13
    0.13746333992758118381E-13
    0.45249455184292031199E-13
    0.61289487903199483247E-14
    0.17589161377482060298E-13
    0.29208134749719701065E-13
    0.17218739628778470471E-13
   -0.22566558614575130429E-14
    0.31598132493504591985E-14
    0.22082153781795092637E-14
    0.14518473274960473757E-13
    0.11017578474616158947E-13
    0.17912032794114685447E-14
   -0.15510862915622374604E-14
    0.32994420604878341976E-14
    0.23121734692460370649E-13
    0.37999582654388857619E-14
    0.37905526579166963164E-13
    0.73474328828554664752E-14
    0.19912975751279506721E-13
    0.29629494383041811545E-13
    0.34067916559902979412E-13
   -0.93751479840907862045E-14
    0.22959388273331328487E-14
    0.14531516540124265059E-13
   -0.59884870598400380850E-14
   -0.29367712130497472756E-15
    0.13511440331685939375E-13
    0.20589053425757760584E-13
    0.12027804933046353056E-13
    0.24500812364853825066E-13
    0.28832571595493937715E-13
    0.92211976578214845459E-14
    0.50459070602720768654E-15
   -0.50931483768223182273E-14
   -0.38054663068670371018E-14
    0.14956360958373411956E-13
    0.20783401610272982705E-13
   -0.14768729204461457891E-13
    0.33435182168563416753E-13
   -0.59364801219579927582E-14
    0.11583476869235413928E-13
    0.28088070896298699650E-13
    0.29670591601465477661E-14
   -0.10047573790669489090E-13
    0.29281881657773274177E-13
   -0.94827827074698408048E-14
   -0.38937322982071517246E-14
    0.19675280671606467285E-15
    0.36067300654589046507E-13
    0.30368208760650698142E-13
   -0.39665545557037117544E-14
   -0.83999018428635287435E-16
    0.75284263846821638013E-14
   -0.14931853427369011642E-13
    0.26291376069519029120E-13
    0.63003976945137477196E-14
   -0.15609265178464402376E-14
   -0.39963544908636304486E-15
   -0.82600134989531721618E-14
    0.94160785012369654850E-14
    0.16239435871716104793E-13
   -0.12265839083685292215E-13
    0.30753431505032931577E-13
   -0.10096817933161474689E-13
    0.19939920517940234379E-14
    0.11385131565049038147E-13
    0.39469069226807811200E-14
   -0.30623727829309285166E-13
   -0.41101096722085187586E-14
    0.22826253763488350627E-13
   -0.97316621521819108289E-14
    0.23704082709072234408E-13
    0.32961384938292089984E-13
    0.37125092879062134528E-13
   -0.49660105840950663981E-14
    0.40518526692796627796E-14
    0.35092380063923331556E-16
   -0.31849730677611539828E-14
    0.91765769515540459923E-14
    0.69331533621033016177E-14
   -0.73827916116511047201E-15
    0.12109010181712370785E-13
    0.67516991161163342262E-14
   -0.11332350646097220634E-14
    0.37480385097694375833E-14
    0.17312668216375108484E-13
    0.23259143965892433998E-13
    0.12843261927911842598E-13
    0.10525007306473960476E-13
    0.88075444334443965911E-14
   -0.67926922810927197969E-14
    0.13769074764125054891E-13
   -0.21924923313799379635E-13
    0.56760309359644990951E-14
    0.39159025550350854593E-13
    0.18144101192201260067E-13
    0.10191145269092570946E-13
    0.90822809347359630943E-14
    0.28580413084742309456E-14
   -0.74362841834389598849E-15
   -0.91838972690259387113E-14
    0.27698729982072584065E-14
    0.12842865829806757807E-13
    0.21655790997162312535E-13
   -0.25929102491861283746E-14
    0.51209520972606427731E-14
    0.11731462974617598277E-13
    0.11016641304825282731E-13
    0.11595781438293643171E-13
    0.76931386955607890375E-14
    0.84189021987345227383E-14
   -0.79015609471587497960E-14
   -0.41326910224319370033E-14
    0.25694021579479474733E-14
    0.75471845578603477846E-14
    0.21061448548548104819E-13
   -0.59307240760684855856E-14
    0.28456513117167606786E-15
    0.24261387679877371580E-13
    0.21235184872811614230E-13
    0.13998504885724026485E-13
   -0.10054500722864984498E-13
    0.49668493309195609183E-14
   -0.47480573979589452344E-14
    0.14892761336464457551E-14
   -0.10977905687811063360E-13
   -0.20841634780906327160E-13
   -0.14382409253570363824E-14
   -0.10192041937562259166E-13
   -0.18061237619695776224E-13
    0.27298581027301313304E-14
    0.19314990380571857344E-13
   -0.28006362574616238600E-14
    0.20334019463240156955E-13
    0.49591417296868238386E-14
    0.68656592987211231055E-15
    0.55754743528173578156E-15
   -0.14116726207321050474E-13
    0.56814122892888053487E-14
    0.12910922723911016043E-13
    0.18894441538091029907E-13
    0.60639067617117494277E-14
    0.15428682091414660018E-14
   -0.61856389530824568882E-14
    0.14942751469751176527E-13
    0.17507120946401148916E-13
    0.28833072559432131462E-13
    0.27254271184685283152E-13
    0.78269393242900246507E-14
    0.13739456956645788644E-13
    0.12789233297614633669E-13
    0.12892307541899601015E-13
    0.11073714541953969617E-13
   -0.15924962209793237116E-14
    0.11193410587899126621E-13
    0.23861535973629171892E-13
    0.88523225183640521527E-14
    0.33658493917822116818E-14
   -0.17236046830376820985E-13
   -0.12056623950536643087E-13
    0.15425005083132251365E-13
    0.50631860219595471217E-14
    0.62933649535792552642E-14