# vtk DataFile Version 3.0
LAPLACIEN  2D
ASCII
DATASET UNSTRUCTURED_GRID
FIELD FieldData 1
TIME 1 1 double
11.6000
 POINTS        7297  float
   1.5625000000000000E-002  0.96875000000000000        0.0000000000000000     
   3.1250000000000000E-002  0.96875000000000000        0.0000000000000000     
   3.1250000000000000E-002  0.98437500000000000        0.0000000000000000     
   9.3749999999999997E-003  0.97812500000000002        0.0000000000000000     
   2.0312500000000001E-002  0.97968750000000004        0.0000000000000000     
   2.1874999999999999E-002  0.99062499999999998        0.0000000000000000     
   1.0937499999999999E-002  0.98906249999999996        0.0000000000000000     
   4.6875000000000000E-002  0.96875000000000000        0.0000000000000000     
   6.2500000000000000E-002  0.96875000000000000        0.0000000000000000     
   6.2500000000000000E-002  0.98437500000000000        0.0000000000000000     
   4.0625000000000001E-002  0.97812500000000002        0.0000000000000000     
   5.1562499999999997E-002  0.97968750000000004        0.0000000000000000     
   5.3124999999999999E-002  0.99062499999999998        0.0000000000000000     
   4.2187500000000003E-002  0.98906249999999996        0.0000000000000000     
   1.5625000000000000E-002  0.93750000000000000        0.0000000000000000     
   3.1250000000000000E-002  0.93750000000000000        0.0000000000000000     
   3.1250000000000000E-002  0.95312500000000000        0.0000000000000000     
   9.3749999999999997E-003  0.94687500000000002        0.0000000000000000     
   2.0312500000000001E-002  0.94843750000000004        0.0000000000000000     
   2.1874999999999999E-002  0.95937499999999998        0.0000000000000000     
   1.0937499999999999E-002  0.95781249999999996        0.0000000000000000     
   4.6875000000000000E-002  0.93750000000000000        0.0000000000000000     
   6.2500000000000000E-002  0.93750000000000000        0.0000000000000000     
   6.2500000000000000E-002  0.95312500000000000        0.0000000000000000     
   4.0625000000000001E-002  0.94687500000000002        0.0000000000000000     
   5.1562499999999997E-002  0.94843750000000004        0.0000000000000000     
   5.3124999999999999E-002  0.95937499999999998        0.0000000000000000     
   4.2187500000000003E-002  0.95781249999999996        0.0000000000000000     
   7.8125000000000000E-002  0.96875000000000000        0.0000000000000000     
   9.3750000000000000E-002  0.96875000000000000        0.0000000000000000     
   9.3750000000000000E-002  0.98437500000000000        0.0000000000000000     
   7.1874999999999994E-002  0.97812500000000002        0.0000000000000000     
   8.2812499999999997E-002  0.97968750000000004        0.0000000000000000     
   8.4375000000000006E-002  0.99062499999999998        0.0000000000000000     
   7.3437500000000003E-002  0.98906249999999996        0.0000000000000000     
  0.10937500000000000       0.96875000000000000        0.0000000000000000     
  0.12500000000000000       0.96875000000000000        0.0000000000000000     
  0.12500000000000000       0.98437500000000000        0.0000000000000000     
  0.10312499999999999       0.97812500000000002        0.0000000000000000     
  0.11406250000000000       0.97968750000000004        0.0000000000000000     
  0.11562500000000001       0.99062499999999998        0.0000000000000000     
  0.10468750000000000       0.98906249999999996        0.0000000000000000     
   7.8125000000000000E-002  0.93750000000000000        0.0000000000000000     
   9.3750000000000000E-002  0.93750000000000000        0.0000000000000000     
   9.3750000000000000E-002  0.95312500000000000        0.0000000000000000     
   7.1874999999999994E-002  0.94687500000000002        0.0000000000000000     
   8.2812499999999997E-002  0.94843750000000004        0.0000000000000000     
   8.4375000000000006E-002  0.95937499999999998        0.0000000000000000     
   7.3437500000000003E-002  0.95781249999999996        0.0000000000000000     
  0.10937500000000000       0.93750000000000000        0.0000000000000000     
  0.12500000000000000       0.93750000000000000        0.0000000000000000     
  0.12500000000000000       0.95312500000000000        0.0000000000000000     
  0.10312499999999999       0.94687500000000002        0.0000000000000000     
  0.11406250000000000       0.94843750000000004        0.0000000000000000     
  0.11562500000000001       0.95937499999999998        0.0000000000000000     
  0.10468750000000000       0.95781249999999996        0.0000000000000000     
   1.5625000000000000E-002  0.90625000000000000        0.0000000000000000     
   3.1250000000000000E-002  0.90625000000000000        0.0000000000000000     
   3.1250000000000000E-002  0.92187500000000000        0.0000000000000000     
   9.3749999999999997E-003  0.91562500000000002        0.0000000000000000     
   2.0312500000000001E-002  0.91718750000000004        0.0000000000000000     
   2.1874999999999999E-002  0.92812499999999998        0.0000000000000000     
   1.0937499999999999E-002  0.92656249999999996        0.0000000000000000     
   4.6875000000000000E-002  0.90625000000000000        0.0000000000000000     
   6.2500000000000000E-002  0.90625000000000000        0.0000000000000000     
   6.2500000000000000E-002  0.92187500000000000        0.0000000000000000     
   4.0625000000000001E-002  0.91562500000000002        0.0000000000000000     
   5.1562499999999997E-002  0.91718750000000004        0.0000000000000000     
   5.3124999999999999E-002  0.92812499999999998        0.0000000000000000     
   4.2187500000000003E-002  0.92656249999999996        0.0000000000000000     
   1.5625000000000000E-002  0.87500000000000000        0.0000000000000000     
   3.1250000000000000E-002  0.87500000000000000        0.0000000000000000     
   3.1250000000000000E-002  0.89062500000000000        0.0000000000000000     
   9.3749999999999997E-003  0.88437500000000002        0.0000000000000000     
   2.0312500000000001E-002  0.88593750000000004        0.0000000000000000     
   2.1874999999999999E-002  0.89687499999999998        0.0000000000000000     
   1.0937499999999999E-002  0.89531249999999996        0.0000000000000000     
   4.6875000000000000E-002  0.87500000000000000        0.0000000000000000     
   6.2500000000000000E-002  0.87500000000000000        0.0000000000000000     
   6.2500000000000000E-002  0.89062500000000000        0.0000000000000000     
   4.0625000000000001E-002  0.88437500000000002        0.0000000000000000     
   5.1562499999999997E-002  0.88593750000000004        0.0000000000000000     
   5.3124999999999999E-002  0.89687499999999998        0.0000000000000000     
   4.2187500000000003E-002  0.89531249999999996        0.0000000000000000     
   7.8125000000000000E-002  0.90625000000000000        0.0000000000000000     
   9.3750000000000000E-002  0.90625000000000000        0.0000000000000000     
   9.3750000000000000E-002  0.92187500000000000        0.0000000000000000     
   7.1874999999999994E-002  0.91562500000000002        0.0000000000000000     
   8.2812499999999997E-002  0.91718750000000004        0.0000000000000000     
   8.4375000000000006E-002  0.92812499999999998        0.0000000000000000     
   7.3437500000000003E-002  0.92656249999999996        0.0000000000000000     
  0.10937500000000000       0.90625000000000000        0.0000000000000000     
  0.12500000000000000       0.90625000000000000        0.0000000000000000     
  0.12500000000000000       0.92187500000000000        0.0000000000000000     
  0.10312499999999999       0.91562500000000002        0.0000000000000000     
  0.11406250000000000       0.91718750000000004        0.0000000000000000     
  0.11562500000000001       0.92812499999999998        0.0000000000000000     
  0.10468750000000000       0.92656249999999996        0.0000000000000000     
   7.8125000000000000E-002  0.87500000000000000        0.0000000000000000     
   9.3750000000000000E-002  0.87500000000000000        0.0000000000000000     
   9.3750000000000000E-002  0.89062500000000000        0.0000000000000000     
   7.1874999999999994E-002  0.88437500000000002        0.0000000000000000     
   8.2812499999999997E-002  0.88593750000000004        0.0000000000000000     
   8.4375000000000006E-002  0.89687499999999998        0.0000000000000000     
   7.3437500000000003E-002  0.89531249999999996        0.0000000000000000     
  0.10937500000000000       0.87500000000000000        0.0000000000000000     
  0.12500000000000000       0.87500000000000000        0.0000000000000000     
  0.12500000000000000       0.89062500000000000        0.0000000000000000     
  0.10312499999999999       0.88437500000000002        0.0000000000000000     
  0.11406250000000000       0.88593750000000004        0.0000000000000000     
  0.11562500000000001       0.89687499999999998        0.0000000000000000     
  0.10468750000000000       0.89531249999999996        0.0000000000000000     
  0.14062500000000000       0.96875000000000000        0.0000000000000000     
  0.15625000000000000       0.96875000000000000        0.0000000000000000     
  0.15625000000000000       0.98437500000000000        0.0000000000000000     
  0.13437499999999999       0.97812500000000002        0.0000000000000000     
  0.14531250000000001       0.97968750000000004        0.0000000000000000     
  0.14687500000000001       0.99062499999999998        0.0000000000000000     
  0.13593749999999999       0.98906249999999996        0.0000000000000000     
  0.17187500000000000       0.96875000000000000        0.0000000000000000     
  0.18750000000000000       0.96875000000000000        0.0000000000000000     
  0.18750000000000000       0.98437500000000000        0.0000000000000000     
  0.16562499999999999       0.97812500000000002        0.0000000000000000     
  0.17656250000000001       0.97968750000000004        0.0000000000000000     
[...]
 CELL_DATA       14336
 SCALARS Tumor_cells float
 LOOKUP_TABLE default
    0.31133207822822334121E-01
    0.31133207581125536129E-01
    0.31133209468073134302E-01
    0.31133209468072655518E-01
    0.31133207581126150221E-01
    0.31133207822820689603E-01
    0.31133206326767862843E-01
    0.31133205442044484951E-01
    0.31133204486769386343E-01
    0.31133204486763876861E-01
    0.31133205442047558881E-01
    0.31133206326767200178E-01
    0.31133206188186119540E-01
    0.31133206188185127278E-01
    0.31133214025518846785E-01
    0.31133215678819381456E-01
    0.31133220167438833276E-01
    0.31133221411094095382E-01
    0.31133218044941055047E-01
    0.31133219657880354531E-01
    0.31133216129959818963E-01
    0.31133213196738791784E-01
    0.31133210101118694718E-01
    0.31133208993271248993E-01
    0.31133210921282176986E-01
    0.31133210683347897069E-01
    0.31133213705534210775E-01
    0.31133214369006866062E-01
    0.31133219657883993980E-01
    0.31133218044943660602E-01
    0.31133221411097002779E-01
    0.31133220167440873311E-01
    0.31133215678821109240E-01
    0.31133214025519145157E-01
    0.31133210683348996883E-01
    0.31133210921282721689E-01
    0.31133208993273084331E-01
    0.31133210101119437180E-01
    0.31133213196741248152E-01
    0.31133216129962535540E-01
    0.31133214369009076100E-01
    0.31133213705535820598E-01
    0.31133227991766515563E-01
    0.31133228715057807007E-01
    0.31133235740079975157E-01
    0.31133235740079444331E-01
    0.31133228715056967401E-01
    0.31133227991764336751E-01
    0.31133221766956684778E-01
    0.31133219993005833981E-01
    0.31133215366648144679E-01
    0.31133215366648175904E-01
    0.31133219993006791548E-01
    0.31133221766958402155E-01
    0.31133223811021747823E-01
    0.31133223811021449451E-01
    0.31133230622017147443E-01
    0.31133235098656945883E-01
    0.31133243868337500543E-01
    0.31133247137607202720E-01
    0.31133241335468370831E-01
    0.31133245263927359497E-01
    0.31133238333948657500E-01
    0.31133231904547701424E-01
    0.31133225257868289704E-01
    0.31133222449799782816E-01
    0.31133225994782933593E-01
    0.31133224289705434262E-01
    0.31133232037999128416E-01
    0.31133233805566602748E-01
    0.31133263874236264540E-01
    0.31133272911779408948E-01
    0.31133288430808675473E-01
    0.31133294744411087185E-01
    0.31133284947423595090E-01
    0.31133292219865129485E-01
    0.31133279949919150098E-01
    0.31133268285358204480E-01
    0.31133256162213032714E-01
    0.31133250655533552254E-01
    0.31133256880652996484E-01
    0.31133252765685123092E-01
    0.31133268048814402573E-01
    0.31133271480434390743E-01
    0.31133249772058842197E-01
    0.31133253272219510444E-01
    0.31133265607280906362E-01
    0.31133267254117528294E-01
    0.31133256287528741912E-01
    0.31133256918538926988E-01
    0.31133246103607733341E-01
    0.31133241328761083327E-01
    0.31133232485681436308E-01
    0.31133231153844889011E-01
    0.31133238557895966114E-01
    0.31133239386389951336E-01
    0.31133246164042765319E-01
    0.31133247010197519222E-01
    0.31133291063448548935E-01
    0.31133299129872699096E-01
    0.31133320390974585090E-01
    0.31133324796823104441E-01
    0.31133307221900038964E-01
    0.31133310034793804100E-01
    0.31133291758238063052E-01
    0.31133282135234138094E-01
    0.31133266516913078031E-01
    0.31133262980284678173E-01
    0.31133274721403331881E-01
    0.31133274057298151311E-01
    0.31133288466576862497E-01
    0.31133290734285435503E-01
    0.31133245263935495351E-01
    0.31133241335475399930E-01
    0.31133247137614568356E-01
    0.31133243868343814936E-01
    0.31133235098662226381E-01
    0.31133230622020984651E-01
    0.31133224289708976568E-01
    0.31133225994787159380E-01
    0.31133222449803973908E-01
    0.31133225257872911007E-01
    0.31133231904553616831E-01
    0.31133238333955735172E-01
    0.31133233805572486930E-01
    0.31133232038004485243E-01
    0.31133256918545633429E-01
    0.31133256287533918327E-01
    0.31133267254122534706E-01
    0.31133265607284608262E-01
    0.31133253272222362329E-01
    0.31133249772059997523E-01
    0.31133239386391068498E-01
    0.31133238557898363502E-01
    0.31133231153847636813E-01
    0.31133232485684995960E-01
    0.31133241328765652589E-01
    0.31133246103613749362E-01
    0.31133247010201616639E-01
    0.31133246164046182725E-01
    0.31133292219879697693E-01
    0.31133284947436810214E-01
    0.31133294744424801909E-01
    0.31133288430821082216E-01
    0.31133272911790261378E-01
    0.31133263874245292041E-01
    0.31133252765693331804E-01
    0.31133256880662395216E-01
    0.31133250655542513835E-01
    0.31133256162222913699E-01
    0.31133268285369736922E-01
    0.31133279949932344405E-01
    0.31133271480445989104E-01
    0.31133268048825331331E-01
    0.31133310034806960243E-01
    0.31133307221911397933E-01
    0.31133324796834508513E-01
    0.31133320390984403625E-01
    0.31133299129881147199E-01
    0.31133291063454877207E-01
    0.31133274057304007737E-01
    0.31133274721410843233E-01
    0.31133262980292231159E-01
    0.31133266516921821038E-01
    0.31133282135244307043E-01
    0.31133291758250185299E-01
    0.31133290734295229751E-01
    0.31133288466585827547E-01
    0.31133287300473804632E-01
    0.31133290019697699297E-01
    0.31133308327206433985E-01
    0.31133308327205636012E-01
    0.31133290019696231721E-01
    0.31133287300470373349E-01
    0.31133270618625120962E-01
    0.31133266752912905351E-01
    0.31133253956524560568E-01
    0.31133253956525157313E-01
    0.31133266752914241088E-01
    0.31133270618628260812E-01
    0.31133277324862713986E-01
    0.31133277324862301122E-01
    0.31133343882085353499E-01
    0.31133351952550399749E-01
    0.31133382804872003491E-01
    0.31133385687964122701E-01
    0.31133356970722107782E-01
    0.31133355454703793425E-01
    0.31133327800203201147E-01
    0.31133318861969367514E-01
    0.31133296991797204667E-01
    0.31133295038378888675E-01
    0.31133314554361590093E-01
    0.31133317503337708948E-01
    0.31133333262056910040E-01
    0.31133334627146673490E-01
    0.31133355454713712573E-01
    0.31133356970729778729E-01
    0.31133385687971332212E-01
    0.31133382804877346439E-01
    0.31133351952554573494E-01
    0.31133343882087119447E-01
    0.31133317503339349996E-01
    0.31133314554365368321E-01
    0.31133295038383166503E-01
    0.31133296991802970888E-01
    0.31133318861976365388E-01
    0.31133327800212474978E-01
    0.31133334627152817881E-01
    0.31133333262062072577E-01
    0.31133438246237987723E-01
    0.31133445901691314539E-01
    0.31133492444731097892E-01
    0.31133492444730005017E-01
    0.31133445901689260626E-01
    0.31133438246233213764E-01
    0.31133395967911769303E-01
    0.31133386868548423160E-01
    0.31133354625733879878E-01
    0.31133354625734778465E-01
    0.31133386868550324417E-01
    0.31133395967916279584E-01
    0.31133413840144560231E-01
    0.31133413840143977364E-01
    0.31133323655952668124E-01
    0.31133339929492329784E-01
    0.31133366855784057325E-01
    0.31133378173697889152E-01
    0.31133361417901773971E-01
    0.31133374272300503444E-01
    0.31133353065046515812E-01
    0.31133332647490474104E-01
    0.31133311514730227509E-01
    0.31133301744163947855E-01
    0.31133312373915929261E-01
    0.31133304703169051297E-01
    0.31133331873557608394E-01
    0.31133337987360319016E-01
    0.31133428484688637633E-01
    0.31133456961739896379E-01
    0.31133503870994692908E-01
    0.31133523420569426260E-01
    0.31133494130823932688E-01
    0.31133516022955991243E-01
    0.31133479485253180014E-01
    0.31133444303481437598E-01
    0.31133407719258425483E-01
    0.31133390790900609263E-01
    0.31133409123582721223E-01
    0.31133395588861925707E-01
    0.31133442993265456750E-01
    0.31133453590867651850E-01
    0.31133365515028578463E-01
    0.31133381343976546801E-01
    0.31133418298078759101E-01
    0.31133427381365257058E-01
    0.31133397796445153038E-01
    0.31133403872733843992E-01
    0.31133372318227891390E-01
    0.31133354842802853785E-01
    0.31133327774766631629E-01
    0.31133320814749742417E-01
    0.31133340045537288149E-01
    0.31133336984543839854E-01
    0.31133364248120267564E-01
    0.31133368821411998989E-01
    0.31133498206327436808E-01
    0.31133527468779249175E-01
    0.31133592448957320836E-01
    0.31133609200676912176E-01
    0.31133557578844662378E-01
    0.31133568443701884615E-01
    0.31133513412090016437E-01
    0.31133482640403765257E-01
    0.31133435470066340989E-01
    0.31133422855792382278E-01
    0.31133455730097864961E-01
    0.31133449023745936313E-01
    0.31133498286265357674E-01
    0.31133506630957204914E-01
    0.31133610673325044088E-01
    0.31133659119614277844E-01
    0.31133739887360397519E-01
    0.31133772031916716327E-01
    0.31133720918260835570E-01
    0.31133756692792838999E-01
    0.31133694859015400430E-01
    0.31133635535152061335E-01
    0.31133573260908421060E-01
    0.31133544402454575717E-01
    0.31133576245414393280E-01
    0.31133553495151875673E-01
    0.31133634234649099071E-01
    0.31133651967063184773E-01
    0.31133921987237266060E-01
    0.31134000835546404851E-01
    0.31134137569374706334E-01
    0.31134187174289333633E-01
    0.31134098517790430999E-01
    0.31134153751429909096E-01
    0.31134052153567542964E-01
    0.31133955294874404024E-01
    0.31133851799652001446E-01
    0.31133804213411886419E-01
    0.31133859072422366554E-01
    0.31133822955714537256E-01
    0.31133956050669080867E-01
    0.31133984447542447510E-01
    0.31133734412865397834E-01
    0.31133786223044062486E-01
    0.31133901523549913776E-01
    0.31133930005181380263E-01
    0.31133837361608147215E-01
    0.31133853698903396490E-01
    0.31133757401990955899E-01
    0.31133705321262118704E-01
    0.31133623151053033823E-01
    0.31133601559653199115E-01
    0.31133659378600828799E-01
    0.31133647523989754768E-01
    0.31133734134678615196E-01
    0.31133748352329234516E-01
    0.31134152529148532290E-01
    0.31134239962615908176E-01
    0.31134443751219906954E-01
    0.31134487315347562919E-01
    0.31134319299869137043E-01
    0.31134338122079344147E-01
    0.31134170701170332807E-01
    0.31134086923949460396E-01
    0.31133945304474004712E-01
    0.31133910599086600524E-01
    0.31134014217871971986E-01
    0.31133997202415636396E-01
    0.31134143884572203220E-01
    0.31134166150380355315E-01
    0.31133445169616882214E-01
    0.31133462695946051424E-01
    0.31133515530498673263E-01
    0.31133523670327678534E-01
    0.31133476563259428888E-01
    0.31133477216820366895E-01
    0.31133430037990000167E-01
    0.31133412239048606496E-01
    0.31133374562810338382E-01
    0.31133369320912880618E-01
    0.31133400614362923692E-01
    0.31133402068264901669E-01
    0.31133433473276156400E-01
    0.31133437198739333934E-01
    0.31133626117882205048E-01
    0.31133661228510047664E-01
    0.31133754435675866507E-01
    0.31133772422822322823E-01
    0.31133691296722186548E-01
    0.31133695271917404684E-01
    0.31133612462056432790E-01
    0.31133579231477633703E-01
    0.31133513016727225320E-01
    0.31133502011147021205E-01
    0.31133554511573662688E-01
    0.31133553004890478222E-01
    0.31133613055153195465E-01
    0.31133621074042383547E-01
    0.31133581912551073351E-01
    0.31133601343434562370E-01
    0.31133678514859111641E-01
    0.31133684892262068061E-01
    0.31133611790444239847E-01
    0.31133605865336720642E-01
    0.31133535622388450181E-01
    0.31133515481905366801E-01
    0.31133461010171593897E-01
    0.31133457340945358549E-01
    0.31133507095894425581E-01
    0.31133515455391905236E-01
    0.31133553606782889134E-01
    0.31133556361861144945E-01
    0.31133833894807446535E-01
    0.31133877182641898906E-01
    0.31134010354641267898E-01
    0.31134030954962432086E-01
    0.31133910097357296587E-01
    0.31133908952240260670E-01
    0.31133787095849813770E-01
    0.31133745760127045504E-01
    0.31133650900613155793E-01
    0.31133640025715701022E-01
    0.31133720245744008620E-01
    0.31133725586142531327E-01
    0.31133802466596100650E-01
    0.31133811017806628518E-01
    0.31133954560923774585E-01
    0.31134021751423657243E-01
    0.31134190171898872695E-01
    0.31134224859172436595E-01
    0.31134079034501514760E-01
    0.31134086151288913741E-01
    0.31133937743836187506E-01
    0.31133878349706444605E-01
    0.31133760360305223064E-01
    0.31133739748098111788E-01
    0.31133831704726593753E-01
    0.31133825601947155703E-01
    0.31133937164410749321E-01
    0.31133952377359566666E-01
    0.31134556240203867944E-01
    0.31134678934456330723E-01
    0.31134987200384014322E-01
    0.31135046708664248366E-01
    0.31134776726508928829E-01
    0.31134780548149137980E-01
    0.31134512276683904558E-01
    0.31134411809680618416E-01
    0.31134200593251979555E-01
    0.31134165643012239044E-01
    0.31134332507157101710E-01
    0.31134321791673219559E-01
    0.31134523000108264845E-01
    0.31134548932483623040E-01
    0.31134291678282931259E-01
    0.31134383246976048837E-01
    0.31134624107084517969E-01
    0.31134672939799643010E-01
    0.31134460425672850353E-01
    0.31134467197541596667E-01
    0.31134247307140462679E-01
    0.31134166917629494536E-01
    0.31133996101306772586E-01
    0.31133971449003712550E-01
    0.31134108093726884509E-01
    0.31134105478517831722E-01
    0.31134258474686756640E-01
    0.31134278390686508792E-01
    0.31135149764733801442E-01
    0.31135333330618252673E-01
    0.31135783419451171922E-01
    0.31135882384466389422E-01
    0.31135488257030951437E-01
    0.31135501147638119934E-01
    0.31135093912945364242E-01
    0.31134945397437826381E-01
    0.31134631202219827106E-01
    0.31134582848984595355E-01
    0.31134828869280557068E-01
    0.31134812649282184865E-01
    0.31135109020454125595E-01
    0.31135148787332488779E-01
    0.31133374272323426080E-01
    0.31133361417923041681E-01
    0.31133378173719857690E-01
    0.31133366855804454204E-01
    0.31133339929510658872E-01
    0.31133323655968752480E-01
    0.31133304703183886653E-01
    0.31133312373932277295E-01
    0.31133301744179633225E-01
    0.31133311514747137594E-01
    0.31133332647509497082E-01
    0.31133353065067700255E-01
    0.31133337987379477302E-01
    0.31133331873575937482E-01
    0.31133403872755358033E-01
    0.31133397796464588880E-01
    0.31133427381384953109E-01
    0.31133418298096598997E-01
    0.31133381343992513196E-01
    0.31133365515041980937E-01
    0.31133336984556357618E-01
    0.31133340045551776559E-01
    0.31133320814764046947E-01
    0.31133327774782434960E-01
    0.31133354842820551434E-01
    0.31133372318248017652E-01
    0.31133368821429384388E-01
    0.31133364248136667640E-01
    0.31133516022989124461E-01
    0.31133494130855129955E-01
    0.31133523420601539461E-01
    0.31133503871024939547E-01
    0.31133456961767617260E-01
    0.31133428484713648876E-01
    0.31133395588885285493E-01
    0.31133409123607926755E-01
    0.31133390790924937025E-01
    0.31133407719284265924E-01
    0.31133444303509890533E-01
    0.31133479485284245442E-01
    0.31133453590896302543E-01
    0.31133442993293115181E-01
    0.31133568443733692505E-01
    0.31133557578874128391E-01
    0.31133609200706915954E-01
    0.31133592448985218659E-01
    0.31133527468804714916E-01
    0.31133498206349859844E-01
    0.31133449023767034020E-01
    0.31133455730121242094E-01
    0.31133422855815322261E-01
    0.31133435470091071207E-01
    0.31133482640430892863E-01
    0.31133513412120020214E-01
    0.31133506630984131291E-01
    0.31133498286291142604E-01
    0.31133477216838737617E-01
    0.31133476563275266913E-01
    0.31133523670343336148E-01
    0.31133515530512176350E-01
    0.31133462695957851013E-01
    0.31133445169625795224E-01
    0.31133402068273263036E-01
    0.31133400614373731019E-01
    0.31133369320923951623E-01
    0.31133374562823196152E-01
    0.31133412239063192051E-01
    0.31133430038007330054E-01
    0.31133437198753170089E-01
    0.31133433473288847637E-01
    0.31133605865350071074E-01
    0.31133611790454554513E-01
    0.31133684892271692307E-01
    0.31133678514866255232E-01
    0.31133601343440196751E-01
    0.31133581912553484616E-01
    0.31133515455394125682E-01
    0.31133507095899591588E-01
    0.31133457340951291303E-01
    0.31133461010179639544E-01
    0.31133515481914956352E-01
    0.31133535622401141418E-01
    0.31133556361869482026E-01
    0.31133553606789890478E-01
    0.31133695271946298239E-01
    0.31133691296748287197E-01
    0.31133772422848558781E-01
    0.31133754435699656504E-01
    0.31133661228531537418E-01
    0.31133626117900322500E-01
    0.31133553004907561779E-01
    0.31133554511593507924E-01
    0.31133502011166852563E-01
    0.31133513016749124469E-01
    0.31133579231501829626E-01
    0.31133612462083844891E-01
    0.31133621074065948031E-01
    0.31133613055175445028E-01
    0.31133908952264418429E-01
    0.31133910097378109799E-01
    0.31134030954982884476E-01
    0.31134010354658927383E-01
    0.31133877182657400395E-01
    0.31133833894819218369E-01
    0.31133725586153602333E-01
    0.31133720245758351314E-01
    0.31133640025730543316E-01
    0.31133650900630419761E-01
    0.31133745760146439713E-01
    0.31133787095872854367E-01
    0.31133811017824888218E-01
    0.31133802466612833793E-01
    0.31133756692838250590E-01
    0.31133720918303981612E-01
    0.31133772031961035043E-01
    0.31133739887402561708E-01
    0.31133659119653329939E-01
    0.31133610673360907761E-01
    0.31133553495185668086E-01
    0.31133576245450357567E-01
    0.31133544402489419373E-01
    0.31133573260945089645E-01
    0.31133635535191876709E-01
    0.31133694859058362592E-01
    0.31133651967103253416E-01
    0.31133634234688001979E-01
    0.31133853698947607652E-01
    0.31133837361649770170E-01
    0.31133930005223905274E-01
    0.31133901523590048338E-01
    0.31133786223081126587E-01
    0.31133734412898933508E-01
    0.31133647524021472452E-01
    0.31133659378635124282E-01
    0.31133601559686752136E-01
    0.31133623151088654635E-01
    0.31133705321300716301E-01
    0.31133757402032880696E-01
    0.31133748352367783541E-01
    0.31133734134715859709E-01
    0.31134153751489840323E-01
    0.31134098517847787896E-01
    0.31134187174348234434E-01
    0.31134137569431123010E-01
    0.31134000835599046769E-01
    0.31133921987286174854E-01
    0.31133822955760850903E-01
    0.31133859072471199020E-01
    0.31133804213459341514E-01
    0.31133851799701604129E-01
    0.31133955294927760649E-01
    0.31134052153624611897E-01
    0.31133984447596161488E-01
    0.31133956050721434822E-01
    0.31134338122138418420E-01
    0.31134319299925421881E-01
    0.31134487315405308394E-01
    0.31134443751274980955E-01
    0.31134239962667058232E-01
    0.31134152529195588399E-01
    0.31133997202460197973E-01
    0.31134014217919413203E-01
    0.31133910599132900293E-01
    0.31133945304522698400E-01
    0.31134086924001828228E-01
    0.31134170701226565603E-01
    0.31134166150432879272E-01
    0.31134143884623238785E-01
    0.31134086151330689352E-01
    0.31134079034540233788E-01
    0.31134224859211741959E-01
    0.31134190171935444136E-01
    0.31134021751457182509E-01
    0.31133954560953417540E-01
    0.31133825601975147201E-01
    0.31133831704757631426E-01
    0.31133739748128795577E-01
    0.31133760360338283424E-01
    0.31133878349742453995E-01
    0.31133937743875940429E-01
    0.31133952377395128497E-01
    0.31133937164444819290E-01
    0.31134467197579299147E-01
    0.31134460425706896036E-01
    0.31134672939833879513E-01
    0.31134624107115576458E-01
    0.31134383247004088907E-01
    0.31134291678306585949E-01
    0.31134105478540133327E-01
    0.31134108093752811686E-01
    0.31133971449029764628E-01
    0.31133996101335589812E-01
    0.31134166917661174057E-01
    0.31134247307176374925E-01