# vtk DataFile Version 3.0
LAPLACIEN  2D
ASCII
DATASET UNSTRUCTURED_GRID
FIELD FieldData 1
TIME 1 1 double
12.3000
 POINTS        7297  float
   1.5625000000000000E-002  0.96875000000000000        0.0000000000000000     
   3.1250000000000000E-002  0.96875000000000000        0.0000000000000000     
   3.1250000000000000E-002  0.98437500000000000        0.0000000000000000     
   9.3749999999999997E-003  0.97812500000000002        0.0000000000000000     
   2.0312500000000001E-002  0.97968750000000004        0.0000000000000000     
   2.1874999999999999E-002  0.99062499999999998        0.0000000000000000     
   1.0937499999999999E-002  0.98906249999999996        0.0000000000000000     
   4.6875000000000000E-002  0.96875000000000000        0.0000000000000000     
   6.2500000000000000E-002  0.96875000000000000        0.0000000000000000     
   6.2500000000000000E-002  0.98437500000000000        0.0000000000000000     
   4.0625000000000001E-002  0.97812500000000002        0.0000000000000000     
   5.1562499999999997E-002  0.97968750000000004        0.0000000000000000     
   5.3124999999999999E-002  0.99062499999999998        0.0000000000000000     
   4.2187500000000003E-002  0.98906249999999996        0.0000000000000000     
   1.5625000000000000E-002  0.93750000000000000        0.0000000000000000     
   3.1250000000000000E-002  0.93750000000000000        0.0000000000000000     
   3.1250000000000000E-002  0.95312500000000000        0.0000000000000000     
   9.3749999999999997E-003  0.94687500000000002        0.0000000000000000     
   2.0312500000000001E-002  0.94843750000000004        0.0000000000000000     
   2.1874999999999999E-002  0.95937499999999998        0.0000000000000000     
   1.0937499999999999E-002  0.95781249999999996        0.0000000000000000     
   4.6875000000000000E-002  0.93750000000000000        0.0000000000000000     
   6.2500000000000000E-002  0.93750000000000000        0.0000000000000000     
   6.2500000000000000E-002  0.95312500000000000        0.0000000000000000     
   4.0625000000000001E-002  0.94687500000000002        0.0000000000000000     
   5.1562499999999997E-002  0.94843750000000004        0.0000000000000000     
   5.3124999999999999E-002  0.95937499999999998        0.0000000000000000     
   4.2187500000000003E-002  0.95781249999999996        0.0000000000000000     
   7.8125000000000000E-002  0.96875000000000000        0.0000000000000000     
   9.3750000000000000E-002  0.96875000000000000        0.0000000000000000     
   9.3750000000000000E-002  0.98437500000000000        0.0000000000000000     
   7.1874999999999994E-002  0.97812500000000002        0.0000000000000000     
   8.2812499999999997E-002  0.97968750000000004        0.0000000000000000     
   8.4375000000000006E-002  0.99062499999999998        0.0000000000000000     
   7.3437500000000003E-002  0.98906249999999996        0.0000000000000000     
  0.10937500000000000       0.96875000000000000        0.0000000000000000     
  0.12500000000000000       0.96875000000000000        0.0000000000000000     
  0.12500000000000000       0.98437500000000000        0.0000000000000000     
  0.10312499999999999       0.97812500000000002        0.0000000000000000     
  0.11406250000000000       0.97968750000000004        0.0000000000000000     
  0.11562500000000001       0.99062499999999998        0.0000000000000000     
  0.10468750000000000       0.98906249999999996        0.0000000000000000     
   7.8125000000000000E-002  0.93750000000000000        0.0000000000000000     
   9.3750000000000000E-002  0.93750000000000000        0.0000000000000000     
   9.3750000000000000E-002  0.95312500000000000        0.0000000000000000     
   7.1874999999999994E-002  0.94687500000000002        0.0000000000000000     
   8.2812499999999997E-002  0.94843750000000004        0.0000000000000000     
   8.4375000000000006E-002  0.95937499999999998        0.0000000000000000     
   7.3437500000000003E-002  0.95781249999999996        0.0000000000000000     
  0.10937500000000000       0.93750000000000000        0.0000000000000000     
  0.12500000000000000       0.93750000000000000        0.0000000000000000     
  0.12500000000000000       0.95312500000000000        0.0000000000000000     
  0.10312499999999999       0.94687500000000002        0.0000000000000000     
  0.11406250000000000       0.94843750000000004        0.0000000000000000     
  0.11562500000000001       0.95937499999999998        0.0000000000000000     
  0.10468750000000000       0.95781249999999996        0.0000000000000000     
   1.5625000000000000E-002  0.90625000000000000        0.0000000000000000     
   3.1250000000000000E-002  0.90625000000000000        0.0000000000000000     
   3.1250000000000000E-002  0.92187500000000000        0.0000000000000000     
   9.3749999999999997E-003  0.91562500000000002        0.0000000000000000     
   2.0312500000000001E-002  0.91718750000000004        0.0000000000000000     
   2.1874999999999999E-002  0.92812499999999998        0.0000000000000000     
   1.0937499999999999E-002  0.92656249999999996        0.0000000000000000     
   4.6875000000000000E-002  0.90625000000000000        0.0000000000000000     
   6.2500000000000000E-002  0.90625000000000000        0.0000000000000000     
   6.2500000000000000E-002  0.92187500000000000        0.0000000000000000     
   4.0625000000000001E-002  0.91562500000000002        0.0000000000000000     
   5.1562499999999997E-002  0.91718750000000004        0.0000000000000000     
   5.3124999999999999E-002  0.92812499999999998        0.0000000000000000     
   4.2187500000000003E-002  0.92656249999999996        0.0000000000000000     
   1.5625000000000000E-002  0.87500000000000000        0.0000000000000000     
   3.1250000000000000E-002  0.87500000000000000        0.0000000000000000     
   3.1250000000000000E-002  0.89062500000000000        0.0000000000000000     
   9.3749999999999997E-003  0.88437500000000002        0.0000000000000000     
   2.0312500000000001E-002  0.88593750000000004        0.0000000000000000     
   2.1874999999999999E-002  0.89687499999999998        0.0000000000000000     
   1.0937499999999999E-002  0.89531249999999996        0.0000000000000000     
   4.6875000000000000E-002  0.87500000000000000        0.0000000000000000     
   6.2500000000000000E-002  0.87500000000000000        0.0000000000000000     
   6.2500000000000000E-002  0.89062500000000000        0.0000000000000000     
   4.0625000000000001E-002  0.88437500000000002        0.0000000000000000     
   5.1562499999999997E-002  0.88593750000000004        0.0000000000000000     
   5.3124999999999999E-002  0.89687499999999998        0.0000000000000000     
   4.2187500000000003E-002  0.89531249999999996        0.0000000000000000     
   7.8125000000000000E-002  0.90625000000000000        0.0000000000000000     
   9.3750000000000000E-002  0.90625000000000000        0.0000000000000000     
   9.3750000000000000E-002  0.92187500000000000        0.0000000000000000     
   7.1874999999999994E-002  0.91562500000000002        0.0000000000000000     
   8.2812499999999997E-002  0.91718750000000004        0.0000000000000000     
   8.4375000000000006E-002  0.92812499999999998        0.0000000000000000     
   7.3437500000000003E-002  0.92656249999999996        0.0000000000000000     
  0.10937500000000000       0.90625000000000000        0.0000000000000000     
  0.12500000000000000       0.90625000000000000        0.0000000000000000     
  0.12500000000000000       0.92187500000000000        0.0000000000000000     
  0.10312499999999999       0.91562500000000002        0.0000000000000000     
  0.11406250000000000       0.91718750000000004        0.0000000000000000     
  0.11562500000000001       0.92812499999999998        0.0000000000000000     
  0.10468750000000000       0.92656249999999996        0.0000000000000000     
   7.8125000000000000E-002  0.87500000000000000        0.0000000000000000     
   9.3750000000000000E-002  0.87500000000000000        0.0000000000000000     
   9.3750000000000000E-002  0.89062500000000000        0.0000000000000000     
   7.1874999999999994E-002  0.88437500000000002        0.0000000000000000     
   8.2812499999999997E-002  0.88593750000000004        0.0000000000000000     
   8.4375000000000006E-002  0.89687499999999998        0.0000000000000000     
   7.3437500000000003E-002  0.89531249999999996        0.0000000000000000     
  0.10937500000000000       0.87500000000000000        0.0000000000000000     
  0.12500000000000000       0.87500000000000000        0.0000000000000000     
  0.12500000000000000       0.89062500000000000        0.0000000000000000     
  0.10312499999999999       0.88437500000000002        0.0000000000000000     
  0.11406250000000000       0.88593750000000004        0.0000000000000000     
  0.11562500000000001       0.89687499999999998        0.0000000000000000     
  0.10468750000000000       0.89531249999999996        0.0000000000000000     
  0.14062500000000000       0.96875000000000000        0.0000000000000000     
  0.15625000000000000       0.96875000000000000        0.0000000000000000     
  0.15625000000000000       0.98437500000000000        0.0000000000000000     
  0.13437499999999999       0.97812500000000002        0.0000000000000000     
  0.14531250000000001       0.97968750000000004        0.0000000000000000     
  0.14687500000000001       0.99062499999999998        0.0000000000000000     
  0.13593749999999999       0.98906249999999996        0.0000000000000000     
  0.17187500000000000       0.96875000000000000        0.0000000000000000     
  0.18750000000000000       0.96875000000000000        0.0000000000000000     
  0.18750000000000000       0.98437500000000000        0.0000000000000000     
  0.16562499999999999       0.97812500000000002        0.0000000000000000     
  0.17656250000000001       0.97968750000000004        0.0000000000000000     
[...]
 CELL_DATA       14336
 SCALARS Tumor_cells float
 LOOKUP_TABLE default
    0.35037660102143271257E-01
    0.35037659814172589234E-01
    0.35037662075140751927E-01
    0.35037662075140273144E-01
    0.35037659814173609252E-01
    0.35037660102141501839E-01
    0.35037658310582690813E-01
    0.35037657250063879155E-01
    0.35037656105096848247E-01
    0.35037656105089340364E-01
    0.35037657250067917591E-01
    0.35037658310581518140E-01
    0.35037658144423389217E-01
    0.35037658144422084705E-01
    0.35037667537841127308E-01
    0.35037669519768027682E-01
    0.35037674899800683170E-01
    0.35037676391160642309E-01
    0.35037672356228191650E-01
    0.35037674288866317573E-01
    0.35037670060577744136E-01
    0.35037666544849591088E-01
    0.35037662833579459598E-01
    0.35037661507862229160E-01
    0.35037663816715060305E-01
    0.35037663532374974107E-01
    0.35037667155084717407E-01
    0.35037667949292840286E-01
    0.35037674288869384565E-01
    0.35037672356230210868E-01
    0.35037676391163119494E-01
    0.35037674899802230544E-01
    0.35037669519769595872E-01
    0.35037667537841162002E-01
    0.35037663532376236986E-01
    0.35037663816715171328E-01
    0.35037661507864123478E-01
    0.35037662833579667765E-01
    0.35037666544851797656E-01
    0.35037670060579902132E-01
    0.35037667949294713787E-01
    0.35037667155086014981E-01
    0.35037684279311677449E-01
    0.35037685146382509249E-01
    0.35037693567725049226E-01
    0.35037693567724750854E-01
    0.35037685146381794543E-01
    0.35037684279309963542E-01
    0.35037676817692590958E-01
    0.35037674690995168625E-01
    0.35037669145686012317E-01
    0.35037669145685949867E-01
    0.35037674690995987414E-01
    0.35037676817694006492E-01
    0.35037679267794198668E-01
    0.35037679267793900295E-01
    0.35037687432734838933E-01
    0.35037692799928285559E-01
    0.35037703313613846601E-01
    0.35037707233724936506E-01
    0.35037700277872424470E-01
    0.35037704987904101650E-01
    0.35037696679454520543E-01
    0.35037688971303805607E-01
    0.35037681002521074702E-01
    0.35037677637048229851E-01
    0.35037681885848409591E-01
    0.35037679841682246862E-01
    0.35037689131126550923E-01
    0.35037691249936497861E-01
    0.35037727300204095371E-01
    0.35037738137320667553E-01
    0.35037756745447123929E-01
    0.35037764317101233180E-01
    0.35037752570294143639E-01
    0.35037761291410840503E-01
    0.35037746578325701385E-01
    0.35037732591419415429E-01
    0.35037718055182291710E-01
    0.35037711452537853574E-01
    0.35037718916135933422E-01
    0.35037713981597599922E-01
    0.35037732307129025588E-01
    0.35037736422147192084E-01
    0.35037710389598693272E-01
    0.35037714586220569668E-01
    0.35037729374649037584E-01
    0.35037731349615477972E-01
    0.35037718202026946201E-01
    0.35037718959238288441E-01
    0.35037705993329643084E-01
    0.35037700268325297492E-01
    0.35037689666998300675E-01
    0.35037688069873028363E-01
    0.35037696946036922530E-01
    0.35037697938937906184E-01
    0.35037706064664414507E-01
    0.35037707079448116021E-01
    0.35037759896139886173E-01
    0.35037769569378436618E-01
    0.35037795062248744404E-01
    0.35037800346929950934E-01
    0.35037779274568983667E-01
    0.35037782649269953728E-01
    0.35037760734699469056E-01
    0.35037749194982571732E-01
    0.35037730468389760574E-01
    0.35037726227100607357E-01
    0.35037740303989733937E-01
    0.35037739506549106516E-01
    0.35037756784871719462E-01
    0.35037759504649004794E-01
    0.35037704987910776866E-01
    0.35037700277878218447E-01
    0.35037707233730890077E-01
    0.35037703313619147916E-01
    0.35037692799932601551E-01
    0.35037687432738037763E-01
    0.35037679841685133442E-01
    0.35037681885851851282E-01
    0.35037677637051720114E-01
    0.35037681002524828644E-01
    0.35037688971308697528E-01
    0.35037696679460328397E-01
    0.35037691249941389782E-01
    0.35037689131130922426E-01
    0.35037718959243964456E-01
    0.35037718202031130355E-01
    0.35037731349619835597E-01
    0.35037729374651868652E-01
    0.35037714586223026036E-01
    0.35037710389599463490E-01
    0.35037697938938981712E-01
    0.35037696946038775214E-01
    0.35037688069875422281E-01
    0.35037689667001083171E-01
    0.35037700268329148579E-01
    0.35037705993334472554E-01
    0.35037707079451467507E-01
    0.35037706064667266392E-01
    0.35037761291422872545E-01
    0.35037752570305003008E-01
    0.35037764317112682355E-01
    0.35037756745457206142E-01
    0.35037738137329674237E-01
    0.35037727300211388148E-01
    0.35037713981604455549E-01
    0.35037718916143607839E-01
    0.35037711452545257373E-01
    0.35037718055190403277E-01
    0.35037732591428935591E-01
    0.35037746578336581571E-01
    0.35037736422156691429E-01
    0.35037732307138046151E-01
    0.35037782649280611869E-01
    0.35037779274578476074E-01
    0.35037800346939096396E-01
    0.35037795062257154344E-01
    0.35037769569385271429E-01
    0.35037759896145367899E-01
    0.35037739506553734758E-01
    0.35037740303996034452E-01
    0.35037726227106692767E-01
    0.35037730468397094985E-01
    0.35037749194990856771E-01
    0.35037760734709627597E-01
    0.35037759504657123300E-01
    0.35037756784879053873E-01
    0.35037755382895698075E-01
    0.35037758642697251765E-01
    0.35037780592339508312E-01
    0.35037780592339168306E-01
    0.35037758642695926437E-01
    0.35037755382893144562E-01
    0.35037735382563335584E-01
    0.35037730747602253978E-01
    0.35037715406078820402E-01
    0.35037715406079479596E-01
    0.35037730747603246240E-01
    0.35037735382566145836E-01
    0.35037743422365701107E-01
    0.35037743422365312529E-01
    0.35037823222917013899E-01
    0.35037832900647554457E-01
    0.35037869894473126775E-01
    0.35037873353171440638E-01
    0.35037838920215787220E-01
    0.35037837104759474161E-01
    0.35037803945626951052E-01
    0.35037793226527093327E-01
    0.35037767003616250572E-01
    0.35037764660563873453E-01
    0.35037788059601955581E-01
    0.35037791594574249632E-01
    0.35037810490899518046E-01
    0.35037812128433182268E-01
    0.35037837104768015939E-01
    0.35037838920221955896E-01
    0.35037873353177866054E-01
    0.35037869894477165211E-01
    0.35037832900651225132E-01
    0.35037823222918131061E-01
    0.35037791594575921905E-01
    0.35037788059604904611E-01
    0.35037764660567675967E-01
    0.35037767003620753914E-01
    0.35037793226533039959E-01
    0.35037803945634334035E-01
    0.35037812128438212966E-01
    0.35037810490903861793E-01
    0.35037936372798596241E-01
    0.35037945551483762330E-01
    0.35038001360910626947E-01
    0.35038001360910266124E-01
    0.35037945551481805562E-01
    0.35037936372795112916E-01
    0.35037885677516679428E-01
    0.35037874765914633901E-01
    0.35037836104792788317E-01
    0.35037836104793905478E-01
    0.35037874765915973108E-01
    0.35037885677520884398E-01
    0.35037907106612142805E-01
    0.35037907106611594632E-01
    0.35037798985497380089E-01
    0.35037818502146003685E-01
    0.35037850791944720463E-01
    0.35037864366705494257E-01
    0.35037844273657574312E-01
    0.35037859690442908767E-01
    0.35037834257588940101E-01
    0.35037809771821269711E-01
    0.35037784429472626502E-01
    0.35037772712331639868E-01
    0.35037785458895250035E-01
    0.35037776258988607980E-01
    0.35037808842584838853E-01
    0.35037816175004198038E-01
    0.35037924701751141376E-01
    0.35037958856268751340E-01
    0.35038015114188622579E-01
    0.35038038563104452472E-01
    0.35038003436877039609E-01
    0.35038029694464990771E-01
    0.35037985873859200936E-01
    0.35037943678856937890E-01
    0.35037899803278885202E-01
    0.35037879500590930759E-01
    0.35037901486026021280E-01
    0.35037885251831185629E-01
    0.35037942105741834431E-01
    0.35037954816508024014E-01
    0.35037849172259445674E-01
    0.35037868156501526806E-01
    0.35037912470783340313E-01
    0.35037923366960196936E-01
    0.35037887890856635187E-01
    0.35037895181151586244E-01
    0.35037857341706730996E-01
    0.35037836382700873750E-01
    0.35037803923657642735E-01
    0.35037795575949513827E-01
    0.35037818634884733415E-01
    0.35037814961602478658E-01
    0.35037847658071823165E-01
    0.35037853143636929487E-01
    0.35038008301143133694E-01
    0.35038043399373511311E-01
    0.35038121327770593849E-01
    0.35038141422908376799E-01
    0.35038079517437668853E-01
    0.35038092553045262212E-01
    0.35038026555310131105E-01
    0.35037989647440911933E-01
    0.35037933077454869180E-01
    0.35037917946978296146E-01
    0.35037957368893438148E-01
    0.35037949321448678963E-01
    0.35038008405661139055E-01
    0.35038018415423678731E-01
    0.35038143206549320074E-01
    0.35038201313585280727E-01
    0.35038298182083968402E-01
    0.35038336737723066450E-01
    0.35038275436714436117E-01
    0.35038318345670518839E-01
    0.35038244184501701750E-01
    0.35038173032688510466E-01
    0.35038098343652436528E-01
    0.35038063731173844928E-01
    0.35038101920872394279E-01
    0.35038074632394888841E-01
    0.35038171470388596029E-01
    0.35038192739065505965E-01
    0.35038516586183156287E-01
    0.35038611157794836981E-01
    0.35038775150141990289E-01
    0.35038834647600540506E-01
    0.35038728320003882655E-01
    0.35038794568120736062E-01
    0.35038672715347156383E-01
    0.35038556544376826818E-01
    0.35038432415419734633E-01
    0.35038375340655208978E-01
    0.35038441135043348063E-01
    0.35038397814103325323E-01
    0.35038557447854334903E-01
    0.35038591507463988373E-01
    0.35038291588128607501E-01
    0.35038353731651553091E-01
    0.35038492013523062085E-01
    0.35038526178474013739E-01
    0.35038415074530628035E-01
    0.35038434675884577718E-01
    0.35038319185579563930E-01
    0.35038256718077025187E-01
    0.35038158169246699791E-01
    0.35038132270388155920E-01
    0.35038201609359463651E-01
    0.35038187384909373623E-01
    0.35038291267154547670E-01
    0.35038308321664005107E-01
    0.35038793055380844377E-01
    0.35038897926328499421E-01
    0.35039142336191583804E-01
    0.35039194591727280959E-01
    0.35038993092589724998E-01
    0.35039015675911749925E-01
    0.35038814883522187427E-01
    0.35038714399275798506E-01
    0.35038544548620507990E-01
    0.35038502919878082575E-01
    0.35038627188453651262E-01
    0.35038606772074168405E-01
    0.35038782704669667323E-01
    0.35038809412605863292E-01
    0.35037944678112997732E-01
    0.35037965698171510964E-01
    0.35038029055257512157E-01
    0.35038038820577765975E-01
    0.35037982333641706778E-01
    0.35037983122473255471E-01
    0.35037926547515065023E-01
    0.35037905199791254118E-01
    0.35037860020334057887E-01
    0.35037853732298361586E-01
    0.35037891255143192859E-01
    0.35037892995266058105E-01
    0.35037930658396783390E-01
    0.35037935127647204525E-01
    0.35038161675588687383E-01
    0.35038203788017190099E-01
    0.35038315566284505831E-01
    0.35038337144509171250E-01
    0.35038239858890089795E-01
    0.35038244634907664277E-01
    0.35038145326011869984E-01
    0.35038105467443542151E-01
    0.35038026059677644664E-01
    0.35038012857243734655E-01
    0.35038075813098423783E-01
    0.35038073999566689276E-01
    0.35038146022256112799E-01
    0.35038155642103267773E-01
    0.35038108644538351610E-01
    0.35038131946921055593E-01
    0.35038224488114111388E-01
    0.35038232139029873435E-01
    0.35038144479657050423E-01
    0.35038137379536385407E-01
    0.35038053147141395849E-01
    0.35038028991423657288E-01
    0.35037963671639957286E-01
    0.35037959269925936234E-01
    0.35038018931372705289E-01
    0.35038028953736866100E-01
    0.35038074705320138014E-01
    0.35038078010516601757E-01
    0.35038410821610042889E-01
    0.35038462739967884962E-01
    0.35038622442918762601E-01
    0.35038647155491292606E-01
    0.35038502225105523646E-01
    0.35038500862565602478E-01
    0.35038354729624458794E-01
    0.35038305150417170530E-01
    0.35038191392052185635E-01
    0.35038178345923293167E-01
    0.35038274542387365384E-01
    0.35038280939738722375E-01
    0.35038373144758980238E-01
    0.35038383403151664164E-01
    0.35038555575541543985E-01
    0.35038636166923271820E-01
    0.35038838151817248978E-01
    0.35038879762118800565E-01
    0.35038704883557751646E-01
    0.35038713431095193374E-01
    0.35038535447994817451E-01
    0.35038464207493701108E-01
    0.35038322702614296822E-01
    0.35038297976137153245E-01
    0.35038408252166766688E-01
    0.35038400922476349575E-01
    0.35038534731413030487E-01
    0.35038552980899431710E-01
    0.35039277184533965115E-01
    0.35039424346905122254E-01
    0.35039794051497229199E-01
    0.35039865433126128613E-01
    0.35039541652953927475E-01
    0.35039546252091664791E-01
    0.35039224514002986766E-01
    0.35039104010260696542E-01
    0.35038850694332310254E-01
    0.35038808769143871269E-01
    0.35039008882253801225E-01
    0.35038996016471257722E-01
    0.35039237345942289559E-01
    0.35039268453199136355E-01
    0.35038959825253360170E-01
    0.35039069652881893457E-01
    0.35039358507841143753E-01
    0.35039417084384613665E-01
    0.35039162233583692752E-01
    0.35039170372302898271E-01
    0.35038906666337014950E-01
    0.35038810243989026993E-01
    0.35038605388160497245E-01
    0.35038575814780939521E-01
    0.35038739679194901011E-01
    0.35038736530019813642E-01
    0.35038920029078345075E-01
    0.35038943919993480181E-01
    0.35039988924319066810E-01
    0.35040209090402535397E-01
    0.35040748872155816351E-01
    0.35040867577332560079E-01
    0.35040394924463480475E-01
    0.35040410407905099588E-01
    0.35039922021713576505E-01
    0.35039743889968909263E-01
    0.35039367077569591458E-01
    0.35039309075394743653E-01
    0.35039604110961172778E-01
    0.35039584638177107001E-01
    0.35039940096831263816E-01
    0.35039987797665726743E-01
    0.35037859690461831130E-01
    0.35037844273675192164E-01
    0.35037864366723528442E-01
    0.35037850791961734631E-01
    0.35037818502161068024E-01
    0.35037798985510820726E-01
    0.35037776259000723289E-01
    0.35037785458908822511E-01
    0.35037772712344560089E-01
    0.35037784429486615312E-01
    0.35037809771837000183E-01
    0.35037834257606481625E-01
    0.35037816175020088105E-01
    0.35037808842599937886E-01
    0.35037895181169613490E-01
    0.35037887890872601582E-01
    0.35037923366976891915E-01
    0.35037912470797814846E-01
    0.35037868156514925810E-01
    0.35037849172270242593E-01
    0.35037814961613115983E-01
    0.35037818634896571168E-01
    0.35037795575961504235E-01
    0.35037803923670514383E-01
    0.35037836382715625838E-01
    0.35037857341723190052E-01
    0.35037853143651258303E-01
    0.35037847658085458091E-01
    0.35038029694492579813E-01
    0.35038003436902900867E-01
    0.35038038563131326808E-01
    0.35038015114213554024E-01
    0.35037958856291837040E-01
    0.35037924701771680502E-01
    0.35037885251850690860E-01
    0.35037901486046831023E-01
    0.35037879500611116002E-01
    0.35037899803300298629E-01
    0.35037943678880585641E-01
    0.35037985873884999743E-01
    0.35037954816531727276E-01
    0.35037942105764836864E-01
    0.35038092553071435720E-01
    0.35038079517462357437E-01
    0.35038141422932989055E-01
    0.35038121327794290172E-01
    0.35038043399394522281E-01
    0.35038008301162174019E-01
    0.35037949321465845787E-01
    0.35037957368913005829E-01
    0.35037917946997086671E-01
    0.35037933077475574839E-01
    0.35037989647463296805E-01
    0.35038026555335291534E-01
    0.35038018415446139930E-01
    0.35038008405682510849E-01
    0.35037983122488118581E-01
    0.35037982333655105782E-01
    0.35038038820590311495E-01
    0.35038029055269280521E-01
    0.35037965698181086638E-01
    0.35037944678120908071E-01
    0.35037892995272559848E-01
    0.35037891255152379955E-01
    0.35037853732307194798E-01
    0.35037860020345042156E-01
    0.35037905199803154321E-01
    0.35037926547529824051E-01
    0.35037935127658750845E-01
    0.35037930658407254181E-01
    0.35038137379548146833E-01
    0.35038144479665363218E-01
    0.35038232139038623381E-01
    0.35038224488119433520E-01
    0.35038131946926107108E-01
    0.35038108644539781023E-01
    0.35038028953739273896E-01
    0.35038018931376688214E-01
    0.35037959269931362449E-01
    0.35037963671646195352E-01
    0.35038028991431956205E-01
    0.35038053147151457245E-01
    0.35038078010523505956E-01
    0.35038074705326056890E-01
    0.35038244634932345922E-01
    0.35038239858911704450E-01
    0.35038337144531868372E-01
    0.35038315566303900039E-01
    0.35038203788035515718E-01
    0.35038161675603328449E-01
    0.35038073999581476059E-01
    0.35038075813114688550E-01
    0.35038012857260644739E-01
    0.35038026059695477621E-01
    0.35038105467463984133E-01
    0.35038145326034331184E-01
    0.35038155642122890965E-01
    0.35038146022274792302E-01
    0.35038500862585343631E-01
    0.35038502225123543954E-01
    0.35038647155507890441E-01
    0.35038622442934638790E-01
    0.35038462739980624772E-01
    0.35038410821620770419E-01
    0.35038280939747312726E-01
    0.35038274542399806821E-01
    0.35038178345935158675E-01
    0.35038191392067277730E-01
    0.35038305150433157742E-01
    0.35038354729644546892E-01
    0.35038383403167186469E-01
    0.35038373144773038437E-01
    0.35038318345708467649E-01
    0.35038275436750532243E-01
    0.35038336737759898099E-01
    0.35038298182119460844E-01
    0.35038201313617768629E-01
    0.35038143206579441813E-01
    0.35038074632422783194E-01
    0.35038101920902432751E-01
    0.35038063731202800932E-01
    0.35038098343682995417E-01
    0.35038173032721692257E-01
    0.35038244184537638282E-01
    0.35038192739099006945E-01
    0.35038171470420945153E-01
    0.35038434675921950601E-01
    0.35038415074565322505E-01
    0.35038526178510311093E-01
    0.35038492013556320204E-01
    0.35038353731682896075E-01
    0.35038291588156238177E-01
    0.35038187384936261837E-01
    0.35038201609387864544E-01
    0.35038132270416390279E-01
    0.35038158169276113763E-01
    0.35038256718109450638E-01
    0.35038319185614327789E-01
    0.35038308321696173819E-01
    0.35038291267185793509E-01
    0.35038794568171348354E-01
    0.35038728320052170417E-01
    0.35038834647650569931E-01
    0.35038775150189264973E-01
    0.35038611157839259780E-01
    0.35038516586223929228E-01
    0.35038397814142356601E-01
    0.35038441135084190392E-01
    0.35038375340695024351E-01
    0.35038432415461319425E-01
    0.35038556544421728400E-01
    0.35038672715395256796E-01
    0.35038591507509063427E-01
    0.35038557447898417696E-01
    0.35039015675961356078E-01
    0.35038993092637707449E-01
    0.35039194591775915666E-01
    0.35039142336239198494E-01
    0.35038897926371583014E-01
    0.35038793055421277312E-01
    0.35038606772111166587E-01
    0.35038627188493882969E-01
    0.35038502919916607314E-01
    0.35038544548661752775E-01
    0.35038714399319756398E-01
    0.35038814883570010283E-01
    0.35038809412650369357E-01
    0.35038782704712716221E-01
    0.35038713431129950293E-01
    0.35038704883590940375E-01
    0.35038879762151572961E-01
    0.35038838151849230340E-01
    0.35038636166951374340E-01
    0.35038555575567398304E-01
    0.35038400922499289558E-01
    0.35038408252193238568E-01
    0.35038297976162383063E-01
    0.35038322702642538120E-01
    0.35038464207523718763E-01
    0.35038535448028929054E-01
    0.35038552980929567326E-01
    0.35038534731441722814E-01
    0.35039170372336204962E-01
    0.35039162233612565489E-01
    0.35039417084415276638E-01
    0.35039358507867095216E-01
    0.35039069652906540409E-01
    0.35038959825272830706E-01
    0.35038736530039679695E-01
    0.35038739679216585055E-01
    0.35038575814803789299E-01
    0.35038605388184283773E-01
    0.35038810244016560524E-01
    0.35038906666366963216E-01