# vtk DataFile Version 3.0
LAPLACIEN  2D
ASCII
DATASET UNSTRUCTURED_GRID
 POINTS        7297  float
   1.5625000000000000E-002  0.96875000000000000        0.0000000000000000     
   3.1250000000000000E-002  0.96875000000000000        0.0000000000000000     
   3.1250000000000000E-002  0.98437500000000000        0.0000000000000000     
   9.3749999999999997E-003  0.97812500000000002        0.0000000000000000     
   2.0312500000000001E-002  0.97968750000000004        0.0000000000000000     
   2.1874999999999999E-002  0.99062499999999998        0.0000000000000000     
   1.0937499999999999E-002  0.98906249999999996        0.0000000000000000     
   4.6875000000000000E-002  0.96875000000000000        0.0000000000000000     
   6.2500000000000000E-002  0.96875000000000000        0.0000000000000000     
   6.2500000000000000E-002  0.98437500000000000        0.0000000000000000     
   4.0625000000000001E-002  0.97812500000000002        0.0000000000000000     
   5.1562499999999997E-002  0.97968750000000004        0.0000000000000000     
   5.3124999999999999E-002  0.99062499999999998        0.0000000000000000     
   4.2187500000000003E-002  0.98906249999999996        0.0000000000000000     
   1.5625000000000000E-002  0.93750000000000000        0.0000000000000000     
   3.1250000000000000E-002  0.93750000000000000        0.0000000000000000     
   3.1250000000000000E-002  0.95312500000000000        0.0000000000000000     
   9.3749999999999997E-003  0.94687500000000002        0.0000000000000000     
   2.0312500000000001E-002  0.94843750000000004        0.0000000000000000     
   2.1874999999999999E-002  0.95937499999999998        0.0000000000000000     
   1.0937499999999999E-002  0.95781249999999996        0.0000000000000000     
   4.6875000000000000E-002  0.93750000000000000        0.0000000000000000     
   6.2500000000000000E-002  0.93750000000000000        0.0000000000000000     
   6.2500000000000000E-002  0.95312500000000000        0.0000000000000000     
   4.0625000000000001E-002  0.94687500000000002        0.0000000000000000     
   5.1562499999999997E-002  0.94843750000000004        0.0000000000000000     
   5.3124999999999999E-002  0.95937499999999998        0.0000000000000000     
   4.2187500000000003E-002  0.95781249999999996        0.0000000000000000     
   7.8125000000000000E-002  0.96875000000000000        0.0000000000000000     
   9.3750000000000000E-002  0.96875000000000000        0.0000000000000000     
   9.3750000000000000E-002  0.98437500000000000        0.0000000000000000     
   7.1874999999999994E-002  0.97812500000000002        0.0000000000000000     
   8.2812499999999997E-002  0.97968750000000004        0.0000000000000000     
   8.4375000000000006E-002  0.99062499999999998        0.0000000000000000     
   7.3437500000000003E-002  0.98906249999999996        0.0000000000000000     
  0.10937500000000000       0.96875000000000000        0.0000000000000000     
  0.12500000000000000       0.96875000000000000        0.0000000000000000     
  0.12500000000000000       0.98437500000000000        0.0000000000000000     
  0.10312499999999999       0.97812500000000002        0.0000000000000000     
  0.11406250000000000       0.97968750000000004        0.0000000000000000     
  0.11562500000000001       0.99062499999999998        0.0000000000000000     
  0.10468750000000000       0.98906249999999996        0.0000000000000000     
   7.8125000000000000E-002  0.93750000000000000        0.0000000000000000     
   9.3750000000000000E-002  0.93750000000000000        0.0000000000000000     
   9.3750000000000000E-002  0.95312500000000000        0.0000000000000000     
   7.1874999999999994E-002  0.94687500000000002        0.0000000000000000     
   8.2812499999999997E-002  0.94843750000000004        0.0000000000000000     
   8.4375000000000006E-002  0.95937499999999998        0.0000000000000000     
   7.3437500000000003E-002  0.95781249999999996        0.0000000000000000     
  0.10937500000000000       0.93750000000000000        0.0000000000000000     
  0.12500000000000000       0.93750000000000000        0.0000000000000000     
  0.12500000000000000       0.95312500000000000        0.0000000000000000     
  0.10312499999999999       0.94687500000000002        0.0000000000000000     
  0.11406250000000000       0.94843750000000004        0.0000000000000000     
  0.11562500000000001       0.95937499999999998        0.0000000000000000     
  0.10468750000000000       0.95781249999999996        0.0000000000000000     
   1.5625000000000000E-002  0.90625000000000000        0.0000000000000000     
   3.1250000000000000E-002  0.90625000000000000        0.0000000000000000     
   3.1250000000000000E-002  0.92187500000000000        0.0000000000000000     
   9.3749999999999997E-003  0.91562500000000002        0.0000000000000000     
   2.0312500000000001E-002  0.91718750000000004        0.0000000000000000     
   2.1874999999999999E-002  0.92812499999999998        0.0000000000000000     
   1.0937499999999999E-002  0.92656249999999996        0.0000000000000000     
   4.6875000000000000E-002  0.90625000000000000        0.0000000000000000     
   6.2500000000000000E-002  0.90625000000000000        0.0000000000000000     
   6.2500000000000000E-002  0.92187500000000000        0.0000000000000000     
   4.0625000000000001E-002  0.91562500000000002        0.0000000000000000     
   5.1562499999999997E-002  0.91718750000000004        0.0000000000000000     
   5.3124999999999999E-002  0.92812499999999998        0.0000000000000000     
   4.2187500000000003E-002  0.92656249999999996        0.0000000000000000     
   1.5625000000000000E-002  0.87500000000000000        0.0000000000000000     
   3.1250000000000000E-002  0.87500000000000000        0.0000000000000000     
   3.1250000000000000E-002  0.89062500000000000        0.0000000000000000     
   9.3749999999999997E-003  0.88437500000000002        0.0000000000000000     
   2.0312500000000001E-002  0.88593750000000004        0.0000000000000000     
   2.1874999999999999E-002  0.89687499999999998        0.0000000000000000     
   1.0937499999999999E-002  0.89531249999999996        0.0000000000000000     
   4.6875000000000000E-002  0.87500000000000000        0.0000000000000000     
   6.2500000000000000E-002  0.87500000000000000        0.0000000000000000     
   6.2500000000000000E-002  0.89062500000000000        0.0000000000000000     
   4.0625000000000001E-002  0.88437500000000002        0.0000000000000000     
   5.1562499999999997E-002  0.88593750000000004        0.0000000000000000     
   5.3124999999999999E-002  0.89687499999999998        0.0000000000000000     
   4.2187500000000003E-002  0.89531249999999996        0.0000000000000000     
   7.8125000000000000E-002  0.90625000000000000        0.0000000000000000     
   9.3750000000000000E-002  0.90625000000000000        0.0000000000000000     
   9.3750000000000000E-002  0.92187500000000000        0.0000000000000000     
   7.1874999999999994E-002  0.91562500000000002        0.0000000000000000     
   8.2812499999999997E-002  0.91718750000000004        0.0000000000000000     
   8.4375000000000006E-002  0.92812499999999998        0.0000000000000000     
   7.3437500000000003E-002  0.92656249999999996        0.0000000000000000     
  0.10937500000000000       0.90625000000000000        0.0000000000000000     
  0.12500000000000000       0.90625000000000000        0.0000000000000000     
  0.12500000000000000       0.92187500000000000        0.0000000000000000     
  0.10312499999999999       0.91562500000000002        0.0000000000000000     
  0.11406250000000000       0.91718750000000004        0.0000000000000000     
  0.11562500000000001       0.92812499999999998        0.0000000000000000     
  0.10468750000000000       0.92656249999999996        0.0000000000000000     
   7.8125000000000000E-002  0.87500000000000000        0.0000000000000000     
   9.3750000000000000E-002  0.87500000000000000        0.0000000000000000     
   9.3750000000000000E-002  0.89062500000000000        0.0000000000000000     
   7.1874999999999994E-002  0.88437500000000002        0.0000000000000000     
   8.2812499999999997E-002  0.88593750000000004        0.0000000000000000     
   8.4375000000000006E-002  0.89687499999999998        0.0000000000000000     
   7.3437500000000003E-002  0.89531249999999996        0.0000000000000000     
  0.10937500000000000       0.87500000000000000        0.0000000000000000     
  0.12500000000000000       0.87500000000000000        0.0000000000000000     
  0.12500000000000000       0.89062500000000000        0.0000000000000000     
  0.10312499999999999       0.88437500000000002        0.0000000000000000     
  0.11406250000000000       0.88593750000000004        0.0000000000000000     
  0.11562500000000001       0.89687499999999998        0.0000000000000000     
  0.10468750000000000       0.89531249999999996        0.0000000000000000     
  0.14062500000000000       0.96875000000000000        0.0000000000000000     
  0.15625000000000000       0.96875000000000000        0.0000000000000000     
  0.15625000000000000       0.98437500000000000        0.0000000000000000     
  0.13437499999999999       0.97812500000000002        0.0000000000000000     
  0.14531250000000001       0.97968750000000004        0.0000000000000000     
  0.14687500000000001       0.99062499999999998        0.0000000000000000     
  0.13593749999999999       0.98906249999999996        0.0000000000000000     
  0.17187500000000000       0.96875000000000000        0.0000000000000000     
  0.18750000000000000       0.96875000000000000        0.0000000000000000     
  0.18750000000000000       0.98437500000000000        0.0000000000000000     
  0.16562499999999999       0.97812500000000002        0.0000000000000000     
  0.17656250000000001       0.97968750000000004        0.0000000000000000     
  0.17812500000000001       0.99062499999999998        0.0000000000000000     
[...]
 CELL_DATA       14336
 SCALARS Tumor_cells float
 LOOKUP_TABLE default
    0.26234944179941298013E-13
    0.50968326846510299659E-13
    0.12661390719781889721E-13
    0.21673546909533042749E-13
    0.60734447019095834062E-13
    0.43005536365547061765E-13
    0.46669012964422227310E-13
    0.52328829191336545443E-13
    0.47448683084141001833E-13
    0.42660749729406291151E-13
    0.42437749124219290329E-13
    0.38143644502203678872E-13
    0.34742520498774636592E-13
    0.37262514879683936986E-13
    0.37065097156575263767E-13
    0.47967571751831943130E-13
    0.62945279018588438046E-13
    0.45919048708390681940E-14
    0.49289318999675847765E-13
    0.67076128327167255218E-13
    0.15458634956112525799E-13
    0.42274843456702209410E-13
    0.39271042345047849549E-13
    0.42861743423549998676E-13
    0.27483517160089533605E-13
    0.61629718258563801640E-13
    0.51605639567915370188E-13
    0.65346361308386288042E-13
    0.44441308827151597360E-13
    0.48639178140247936998E-13
    0.20392938737145699136E-13
    0.62301191801943176047E-13
    0.38471874348994585056E-13
    0.30635035724188125759E-13
    0.15539032121745490436E-13
    0.30384461735237792246E-13
    0.26606735493327493146E-13
    0.46786981883869920565E-13
    0.45879877358629653194E-13
    0.41267708981726882374E-13
    0.45861455568079200565E-13
    0.56141337921569208461E-13
    0.41321935389649658524E-13
    0.37258728094461605419E-13
    0.54216147604787572444E-13
    0.45939169447985672749E-13
    0.57577445802630559245E-13
    0.39918937907311460029E-13
    0.33141038015095156922E-13
    0.44703247438282079141E-13
    0.36372542516141968765E-13
    0.28350918809018585065E-13
    0.48681432224952340857E-13
    0.35966010975619340882E-13
    0.33748380217687217110E-13
    0.28415284824502676488E-13
    0.32984620913517819272E-13
    0.24500487317423138871E-13
    0.64191607538699729902E-13
    0.26384746824209605568E-13
    0.47149220583018142070E-13
    0.52764564801411176672E-13
    0.96093655695196769893E-14
    0.44693428413620249604E-13
    0.60597056895619876622E-13
    0.32766191844863541772E-13
    0.10528184531068347024E-13
    0.36230774921027134704E-13
    0.42602618427227128591E-13
    0.32964126185213144071E-13
    0.40064982179375021079E-14
    0.47906381729032055970E-13
    0.51109777642028652089E-13
    0.55683868159846222687E-13
    0.67752237786406105373E-13
    0.51838337833626205187E-13
    0.37586381870167336774E-13
    0.24877504832106854966E-13
    0.36372994756220129724E-13
    0.46940649997312492532E-13
    0.24669464976119402912E-13
    0.25722175002476965967E-13
    0.45412809121312296743E-13
    0.46595807551534237218E-13
    0.35854715911733491584E-13
    0.48720779967004294044E-13
    0.76957208980893711764E-14
    0.39774989827823643106E-13
    0.36972050428187851651E-13
    0.12777627916180939470E-13
    0.46681808662420902691E-13
    0.52847484941636708207E-13
    0.18640370317246650961E-13
    0.22833396871015555468E-13
    0.24228604355348560659E-13
    0.64205016057824034172E-13
    0.39103057548171943104E-13
    0.20397135018863259389E-13
    0.52399207791010311648E-13
    0.47378655418457235637E-13
    0.48691481128953902916E-13
    0.39562749951311057840E-13
    0.41160740204162791307E-13
    0.44632055127037722201E-13
    0.36126417769353297584E-13
    0.44764609994846876460E-13
    0.60958097716968838134E-13
    0.30014592728762783266E-13
    0.32607283525994291484E-13
    0.47369788430830076945E-13
    0.48356715304017135169E-13
    0.25416176882384522330E-13
    0.52497266676333270576E-13
    0.40485167360436339859E-13
    0.75469089182684278258E-14
    0.52720080256882386705E-13
    0.46728826186044744480E-13
    0.26523187371657765019E-13
    0.40432285991552425855E-13
    0.46752209313902372822E-13
    0.50449569327910499144E-13
    0.46213456206206664951E-13
    0.54060339789928449531E-13
    0.13224514312455019556E-13
    0.28853356675029204163E-13
    0.39266781579462547441E-13
    0.23351462916692010870E-13
    0.38683563165331508170E-13
    0.28339696634041878731E-13
    0.22367521723624713233E-13
    0.96204404237217105723E-14
    0.32257572011670687211E-13
    0.67980501011013743804E-13
    0.26491857635447587204E-13
    0.36891701248391003881E-13
    0.38460762295413562097E-13
    0.38075371718116326929E-13
    0.52736560598959775144E-13
    0.39706539567261868719E-13
    0.40161272604250635617E-13
    0.51361919655857211614E-13
    0.52190174718243998512E-13
    0.65727228113809690198E-13
    0.56275993353876441756E-13
    0.41170567935720812912E-13
    0.70867193778187303961E-14
    0.22145703569269755663E-13
    0.42302268499946665570E-13
    0.31968424798430956875E-13
    0.36115777943847723983E-13
    0.29227744775786130108E-13
    0.30063906982858548328E-13
    0.44522044830362669615E-13
    0.23917224096824391720E-13
    0.27690257143124644271E-13
    0.46737541410621039344E-13
    0.30657724573518537260E-13
    0.35576955606338097197E-13
    0.71252554859769270846E-13
    0.43385661063370437045E-13
    0.43794142128903558404E-13
    0.52573479498665447908E-13
    0.38058053106692321462E-13
    0.74140683350283407914E-13
    0.48671134762144407965E-13
    0.40501400158665226587E-13
    0.33710302047449211904E-13
    0.50960437733530373272E-13
    0.26627106816067821329E-13
    0.51689901874336335763E-13
    0.51874715898863242472E-13
    0.37804360419656291290E-13
    0.50024152063009256426E-13
    0.29741197476609267806E-13
    0.41346859467229767422E-13
    0.32306636636827955318E-13
    0.38134931813368572804E-13
    0.44580787193545951558E-13
    0.39367876018946865341E-13
    0.12983437120327841060E-13
    0.43915906289516435358E-13
    0.45720869691212737386E-13
    0.79458256645517692053E-13
    0.31756554283210257324E-13
    0.13232632132342306538E-13
    0.44172332711989425905E-13
    0.36723993191436884117E-13
    0.36853449902014828996E-13
   -0.42844499723157954937E-14
    0.25874545753423449576E-13
    0.57040102397335552532E-13
    0.37828530401733519589E-13
    0.20002839072339778808E-13
    0.49395040999863987250E-13
    0.38710670578788242456E-13
    0.55088568932044530948E-13
    0.40726868155444614830E-13
    0.35033661504461971148E-13
    0.37276960492539914088E-13
    0.97552959413713468411E-14
    0.25711567099256262277E-13
    0.47303039382662963779E-13
    0.31897314132008052602E-13
    0.48194752630435601460E-13
    0.44155151767353111448E-13
    0.45849161050514627149E-13
    0.46232432538497860208E-13
    0.32767053245080872481E-13
    0.62664031016136567683E-13
    0.28451385980985433372E-13
    0.68311861166488564602E-13
    0.49006457340892688862E-13
    0.32066439477043847658E-13
    0.29827095517891939499E-13
    0.23187806248694759311E-13
    0.44664584554635143626E-13
    0.37841201807242782167E-13
    0.40724480026948627877E-13
    0.49877927704865361490E-13
    0.47763824213855889775E-13
    0.13486440971724654766E-13
    0.45790409092540908621E-13
    0.17149736943503913304E-13
    0.27962060528154562196E-13
    0.95409167061378047629E-13
    0.47772188599195139408E-13
    0.44694353797166842648E-13
    0.44092292251889543166E-13
    0.40318841943223275273E-13
    0.59768217302181883191E-14
    0.26425207696500804451E-13
    0.13729732121762428429E-13
    0.40152426665544000605E-13
    0.26674659809955041520E-13
    0.66957635019444010072E-13
    0.28310053978051662914E-13
    0.38891295389955319652E-13
    0.53727309858680586139E-13
    0.28351478813854542378E-13
    0.31856580910523287415E-13
    0.35377401077770765009E-13
    0.47609723026493140466E-13
    0.54479324400312256704E-13
    0.56206743535878647131E-13
    0.55850802050010156486E-13
    0.22127942326728883311E-13
    0.31628003759508697137E-13
    0.43994155618569331481E-13
    0.64360632423940782564E-13
    0.36211145722188281128E-13
    0.54431393867513041492E-13
    0.54643205269155142565E-13
    0.48887721099701246284E-13
    0.37833899853478332026E-13
    0.30643023203408530043E-13
    0.37864481904197270097E-13
    0.33625244629164145501E-13
    0.78756228314771399270E-14
    0.40807353482490422943E-13
    0.15567867629078226199E-13
    0.40291557549739319285E-13
    0.30133841824617934402E-13
    0.42151975112276837125E-13
    0.56209291812497818382E-13
    0.51982118725798922948E-13
    0.23389461005388574197E-13
    0.31939256784422302597E-13
    0.55821369513251265171E-13
    0.48352788032914937386E-13
    0.33215769280113981611E-13
    0.27144990230009546105E-13
    0.62251519721245678353E-13
    0.14207371487900989522E-13
    0.32117017503086639424E-13
    0.55387647909682032468E-13
    0.12067236343833240699E-13
    0.29440671874525669044E-13
    0.27998212127935458559E-13
    0.40458953573431509630E-13
    0.73300718231972347072E-13
    0.35157596881031914240E-13
    0.20299409880323399707E-13
    0.24507140241739058105E-13
    0.16809103439273692911E-13
    0.48700929435673773217E-13
    0.43230633714426169436E-13
    0.50128472981578514311E-13
    0.28163518309490543429E-13
    0.53387677679704399837E-13
    0.52849905975986330610E-13
    0.76553581944859226833E-13
    0.58110677267507796633E-13
    0.26004090678498496311E-13
    0.42265327963324431428E-13
    0.45659773263744114723E-13
    0.14724544975236360802E-13
    0.11288610553074848203E-13
    0.35319138997226716924E-13
    0.34027164128651501207E-13
    0.38323396117085526754E-13
    0.53353787545206227174E-13
    0.55789663865414017401E-13
    0.52092297384117565318E-13
    0.28229806419533227986E-13
    0.42980080819743151526E-13
    0.39790963621588242208E-13
    0.26325900768324886545E-13
    0.24212812970771349919E-13
    0.30192937594649146952E-13
    0.38721571877950437467E-13
    0.36866580463830896625E-13
    0.32739544303743502664E-13
    0.40682919906157549674E-13
    0.24591602363223261450E-13
    0.41840314347847940196E-13
    0.43903484450577695479E-13
    0.44334461026339008946E-13
    0.31510516404385635679E-13
    0.35708134610046719348E-13
    0.30351018263324355518E-13
    0.52390571058206685125E-13
    0.42415292917722519978E-13
    0.27086581152833026541E-13
    0.26231926055356738849E-13
    0.33091693666730235098E-13
    0.63462684197979258297E-13
    0.64686281692364581095E-13
    0.34496836864013960605E-13
    0.30395342097932380787E-13
    0.56096281303365666606E-14
    0.34284164309365884968E-13
    0.39671837030437523067E-13
    0.30831088076079865557E-13
    0.44678042052522293763E-13
    0.30086799238210197524E-13
    0.31375055149350745341E-13
    0.27262369557229944681E-13
    0.68545612766874143256E-13
    0.60608285561450487430E-13
    0.19708292227907254775E-13
    0.42588374553911130374E-13
    0.37625080029307939036E-13
    0.53470933425306494445E-13
    0.29243988740961787067E-13
    0.41958259758103707352E-13
    0.39333415067739478229E-13
    0.67022570179267737436E-13
    0.42627469014231724625E-13
    0.25915594116291946271E-13
    0.21302695875990190412E-13
    0.50118564600087524115E-13
    0.26228888057278824762E-13
    0.27668987036310904321E-13
    0.26359342773633607695E-13
    0.44988872905870132087E-13
    0.59526496246969377357E-13
    0.18891031238773052485E-13
    0.39215687601748705116E-13
    0.60561791270204735141E-13
    0.16713928335700791795E-13
    0.72403582848041564151E-13
    0.32137149192030735973E-13
    0.37292156557000221850E-13
    0.34261600320941060151E-13
    0.27825565029266067438E-13
    0.31798308482044433290E-13
    0.36467033720623729220E-13
    0.41586777114943877082E-13
    0.15550089053003918021E-13
    0.90502333250309877697E-14
    0.56190933868638933152E-13
    0.60865496041597405678E-13
    0.43118061520098858964E-13
    0.33560324243602755589E-13
    0.30524683499637494554E-13
    0.38340292242606883985E-13
    0.38532123614676388343E-13
    0.17678791685715887291E-13
    0.18684473292340840483E-13
    0.28903721312557148621E-13
    0.40181715233486419035E-13
    0.35929255412652167357E-13
    0.25912625402582766113E-13
    0.50063884481057791168E-13
    0.54213784171323533855E-13
    0.30522729503576546813E-13
    0.49739885154087386367E-13
    0.57359793204560847229E-13
    0.22168067538579999263E-13
    0.60514265104448067546E-14
    0.14973804011325743602E-13
    0.42968561470903221229E-13
    0.62779216738946950317E-13
    0.73895426633945103648E-13
    0.33384755699627914180E-13
    0.16495755404150973160E-13
    0.19152916192604783527E-13
    0.36275553597071903026E-13
    0.42875855650780848545E-13
    0.34288007502838473448E-13
    0.24608705183530586381E-13
    0.23783007452292998121E-13
    0.36565062367549772548E-13
    0.36638830848194300199E-13
    0.24953300547721918919E-13
    0.35154461680064237141E-13
    0.29442462010625619170E-13
    0.33449278080820783963E-13
    0.19689982507479173738E-13
    0.18147656325692250103E-14
    0.39217411310611818184E-13
    0.45141213216555647057E-13
    0.14225246828932114599E-13
    0.35861228898594452755E-13
    0.45489746431429428896E-13
    0.29883775107787868276E-13
    0.34858610858801818188E-13
    0.23993261699832121124E-13
    0.32498356149872672822E-13
    0.23596657694246693006E-13
    0.34119457026336431146E-13
    0.32515295934698079636E-13
    0.33938225993693627403E-13
    0.26860451606822873121E-13
    0.52273256208180236748E-13
    0.43526407640488066692E-13
    0.37292916902376023721E-13
    0.43968234110300939584E-13
    0.34534667682235819132E-13
    0.37223408652547744403E-13
    0.31130243937387058435E-13
    0.41837538638825395260E-13
    0.19343424149251800049E-13
    0.22580211332508105847E-13
    0.30075272780276668108E-13
    0.21866391649744677690E-13
    0.38125922786843219623E-13
    0.11429097860995711149E-13
    0.28303805740919202307E-13
    0.27616210895813771331E-13
    0.13887204116122688473E-13
    0.49375751189586721970E-13
    0.26652333980231412163E-13
    0.16048365662600747485E-13
    0.36745656828376324465E-13
    0.38219551520003438354E-13
    0.15986199608199880339E-13
    0.19024543155081266007E-13
    0.21379456229117518266E-13
    0.26264009622275258500E-13
    0.18749441325643686224E-13
    0.45275213197075478992E-13
    0.52389834363383950955E-13
    0.73849647496536104784E-13
    0.30674665650861494025E-13
    0.66407939407648709932E-13
    0.25504149911100613316E-13
    0.38063478963857847720E-13
    0.42746471147704882145E-13
    0.17463580158947745974E-13
   -0.14638915538059842017E-14
    0.28848875052959001883E-13
    0.27080509874603439969E-13
    0.17897893413356456028E-14
    0.54794123665961432867E-13
    0.46986006593025185202E-13
    0.28023314656812982748E-13
    0.40710005630048895003E-13
    0.59117193339901772891E-13
    0.42538461508055977246E-13
    0.23629929815872319439E-13
    0.35708887600425819192E-13
    0.53722100345448436021E-13
    0.58435443046180631956E-13
    0.69076896885261750491E-13
    0.38198589910760828486E-13
    0.35830849446587198930E-13
    0.56745282444767485733E-13
    0.25347773898392182147E-13
    0.35693892724677468875E-13
    0.30234473148172403570E-13
    0.21735683726894279790E-13
    0.30389721466302853529E-13
    0.42081470316132892783E-13
    0.44420242894456061118E-13
    0.46052839557042898091E-13
    0.15980883906908127863E-13
    0.36603539565234290957E-13
    0.66295268457735516835E-13
    0.39866750304653849758E-13
    0.18231046763912556905E-13
    0.39270927481275142949E-13
    0.31635398066165771572E-13
    0.48712830707391411957E-13
    0.65573727583724880815E-13
    0.32504097928392509090E-13
    0.40549574851786795826E-13
    0.43395570135134705889E-13
    0.15469078443769664516E-13
    0.56958685244856386576E-13
    0.12098584607783295552E-13
    0.35726215246331753621E-13
    0.61868070949530351025E-13
    0.18553474138222210207E-13
    0.28521128427326930567E-13
    0.44692076141253479634E-13
    0.22740630417755441074E-13
    0.25015406780685722613E-13
    0.75987503452864675460E-13
    0.46095342237934578842E-13
    0.35263163619856510360E-13
    0.44279832360857750836E-13
    0.43360545123950104814E-13
    0.44962034286375086183E-13
    0.39332535901492451368E-13
    0.46349509544576052090E-13
    0.23969329343965854873E-13
    0.22496453053369507326E-13
    0.11287716985304320535E-13
    0.72903644336366270711E-14
    0.24849366498328498371E-13
    0.39022293923482042459E-13
    0.36383579737285751588E-13
    0.22147056726458311540E-13
    0.33415432260244726658E-13
    0.15313945102767986285E-13
    0.45706493025167290145E-13
    0.35866791315822110355E-13
    0.55184169761633186592E-13
    0.44263762256459030613E-13
    0.46388188950355364009E-13
    0.39552607945253655827E-13
    0.12007477412928400473E-13
    0.63342614083802872099E-13
    0.27610842265981318507E-13
    0.32812307546026094799E-13
    0.20595275187745131561E-13
    0.41545421738943612113E-13
    0.46071088929648765162E-13
    0.40168906089900515650E-13
    0.20767110666915623881E-13
    0.35241725685973269006E-13
    0.13315287029519459077E-13
    0.21912458272975191084E-13
    0.47383152771974595683E-13
    0.44929225414821104312E-13
    0.25399911768570473078E-13
    0.33742590891136870582E-13
    0.17642373470651527844E-13
    0.26944814956798235262E-13
    0.22302484916690148859E-13
    0.25840180401226072147E-13
    0.18788574635872372763E-13
    0.19738923707996403154E-13
    0.44604551656120613891E-13
    0.65683577200525359659E-13
    0.41444118273813779358E-13
    0.29021720389729035844E-13
    0.45139880803163572061E-13
    0.14939231829098623912E-13
    0.37975432060709745942E-13
    0.37774148111214655509E-13
    0.39673657685252129294E-13
    0.32797156664794084871E-13
    0.47426331332184831360E-13
    0.21816950165918361512E-13
    0.51438195007691068453E-13
    0.63068872433318901116E-13
    0.42107525106687038799E-13
    0.43932968410339490167E-13
    0.35539529394301763023E-13
    0.53605606302903466110E-13
    0.53587351848476612372E-13
    0.46362250518763466299E-13
    0.21460862145683869259E-13
    0.29482145131697693088E-13
    0.61092556179503243612E-13
    0.53112797206610548744E-13
    0.42296544859435264639E-13
    0.42833645396749172640E-13
    0.43652605722413863822E-13
    0.22233961367726593041E-13
    0.42889920418426215499E-13
    0.47171395221466751722E-13
    0.27945707383009892418E-13
    0.33806236482608074244E-13
    0.37717327454987363970E-13
    0.49569032833454121588E-13
   -0.69302394099312638729E-14
    0.41563822578040025894E-13
    0.45004890401220601954E-13
    0.13124427824034147653E-13
    0.33744331216567864586E-13
    0.34778389334089242743E-13
    0.34608452926048762571E-13
    0.51075639526375066883E-13
    0.50754989274467462229E-13
    0.42602384306170595689E-13
    0.60053806302117270903E-13
    0.51305307354285476147E-13
    0.45923200248551295990E-13
    0.45249093565441116391E-13
    0.37022317694081074541E-13
    0.56994260077169789636E-13
    0.43246780673497259521E-13
    0.27588447096014823983E-13
    0.51239611452896100980E-13
    0.38670306919422543559E-13
    0.59533980797392672077E-13
    0.45389475811486258991E-13
    0.11266579260460219368E-13
    0.17896099009906313328E-13
    0.47672766532876741451E-13
    0.37940725075565373474E-13
    0.47214443913078019861E-13
    0.47028477511408010002E-13
    0.65493122326706125402E-13
    0.24985047557055552650E-13
    0.21827112934022705530E-13
    0.28280623042649719354E-13
    0.38604101323686676013E-13
    0.68899099250034985835E-13
    0.41710475767523747537E-13
    0.31962783354935974538E-13
    0.18512302829087460066E-13
    0.48018312006136903489E-13
    0.31603301802214930001E-13
    0.45266603165708972371E-13
    0.35113139656943795989E-13
    0.24232252508700160370E-13
    0.51626921351305732541E-13
    0.47489111429394374539E-13
    0.44559236534855102908E-13
    0.12637907673187985629E-13
    0.29008637645431812198E-13
    0.29210160997668081755E-13
    0.52060281035249821376E-13
    0.46778728000330210001E-13
    0.31547226126222909895E-13
    0.33863656209087177501E-13
    0.28622983454895619989E-13
    0.38734301924093220525E-13