# vtk DataFile Version 3.0
LAPLACIEN  2D
ASCII
DATASET UNSTRUCTURED_GRID
FIELD FieldData 1
TIME 1 1 double
4.7000
 POINTS        7297  float
   1.5625000000000000E-002  0.96875000000000000        0.0000000000000000     
   3.1250000000000000E-002  0.96875000000000000        0.0000000000000000     
   3.1250000000000000E-002  0.98437500000000000        0.0000000000000000     
   9.3749999999999997E-003  0.97812500000000002        0.0000000000000000     
   2.0312500000000001E-002  0.97968750000000004        0.0000000000000000     
   2.1874999999999999E-002  0.99062499999999998        0.0000000000000000     
   1.0937499999999999E-002  0.98906249999999996        0.0000000000000000     
   4.6875000000000000E-002  0.96875000000000000        0.0000000000000000     
   6.2500000000000000E-002  0.96875000000000000        0.0000000000000000     
   6.2500000000000000E-002  0.98437500000000000        0.0000000000000000     
   4.0625000000000001E-002  0.97812500000000002        0.0000000000000000     
   5.1562499999999997E-002  0.97968750000000004        0.0000000000000000     
   5.3124999999999999E-002  0.99062499999999998        0.0000000000000000     
   4.2187500000000003E-002  0.98906249999999996        0.0000000000000000     
   1.5625000000000000E-002  0.93750000000000000        0.0000000000000000     
   3.1250000000000000E-002  0.93750000000000000        0.0000000000000000     
   3.1250000000000000E-002  0.95312500000000000        0.0000000000000000     
   9.3749999999999997E-003  0.94687500000000002        0.0000000000000000     
   2.0312500000000001E-002  0.94843750000000004        0.0000000000000000     
   2.1874999999999999E-002  0.95937499999999998        0.0000000000000000     
   1.0937499999999999E-002  0.95781249999999996        0.0000000000000000     
   4.6875000000000000E-002  0.93750000000000000        0.0000000000000000     
   6.2500000000000000E-002  0.93750000000000000        0.0000000000000000     
   6.2500000000000000E-002  0.95312500000000000        0.0000000000000000     
   4.0625000000000001E-002  0.94687500000000002        0.0000000000000000     
   5.1562499999999997E-002  0.94843750000000004        0.0000000000000000     
   5.3124999999999999E-002  0.95937499999999998        0.0000000000000000     
   4.2187500000000003E-002  0.95781249999999996        0.0000000000000000     
   7.8125000000000000E-002  0.96875000000000000        0.0000000000000000     
   9.3750000000000000E-002  0.96875000000000000        0.0000000000000000     
   9.3750000000000000E-002  0.98437500000000000        0.0000000000000000     
   7.1874999999999994E-002  0.97812500000000002        0.0000000000000000     
   8.2812499999999997E-002  0.97968750000000004        0.0000000000000000     
   8.4375000000000006E-002  0.99062499999999998        0.0000000000000000     
   7.3437500000000003E-002  0.98906249999999996        0.0000000000000000     
  0.10937500000000000       0.96875000000000000        0.0000000000000000     
  0.12500000000000000       0.96875000000000000        0.0000000000000000     
  0.12500000000000000       0.98437500000000000        0.0000000000000000     
  0.10312499999999999       0.97812500000000002        0.0000000000000000     
  0.11406250000000000       0.97968750000000004        0.0000000000000000     
  0.11562500000000001       0.99062499999999998        0.0000000000000000     
  0.10468750000000000       0.98906249999999996        0.0000000000000000     
   7.8125000000000000E-002  0.93750000000000000        0.0000000000000000     
   9.3750000000000000E-002  0.93750000000000000        0.0000000000000000     
   9.3750000000000000E-002  0.95312500000000000        0.0000000000000000     
   7.1874999999999994E-002  0.94687500000000002        0.0000000000000000     
   8.2812499999999997E-002  0.94843750000000004        0.0000000000000000     
   8.4375000000000006E-002  0.95937499999999998        0.0000000000000000     
   7.3437500000000003E-002  0.95781249999999996        0.0000000000000000     
  0.10937500000000000       0.93750000000000000        0.0000000000000000     
  0.12500000000000000       0.93750000000000000        0.0000000000000000     
  0.12500000000000000       0.95312500000000000        0.0000000000000000     
  0.10312499999999999       0.94687500000000002        0.0000000000000000     
  0.11406250000000000       0.94843750000000004        0.0000000000000000     
  0.11562500000000001       0.95937499999999998        0.0000000000000000     
  0.10468750000000000       0.95781249999999996        0.0000000000000000     
   1.5625000000000000E-002  0.90625000000000000        0.0000000000000000     
   3.1250000000000000E-002  0.90625000000000000        0.0000000000000000     
   3.1250000000000000E-002  0.92187500000000000        0.0000000000000000     
   9.3749999999999997E-003  0.91562500000000002        0.0000000000000000     
   2.0312500000000001E-002  0.91718750000000004        0.0000000000000000     
   2.1874999999999999E-002  0.92812499999999998        0.0000000000000000     
   1.0937499999999999E-002  0.92656249999999996        0.0000000000000000     
   4.6875000000000000E-002  0.90625000000000000        0.0000000000000000     
   6.2500000000000000E-002  0.90625000000000000        0.0000000000000000     
   6.2500000000000000E-002  0.92187500000000000        0.0000000000000000     
   4.0625000000000001E-002  0.91562500000000002        0.0000000000000000     
   5.1562499999999997E-002  0.91718750000000004        0.0000000000000000     
   5.3124999999999999E-002  0.92812499999999998        0.0000000000000000     
   4.2187500000000003E-002  0.92656249999999996        0.0000000000000000     
   1.5625000000000000E-002  0.87500000000000000        0.0000000000000000     
   3.1250000000000000E-002  0.87500000000000000        0.0000000000000000     
   3.1250000000000000E-002  0.89062500000000000        0.0000000000000000     
   9.3749999999999997E-003  0.88437500000000002        0.0000000000000000     
   2.0312500000000001E-002  0.88593750000000004        0.0000000000000000     
   2.1874999999999999E-002  0.89687499999999998        0.0000000000000000     
   1.0937499999999999E-002  0.89531249999999996        0.0000000000000000     
   4.6875000000000000E-002  0.87500000000000000        0.0000000000000000     
   6.2500000000000000E-002  0.87500000000000000        0.0000000000000000     
   6.2500000000000000E-002  0.89062500000000000        0.0000000000000000     
   4.0625000000000001E-002  0.88437500000000002        0.0000000000000000     
   5.1562499999999997E-002  0.88593750000000004        0.0000000000000000     
   5.3124999999999999E-002  0.89687499999999998        0.0000000000000000     
   4.2187500000000003E-002  0.89531249999999996        0.0000000000000000     
   7.8125000000000000E-002  0.90625000000000000        0.0000000000000000     
   9.3750000000000000E-002  0.90625000000000000        0.0000000000000000     
   9.3750000000000000E-002  0.92187500000000000        0.0000000000000000     
   7.1874999999999994E-002  0.91562500000000002        0.0000000000000000     
   8.2812499999999997E-002  0.91718750000000004        0.0000000000000000     
   8.4375000000000006E-002  0.92812499999999998        0.0000000000000000     
   7.3437500000000003E-002  0.92656249999999996        0.0000000000000000     
  0.10937500000000000       0.90625000000000000        0.0000000000000000     
  0.12500000000000000       0.90625000000000000        0.0000000000000000     
  0.12500000000000000       0.92187500000000000        0.0000000000000000     
  0.10312499999999999       0.91562500000000002        0.0000000000000000     
  0.11406250000000000       0.91718750000000004        0.0000000000000000     
  0.11562500000000001       0.92812499999999998        0.0000000000000000     
  0.10468750000000000       0.92656249999999996        0.0000000000000000     
   7.8125000000000000E-002  0.87500000000000000        0.0000000000000000     
   9.3750000000000000E-002  0.87500000000000000        0.0000000000000000     
   9.3750000000000000E-002  0.89062500000000000        0.0000000000000000     
   7.1874999999999994E-002  0.88437500000000002        0.0000000000000000     
   8.2812499999999997E-002  0.88593750000000004        0.0000000000000000     
   8.4375000000000006E-002  0.89687499999999998        0.0000000000000000     
   7.3437500000000003E-002  0.89531249999999996        0.0000000000000000     
  0.10937500000000000       0.87500000000000000        0.0000000000000000     
  0.12500000000000000       0.87500000000000000        0.0000000000000000     
  0.12500000000000000       0.89062500000000000        0.0000000000000000     
  0.10312499999999999       0.88437500000000002        0.0000000000000000     
  0.11406250000000000       0.88593750000000004        0.0000000000000000     
  0.11562500000000001       0.89687499999999998        0.0000000000000000     
  0.10468750000000000       0.89531249999999996        0.0000000000000000     
  0.14062500000000000       0.96875000000000000        0.0000000000000000     
  0.15625000000000000       0.96875000000000000        0.0000000000000000     
  0.15625000000000000       0.98437500000000000        0.0000000000000000     
  0.13437499999999999       0.97812500000000002        0.0000000000000000     
  0.14531250000000001       0.97968750000000004        0.0000000000000000     
  0.14687500000000001       0.99062499999999998        0.0000000000000000     
  0.13593749999999999       0.98906249999999996        0.0000000000000000     
  0.17187500000000000       0.96875000000000000        0.0000000000000000     
  0.18750000000000000       0.96875000000000000        0.0000000000000000     
  0.18750000000000000       0.98437500000000000        0.0000000000000000     
  0.16562499999999999       0.97812500000000002        0.0000000000000000     
  0.17656250000000001       0.97968750000000004        0.0000000000000000     
[...]
 CELL_DATA       14336
 SCALARS Tumor_cells float
 LOOKUP_TABLE default
    0.16379339057761652804E-01
    0.16379334280024245712E-01
    0.16379363350090152263E-01
    0.16379363350086238726E-01
    0.16379334280018677250E-01
    0.16379339057748260738E-01
    0.16379314918195941875E-01
    0.16379300349969285605E-01
    0.16379284697551274586E-01
    0.16379284697550445388E-01
    0.16379300349973608536E-01
    0.16379314918204459367E-01
    0.16379312239648256139E-01
    0.16379312239646628968E-01
    0.16379429789387660310E-01
    0.16379453820061142671E-01
    0.16379513871544508496E-01
    0.16379531489116503501E-01
    0.16379489069192922773E-01
    0.16379512737673549566E-01
    0.16379464929864306910E-01
    0.16379421689401669343E-01
    0.16379375117787989269E-01
    0.16379357127920865511E-01
    0.16379386150983478443E-01
    0.16379381456389958960E-01
    0.16379427446843567578E-01
    0.16379437842286667659E-01
    0.16379512737731347083E-01
    0.16379489069238410692E-01
    0.16379531489163417363E-01
    0.16379513871579147455E-01
    0.16379453820085994320E-01
    0.16379429789397693951E-01
    0.16379381456398538902E-01
    0.16379386151001894267E-01
    0.16379357127938878880E-01
    0.16379375117811758450E-01
    0.16379421689436395038E-01
    0.16379464929911640575E-01
    0.16379437842320310886E-01
    0.16379427446871725610E-01
    0.16379604651080060390E-01
    0.16379610032663232538E-01
    0.16379684019733230932E-01
    0.16379684019724827931E-01
    0.16379610032648341672E-01
    0.16379604651045556740E-01
    0.16379532184379409776E-01
    0.16379508218871886849E-01
    0.16379447966059286490E-01
    0.16379447966064622499E-01
    0.16379508218884498288E-01
    0.16379532184409469064E-01
    0.16379554114825448791E-01
    0.16379554114821403416E-01
    0.16379639450382121879E-01
    0.16379691307305887377E-01
    0.16379781467467081912E-01
    0.16379815943446288801E-01
    0.16379760511434266618E-01
    0.16379802293113854966E-01
    0.16379731675083733511E-01
    0.16379660659697051206E-01
    0.16379583997869710116E-01
    0.16379548477041500770E-01
    0.16379590623871138205E-01
    0.16379567296333590737E-01
    0.16379660563351241404E-01
    0.16379681014678782597E-01
    0.16379963861298262734E-01
    0.16380042015069453537E-01
    0.16380160791999366643E-01
    0.16380210892133442724E-01
    0.16380142898051883171E-01
    0.16380201419386949263E-01
    0.16380109331549614488E-01
    0.16380012263455787785E-01
    0.16379907133942755298E-01
    0.16379854935847679848E-01
    0.16379909739454745488E-01
    0.16379868749379196402E-01
    0.16380006885668645100E-01
    0.16380036765795680936E-01
    0.16379817180246787622E-01
    0.16379850361634688827E-01
    0.16379955026731816276E-01
    0.16379971673762584033E-01
    0.16379883842671576211E-01
    0.16379896045754866601E-01
    0.16379800122994499917E-01
    0.16379748643631040356E-01
    0.16379657924381084422E-01
    0.16379640599871694850E-01
    0.16379714623657521538E-01
    0.16379720244349305069E-01
    0.16379789454597521586E-01
    0.16379799369772136963E-01
    0.16380146038865686653E-01
    0.16380205522242074351E-01
    0.16380340014541854010E-01
    0.16380372129901798334E-01
    0.16380270287520468098E-01
    0.16380298591549311005E-01
    0.16380180038476684773E-01
    0.16380102699495201896E-01
    0.16379982778885034123E-01
    0.16379949054017711729E-01
    0.16380036657666678657E-01
    0.16380025122994180259E-01
    0.16380139258014098091E-01
    0.16380158471687347732E-01
    0.16379802293246502332E-01
    0.16379760511549875529E-01
    0.16379815943566647385E-01
    0.16379781467570651843E-01
    0.16379691307391752719E-01
    0.16379639450445949295E-01
    0.16379567296389632713E-01
    0.16379590623942227173E-01
    0.16379548477108513138E-01
    0.16379583997947404911E-01
    0.16379660659793272848E-01
    0.16379731675199970392E-01
    0.16379681014775035464E-01
    0.16379660563439424337E-01
    0.16379896045864261733E-01
    0.16379883842756570722E-01
    0.16379971673844442165E-01
    0.16379955026792330369E-01
    0.16379850361680846349E-01
    0.16379817180266022236E-01
    0.16379720244366811899E-01
    0.16379714623697479159E-01
    0.16379640599915468863E-01
    0.16379657924440224614E-01
    0.16379748643705203254E-01
    0.16379800123093493647E-01
    0.16379799369838840550E-01
    0.16379789454653483766E-01
    0.16380201419624446785E-01
    0.16380142898267589097E-01
    0.16380210892357176949E-01
    0.16380160792201895609E-01
    0.16380042015246534109E-01
    0.16379963861446106277E-01
    0.16379868749513193382E-01
    0.16379909739608657093E-01
    0.16379854935994100917E-01
    0.16379907134104441935E-01
    0.16380012263643727727E-01
    0.16380109331764789588E-01
    0.16380036765984717223E-01
    0.16380006885847005899E-01
    0.16380298591763563232E-01
    0.16380270287705563093E-01
    0.16380372130087042515E-01
    0.16380340014701327139E-01
    0.16380205522379467920E-01
    0.16380146038968944333E-01
    0.16380025123089666378E-01
    0.16380036657789476262E-01
    0.16379949054140932607E-01
    0.16379982779028193912E-01
    0.16380102699661114318E-01
    0.16380180038674627130E-01
    0.16380158471846838208E-01
    0.16380139258160265892E-01
    0.16380113333067977677E-01
    0.16380129246870375054E-01
    0.16380248881996083837E-01
    0.16380248881983142800E-01
    0.16380129246846439339E-01
    0.16380113333012310400E-01
    0.16379991995727403303E-01
    0.16379958842354699899E-01
    0.16379853702020250733E-01
    0.16379853702030232332E-01
    0.16379958842376324962E-01
    0.16379991995778810099E-01
    0.16380039112801798168E-01
    0.16380039112795102135E-01
    0.16380450661586366812E-01
    0.16380493316022901734E-01
    0.16380644791726083759E-01
    0.16380660332270542690E-01
    0.16380524572330031063E-01
    0.16380524218815934595E-01
    0.16380378297845981511E-01
    0.16380319157699968491E-01
    0.16380183538121817488E-01
    0.16380167277021951550E-01
    0.16380287318973257848E-01
    0.16380303635437302306E-01
    0.16380396469416261263E-01
    0.16380405737150584289E-01
    0.16380524218976472844E-01
    0.16380524572454081139E-01
    0.16380660332386883654E-01
    0.16380644791812119104E-01
    0.16380493316090222883E-01
    0.16380450661614712193E-01
    0.16380303635463878270E-01
    0.16380287319034458893E-01
    0.16380167277091434164E-01
    0.16380183538215811745E-01
    0.16380319157813360426E-01
    0.16380378297996347342E-01
    0.16380405737250098436E-01
    0.16380396469499770851E-01
    0.16380876095653213592E-01
    0.16380903625294929160E-01
    0.16381074167539338982E-01
    0.16381074167521950113E-01
    0.16380903625262129009E-01
    0.16380876095576674123E-01
    0.16380701742700922580E-01
    0.16380658836904440911E-01
    0.16380506283923301075E-01
    0.16380506283937827650E-01
    0.16380658836935006739E-01
    0.16380701742773312590E-01
    0.16380776004294453352E-01
    0.16380776004285144826E-01
    0.16380396829175466328E-01
    0.16380499364883466945E-01
    0.16380645540502024315E-01
    0.16380710024586700446E-01
    0.16380629526969704701E-01
    0.16380703520665233081E-01
    0.16380591083776901984E-01
    0.16380469575433320717E-01
    0.16380337675161123212E-01
    0.16380269915699408045E-01
    0.16380336852952485233E-01
    0.16380279684403243473E-01
    0.16380459586238505648E-01
    0.16380498199408170812E-01
    0.16380933409572515091E-01
    0.16381058917713259976E-01
    0.16381232661864277705E-01
    0.16381310556073939988E-01
    0.16381216480449527911E-01
    0.16381304886637304552E-01
    0.16381172244265940208E-01
    0.16381027260873020496E-01
    0.16380869490279340722E-01
    0.16380787047767384618E-01
    0.16380866105292383322E-01
    0.16380794135645245641E-01
    0.16381013590875632968E-01
    0.16381060401996046932E-01
    0.16380587150322856865E-01
    0.16380671316398608128E-01
    0.16380835598107292700E-01
    0.16380881921364758708E-01
    0.16380764763740927187E-01
    0.16380807256077142831E-01
    0.16380665956043895942E-01
    0.16380564651552975003E-01
    0.16380416582516574980E-01
    0.16380367771338780886E-01
    0.16380469226702554231E-01
    0.16380442153560725166E-01
    0.16380598601741101078E-01
    0.16380626342750864710E-01
    0.16381139251270229740E-01
    0.16381247086515629552E-01
    0.16381443433687772199E-01
    0.16381502861603912391E-01
    0.16381366820680347968E-01
    0.16381421362904748096E-01
    0.16381255331951779380E-01
    0.16381131338638835887E-01
    0.16380954779226540585E-01
    0.16380892133853876963E-01
    0.16381009024281842357E-01
    0.16380968381095595277E-01
    0.16381165381429869943E-01
    0.16381200927270484630E-01
    0.16381573380411369040E-01
    0.16381721397765617448E-01
    0.16381925220847876751E-01
    0.16382015849895476683E-01
    0.16381905290789956775E-01
    0.16382007467465441869E-01
    0.16381853209429093898E-01
    0.16381684414379985709E-01
    0.16381500207580525913E-01
    0.16381403319656380468E-01
    0.16381495589006006552E-01
    0.16381410053668062077E-01
    0.16381668430012936988E-01
    0.16381723160795603339E-01
    0.16382325109145421532E-01
    0.16382496230300806067E-01
    0.16382736828938811863E-01
    0.16382839576125966113E-01
    0.16382706189730214530E-01
    0.16382821672104665861E-01
    0.16382642152249941164E-01
    0.16382447358036452550E-01
    0.16382233648048419999E-01
    0.16382121715775965765E-01
    0.16382230144656614174E-01
    0.16382132155664114181E-01
    0.16382431356382672755E-01
    0.16382494069159071748E-01
    0.16381809388787998971E-01
    0.16381941190487189081E-01
    0.16382176832701825925E-01
    0.16382248522622284287E-01
    0.16382085260678747041E-01
    0.16382148881176842453E-01
    0.16381952326262456260E-01
    0.16381806068705418583E-01
    0.16381597839016343726E-01
    0.16381522409096845733E-01
    0.16381658904331838911E-01
    0.16381606959559098791E-01
    0.16381845143609165272E-01
    0.16381887909356258187E-01
    0.16382620865808862620E-01
    0.16382778711685346690E-01
    0.16383069349039346141E-01
    0.16383151838153236363E-01
    0.16382944568299119548E-01
    0.16383012003578032584E-01
    0.16382772652415066722E-01
    0.16382603623187129427E-01
    0.16382355655630041064E-01
    0.16382268334486190658E-01
    0.16382433742451546488E-01
    0.16382373925241024842E-01
    0.16382657276260266521E-01
    0.16382706565726094794E-01
    0.16380906677782244157E-01
    0.16380974965351714767E-01
    0.16381159740681647263E-01
    0.16381189819652079709E-01
    0.16381035188614053583E-01
    0.16381048423088562932E-01
    0.16380876271600057492E-01
    0.16380792595379493892E-01
    0.16380626397466790944E-01
    0.16380595121123980168E-01
    0.16380731400276959953E-01
    0.16380732675064121201E-01
    0.16380869387146817368E-01
    0.16380887215874245788E-01
    0.16381485656944496515E-01
    0.16381579946541786202E-01
    0.16381803691242449034E-01
    0.16381848105121138426E-01
    0.16381667898742451051E-01
    0.16381692377441390424E-01
    0.16381488701178257422E-01
    0.16381381131460922423E-01
    0.16381181727371258577E-01
    0.16381136547729175518E-01
    0.16381292480393949001E-01
    0.16381280555573543567E-01
    0.16381461549736759525E-01
    0.16381487480744409690E-01
    0.16381355668561681932E-01
    0.16381410129811407178E-01
    0.16381618796688819650E-01
    0.16381633966713996658E-01
    0.16381439998742104019E-01
    0.16381425821171281820E-01
    0.16381220527855011593E-01
    0.16381151862507801337E-01
    0.16380965147810365445E-01
    0.16380949916147073686E-01
    0.16381121901039442934E-01
    0.16381150181820965106E-01
    0.16381270911583829114E-01
    0.16381279695680671382E-01
    0.16381974214164950199E-01
    0.16382058194774451465E-01
    0.16382314570417017691E-01
    0.16382346535082425304E-01
    0.16382119319844262728E-01
    0.16382117220577533528E-01
    0.16381871467804266784E-01
    0.16381775671698781127E-01
    0.16381549126918491799E-01
    0.16381519177663637910E-01
    0.16381715980784489900E-01
    0.16381731017849045229E-01
    0.16381901680862745452E-01
    0.16381919413515459716E-01
    0.16382207297605699825E-01
    0.16382330905694218043E-01
    0.16382607884362868078E-01
    0.16382667358320480988E-01
    0.16382446685738918934E-01
    0.16382478957563333111E-01
    0.16382231138284769623E-01
    0.16382098570236168500E-01
    0.16381858106118238338E-01
    0.16381799778694326741E-01
    0.16381983425862927523E-01
    0.16381960491188375661E-01
    0.16382190619503383955E-01
    0.16382224517668703828E-01
    0.16383121450713449690E-01
    0.16383282262731616724E-01
    0.16383643010893674669E-01
    0.16383718759319512021E-01
    0.16383426759842553005E-01
    0.16383459631102593318E-01
    0.16383141713096505826E-01
    0.16382981103081912383E-01
    0.16382681977926201455E-01
    0.16382611060038840267E-01
    0.16382839910583910092E-01
    0.16382809388011093654E-01
    0.16383101278873220263E-01
    0.16383143206490875798E-01
    0.16382768056751217250E-01
    0.16382890445568065729E-01
    0.16383218235898815845E-01
    0.16383271737675949437E-01
    0.16382988977624874521E-01
    0.16382997370571108359E-01
    0.16382689317436308768E-01
    0.16382561287720129317E-01
    0.16382280144717421139E-01
    0.16382234700181175918E-01
    0.16382468701484423357E-01
    0.16382470827029843585E-01
    0.16382704421948526136E-01
    0.16382732465659924359E-01
    0.16383825601503063801E-01
    0.16384005665556623799E-01
    0.16384456098014955894E-01
    0.16384540081080790908E-01
    0.16384153821659516725E-01
    0.16384168120785028849E-01
    0.16383752167621296741E-01
    0.16383580914428933634E-01
    0.16383213014485781267E-01
    0.16383149716454867284E-01
    0.16383448209932156836E-01
    0.16383437683674135360E-01
    0.16383763173234460603E-01
    0.16383804374626914635E-01
    0.16380703521036529824E-01
    0.16380629527314640587E-01
    0.16380710024942842645E-01
    0.16380645540832669549E-01
    0.16380499365181211413E-01
    0.16380396829436968953E-01
    0.16380279684645032701E-01
    0.16380336853218907534E-01
    0.16380269915955092408E-01
    0.16380337675436461992E-01
    0.16380469575742420685E-01
    0.16380591084120182943E-01
    0.16380498199719376734E-01
    0.16380459586536513794E-01
    0.16380807256425225504E-01
    0.16380764764055276428E-01
    0.16380881921682428209E-01
    0.16380835598394916791E-01
    0.16380671316656676001E-01
    0.16380587150539777097E-01
    0.16380442153764007002E-01
    0.16380469226937862531E-01
    0.16380367771571265056E-01
    0.16380416582773407730E-01
    0.16380564651840057860E-01
    0.16380665956369978853E-01
    0.16380626343032556047E-01
    0.16380598602006919695E-01
    0.16381304887170204665E-01
    0.16381216480951678316E-01
    0.16381310556590329003E-01
    0.16381232662351086216E-01
    0.16381058918160027599E-01
    0.16380933409976327492E-01
    0.16380794136023685975E-01
    0.16380866105700001706E-01
    0.16380787048161132152E-01
    0.16380869490696975399E-01
    0.16381027261331618933E-01
    0.16381172244765380974E-01
    0.16381060402457729708E-01
    0.16381013591321685885E-01
    0.16381421363414465364E-01
    0.16381366821151977647E-01
    0.16381502862081925853E-01
    0.16381443434131653242E-01
    0.16381247086922783029E-01
    0.16381139251629494441E-01
    0.16380968381435566383E-01
    0.16381009024658367557E-01
    0.16380892134224452061E-01
    0.16380954779625665763E-01
    0.16381131339075438030E-01
    0.16381255332434032507E-01
    0.16381200927702690984E-01
    0.16381165381843778434E-01
    0.16381048423382980200E-01
    0.16381035188867396069E-01
    0.16381189819900911914E-01
    0.16381159740895885613E-01
    0.16380974965539748384E-01
    0.16380906677924297193E-01
    0.16380732675198524106E-01
    0.16380731400450699448E-01
    0.16380595121302753830E-01
    0.16380626397674465100E-01
    0.16380792595614077078E-01
    0.16380876271878570816E-01
    0.16380887216095981612E-01
    0.16380869387350012467E-01
    0.16381425821381759289E-01
    0.16381439998904252092E-01
    0.16381633966863921870E-01
    0.16381618796799682358E-01
    0.16381410129899350719E-01
    0.16381355668598863995E-01
    0.16381150181856405507E-01
    0.16381121901121439843E-01
    0.16380949916241855507E-01
    0.16380965147938599674E-01
    0.16381151862659600049E-01
    0.16381220528055608077E-01
    0.16381279695812246688E-01
    0.16381270911694244263E-01
    0.16381692377897560248E-01
    0.16381667899153174589E-01
    0.16381848105530442961E-01
    0.16381803691613051888E-01
    0.16381579946879002568E-01
    0.16381485657228973818E-01
    0.16381280555844705132E-01
    0.16381292480708974785E-01
    0.16381136548046088680E-01
    0.16381181727721287611E-01
    0.16381381131845101223E-01
    0.16381488701613051984E-01
    0.16381487481116736860E-01
    0.16381461550088127765E-01
    0.16382117220949919678E-01
    0.16382119320163941040E-01
    0.16382346535392961623E-01
    0.16382314570684387151E-01
    0.16382058195011674900E-01
    0.16381974214344653673E-01
    0.16381731018021313678E-01
    0.16381715981007856364E-01
    0.16381519177896628620E-01
    0.16381549127189171111E-01
    0.16381775672000289945E-01
    0.16381871468161269406E-01
    0.16381919413797747798E-01
    0.16381901681121448233E-01
    0.16382007468186281923E-01
    0.16381905291475925418E-01
    0.16382015850598539292E-01
    0.16381925221517511237E-01
    0.16381721398388435218E-01
    0.16381573380984861682E-01
    0.16381410054210794602E-01
    0.16381495589582243527E-01
    0.16381403320215776748E-01
    0.16381500208167826954E-01
    0.16381684415015081852E-01
    0.16381853210111350233E-01
    0.16381723161434713631E-01
    0.16381668430634127587E-01
    0.16382148881874579460E-01
    0.16382085261334302512E-01
    0.16382248523287144815E-01
    0.16382176833328720295E-01
    0.16381941191070531483E-01
    0.16381809389317089631E-01
    0.16381606960063476580E-01
    0.16381658904877062499E-01
    0.16381522409633114679E-01
    0.16381597839585163023E-01
    0.16381806069318570473E-01
    0.16381952326927542302E-01
    0.16381887909965978795E-01
    0.16381845144198301650E-01
    0.16382821673038172605E-01
    0.16382706190625026532E-01
    0.16382839577040633761E-01
    0.16382736829816418878E-01
    0.16382496231125212582E-01
    0.16382325109914521594E-01
    0.16382132156397360978E-01
    0.16382230145427403856E-01
    0.16382121716527128785E-01
    0.16382233648831276418E-01
    0.16382447358873519078E-01
    0.16382642153140076352E-01
    0.16382494070001019787E-01
    0.16382431357204550043E-01
    0.16383012004488630570E-01
    0.16382944569163775117E-01
    0.16383151839030059282E-01
    0.16383069349874601617E-01
    0.16382778712470576210E-01
    0.16382620866533820908E-01
    0.16382373925936100784E-01
    0.16382433743191499725E-01
    0.16382268335214320021E-01
    0.16382355656394499005E-01
    0.16382603624002387011E-01
    0.16382772653288166925E-01
    0.16382706566538882131E-01
    0.16382657277050318573E-01
    0.16382478958207789821E-01
    0.16382446686333828473E-01
    0.16382667358916948308E-01
    0.16382607884916786101E-01
    0.16382330906207859256E-01
    0.16382207298060207784E-01
    0.16381960491624086157E-01
    0.16381983426346807819E-01
    0.16381799779177062121E-01
    0.16381858106638117617E-01
    0.16382098570797094805E-01
    0.16382231138902619144E-01
    0.16382224518218763826E-01
    0.16382190620030184780E-01
    0.16382997371132138748E-01
    0.16382988978129064961E-01
    0.16383271738174047527E-01
    0.16383218236349833541E-01
    0.16382890445981988098E-01
    0.16382768057101163017E-01
    0.16382470827366834437E-01
    0.16382468701876849032E-01
    0.16382234700580179665E-01
    0.16382280145158141516E-01
    0.16382561288198638910E-01
    0.16382689317976678600E-01