# vtk DataFile Version 3.0
LAPLACIEN  2D
ASCII
DATASET UNSTRUCTURED_GRID
 POINTS        7297  float
   1.5625000000000000E-002  0.96875000000000000        0.0000000000000000     
   3.1250000000000000E-002  0.96875000000000000        0.0000000000000000     
   3.1250000000000000E-002  0.98437500000000000        0.0000000000000000     
   9.3749999999999997E-003  0.97812500000000002        0.0000000000000000     
   2.0312500000000001E-002  0.97968750000000004        0.0000000000000000     
   2.1874999999999999E-002  0.99062499999999998        0.0000000000000000     
   1.0937499999999999E-002  0.98906249999999996        0.0000000000000000     
   4.6875000000000000E-002  0.96875000000000000        0.0000000000000000     
   6.2500000000000000E-002  0.96875000000000000        0.0000000000000000     
   6.2500000000000000E-002  0.98437500000000000        0.0000000000000000     
   4.0625000000000001E-002  0.97812500000000002        0.0000000000000000     
   5.1562499999999997E-002  0.97968750000000004        0.0000000000000000     
   5.3124999999999999E-002  0.99062499999999998        0.0000000000000000     
   4.2187500000000003E-002  0.98906249999999996        0.0000000000000000     
   1.5625000000000000E-002  0.93750000000000000        0.0000000000000000     
   3.1250000000000000E-002  0.93750000000000000        0.0000000000000000     
   3.1250000000000000E-002  0.95312500000000000        0.0000000000000000     
   9.3749999999999997E-003  0.94687500000000002        0.0000000000000000     
   2.0312500000000001E-002  0.94843750000000004        0.0000000000000000     
   2.1874999999999999E-002  0.95937499999999998        0.0000000000000000     
   1.0937499999999999E-002  0.95781249999999996        0.0000000000000000     
   4.6875000000000000E-002  0.93750000000000000        0.0000000000000000     
   6.2500000000000000E-002  0.93750000000000000        0.0000000000000000     
   6.2500000000000000E-002  0.95312500000000000        0.0000000000000000     
   4.0625000000000001E-002  0.94687500000000002        0.0000000000000000     
   5.1562499999999997E-002  0.94843750000000004        0.0000000000000000     
   5.3124999999999999E-002  0.95937499999999998        0.0000000000000000     
   4.2187500000000003E-002  0.95781249999999996        0.0000000000000000     
   7.8125000000000000E-002  0.96875000000000000        0.0000000000000000     
   9.3750000000000000E-002  0.96875000000000000        0.0000000000000000     
   9.3750000000000000E-002  0.98437500000000000        0.0000000000000000     
   7.1874999999999994E-002  0.97812500000000002        0.0000000000000000     
   8.2812499999999997E-002  0.97968750000000004        0.0000000000000000     
   8.4375000000000006E-002  0.99062499999999998        0.0000000000000000     
   7.3437500000000003E-002  0.98906249999999996        0.0000000000000000     
  0.10937500000000000       0.96875000000000000        0.0000000000000000     
  0.12500000000000000       0.96875000000000000        0.0000000000000000     
  0.12500000000000000       0.98437500000000000        0.0000000000000000     
  0.10312499999999999       0.97812500000000002        0.0000000000000000     
  0.11406250000000000       0.97968750000000004        0.0000000000000000     
  0.11562500000000001       0.99062499999999998        0.0000000000000000     
  0.10468750000000000       0.98906249999999996        0.0000000000000000     
   7.8125000000000000E-002  0.93750000000000000        0.0000000000000000     
   9.3750000000000000E-002  0.93750000000000000        0.0000000000000000     
   9.3750000000000000E-002  0.95312500000000000        0.0000000000000000     
   7.1874999999999994E-002  0.94687500000000002        0.0000000000000000     
   8.2812499999999997E-002  0.94843750000000004        0.0000000000000000     
   8.4375000000000006E-002  0.95937499999999998        0.0000000000000000     
   7.3437500000000003E-002  0.95781249999999996        0.0000000000000000     
  0.10937500000000000       0.93750000000000000        0.0000000000000000     
  0.12500000000000000       0.93750000000000000        0.0000000000000000     
  0.12500000000000000       0.95312500000000000        0.0000000000000000     
  0.10312499999999999       0.94687500000000002        0.0000000000000000     
  0.11406250000000000       0.94843750000000004        0.0000000000000000     
  0.11562500000000001       0.95937499999999998        0.0000000000000000     
  0.10468750000000000       0.95781249999999996        0.0000000000000000     
   1.5625000000000000E-002  0.90625000000000000        0.0000000000000000     
   3.1250000000000000E-002  0.90625000000000000        0.0000000000000000     
   3.1250000000000000E-002  0.92187500000000000        0.0000000000000000     
   9.3749999999999997E-003  0.91562500000000002        0.0000000000000000     
   2.0312500000000001E-002  0.91718750000000004        0.0000000000000000     
   2.1874999999999999E-002  0.92812499999999998        0.0000000000000000     
   1.0937499999999999E-002  0.92656249999999996        0.0000000000000000     
   4.6875000000000000E-002  0.90625000000000000        0.0000000000000000     
   6.2500000000000000E-002  0.90625000000000000        0.0000000000000000     
   6.2500000000000000E-002  0.92187500000000000        0.0000000000000000     
   4.0625000000000001E-002  0.91562500000000002        0.0000000000000000     
   5.1562499999999997E-002  0.91718750000000004        0.0000000000000000     
   5.3124999999999999E-002  0.92812499999999998        0.0000000000000000     
   4.2187500000000003E-002  0.92656249999999996        0.0000000000000000     
   1.5625000000000000E-002  0.87500000000000000        0.0000000000000000     
   3.1250000000000000E-002  0.87500000000000000        0.0000000000000000     
   3.1250000000000000E-002  0.89062500000000000        0.0000000000000000     
   9.3749999999999997E-003  0.88437500000000002        0.0000000000000000     
   2.0312500000000001E-002  0.88593750000000004        0.0000000000000000     
   2.1874999999999999E-002  0.89687499999999998        0.0000000000000000     
   1.0937499999999999E-002  0.89531249999999996        0.0000000000000000     
   4.6875000000000000E-002  0.87500000000000000        0.0000000000000000     
   6.2500000000000000E-002  0.87500000000000000        0.0000000000000000     
   6.2500000000000000E-002  0.89062500000000000        0.0000000000000000     
   4.0625000000000001E-002  0.88437500000000002        0.0000000000000000     
   5.1562499999999997E-002  0.88593750000000004        0.0000000000000000     
   5.3124999999999999E-002  0.89687499999999998        0.0000000000000000     
   4.2187500000000003E-002  0.89531249999999996        0.0000000000000000     
   7.8125000000000000E-002  0.90625000000000000        0.0000000000000000     
   9.3750000000000000E-002  0.90625000000000000        0.0000000000000000     
   9.3750000000000000E-002  0.92187500000000000        0.0000000000000000     
   7.1874999999999994E-002  0.91562500000000002        0.0000000000000000     
   8.2812499999999997E-002  0.91718750000000004        0.0000000000000000     
   8.4375000000000006E-002  0.92812499999999998        0.0000000000000000     
   7.3437500000000003E-002  0.92656249999999996        0.0000000000000000     
  0.10937500000000000       0.90625000000000000        0.0000000000000000     
  0.12500000000000000       0.90625000000000000        0.0000000000000000     
  0.12500000000000000       0.92187500000000000        0.0000000000000000     
  0.10312499999999999       0.91562500000000002        0.0000000000000000     
  0.11406250000000000       0.91718750000000004        0.0000000000000000     
  0.11562500000000001       0.92812499999999998        0.0000000000000000     
  0.10468750000000000       0.92656249999999996        0.0000000000000000     
   7.8125000000000000E-002  0.87500000000000000        0.0000000000000000     
   9.3750000000000000E-002  0.87500000000000000        0.0000000000000000     
   9.3750000000000000E-002  0.89062500000000000        0.0000000000000000     
   7.1874999999999994E-002  0.88437500000000002        0.0000000000000000     
   8.2812499999999997E-002  0.88593750000000004        0.0000000000000000     
   8.4375000000000006E-002  0.89687499999999998        0.0000000000000000     
   7.3437500000000003E-002  0.89531249999999996        0.0000000000000000     
  0.10937500000000000       0.87500000000000000        0.0000000000000000     
  0.12500000000000000       0.87500000000000000        0.0000000000000000     
  0.12500000000000000       0.89062500000000000        0.0000000000000000     
  0.10312499999999999       0.88437500000000002        0.0000000000000000     
  0.11406250000000000       0.88593750000000004        0.0000000000000000     
  0.11562500000000001       0.89687499999999998        0.0000000000000000     
  0.10468750000000000       0.89531249999999996        0.0000000000000000     
  0.14062500000000000       0.96875000000000000        0.0000000000000000     
  0.15625000000000000       0.96875000000000000        0.0000000000000000     
  0.15625000000000000       0.98437500000000000        0.0000000000000000     
  0.13437499999999999       0.97812500000000002        0.0000000000000000     
  0.14531250000000001       0.97968750000000004        0.0000000000000000     
  0.14687500000000001       0.99062499999999998        0.0000000000000000     
  0.13593749999999999       0.98906249999999996        0.0000000000000000     
  0.17187500000000000       0.96875000000000000        0.0000000000000000     
  0.18750000000000000       0.96875000000000000        0.0000000000000000     
  0.18750000000000000       0.98437500000000000        0.0000000000000000     
  0.16562499999999999       0.97812500000000002        0.0000000000000000     
  0.17656250000000001       0.97968750000000004        0.0000000000000000     
  0.17812500000000001       0.99062499999999998        0.0000000000000000     
[...]
 CELL_DATA       14336
 SCALARS Tumor_cells float
 LOOKUP_TABLE default
    0.30224295086992096420E-13
    0.51539163999125954302E-13
    0.45855286798446514630E-13
   -0.33402973014504144486E-13
    0.12411942297406509205E-14
    0.70520747414593507095E-13
    0.12085788766482845402E-12
    0.67427299261266437175E-13
    0.31722581677124196659E-13
    0.25317369331826536389E-13
    0.21934845666734981470E-13
    0.13445363248634006873E-12
    0.10272979259083177093E-12
    0.85404246304262616198E-13
    0.11456285603940869821E-12
    0.37238748264319331187E-13
    0.11732245943600530722E-12
   -0.27391482896066435225E-13
   -0.18360713698369939873E-13
    0.61314058299620473631E-13
    0.39865280225917572992E-13
    0.13542733518821793666E-13
    0.21988483340926490002E-13
    0.91100569902822304076E-13
    0.27897055281896531875E-13
    0.10105330779058788285E-13
    0.55652873661415751275E-13
   -0.30204359786162298226E-13
    0.42293317910779570779E-13
   -0.31379773679453790369E-13
    0.46172266331358627756E-13
    0.14737171594134469662E-12
    0.13806786198660007300E-12
    0.97001810536236839108E-13
   -0.10118134875133135371E-13
    0.55688771609367151316E-15
    0.90121350657716460732E-13
    0.26771688176646275898E-13
    0.11913919642724822795E-13
    0.41334985015053092003E-13
    0.16173337929269652666E-13
    0.73960436100974478247E-13
    0.53946618256581127010E-13
    0.11446498360018548747E-12
    0.77998907647651556344E-13
    0.89923573855459840873E-13
    0.18241378091345301928E-12
    0.97697658112117337349E-13
    0.67536894585591732430E-13
    0.44851417442343248085E-13
    0.45147175608985888644E-13
    0.12380271338913925085E-12
    0.58934818568954124765E-13
    0.41129062176639356898E-13
    0.45358710490066149657E-13
    0.39240494224284134357E-13
    0.46394849817682382822E-13
    0.97653638661721083471E-13
    0.12156122633811288542E-12
    0.10081903884358458009E-12
   -0.17111130563151708296E-13
   -0.34846183383082117756E-13
    0.43214817123279228639E-13
    0.62001562579761682344E-13
    0.58482378640200719129E-13
    0.40560225899612599811E-13
    0.33230397017441877420E-13
    0.70774512529779795288E-14
   -0.15797976112071292647E-13
    0.75130283738010537216E-13
    0.12103140840916906449E-12
   -0.17447230955520337324E-13
    0.62922001212743301129E-13
    0.42038083249474454096E-13
    0.41233825289905345355E-15
    0.30181274447812621077E-13
    0.30461623568360425092E-13
    0.49987391091664280085E-13
    0.16008713851314262636E-14
    0.11013001567352240786E-12
   -0.69473677371610445492E-14
    0.29220016812777616365E-14
    0.50678677816011436979E-13
    0.84621344060130923530E-13
    0.26023548715764344727E-13
    0.18677785607693309315E-13
    0.18403369101303244036E-13
    0.96310885481468414285E-14
    0.20002221295203751732E-13
   -0.30112401819894850801E-14
    0.31509940187833500185E-13
    0.28207134850298593710E-13
    0.29476662904839474590E-13
    0.14072859938184084162E-12
    0.20124657960948325476E-13
   -0.16795767341101492850E-14
    0.48383015622878996233E-13
    0.24194909599023202658E-13
    0.27401373563241805677E-13
    0.26376596868096853410E-13
    0.10709529681325213786E-12
    0.45312580532540118598E-13
    0.81892895130797891436E-13
    0.27578502863461788917E-13
   -0.98805322151624979676E-13
   -0.28587893676047688642E-13
    0.10577410291000134564E-12
    0.65728597162143588784E-13
   -0.15078092866081366498E-13
    0.61729680222552201709E-13
    0.58768905934987530296E-13
    0.38104400295464986587E-13
   -0.11327667667619960569E-12
    0.48778410520838253507E-13
    0.66271673776873248478E-13
    0.80776831829064305272E-13
    0.39043274501658328271E-13
    0.45716577959178345180E-13
    0.43277739245001608072E-13
   -0.12824197698402991356E-13
    0.48027405939331482892E-13
    0.59017022846136362968E-13
   -0.45012067448754304054E-14
    0.65385777814772798643E-13
    0.69053865995862422573E-13
    0.11311461241611466102E-13
   -0.22337441882106671198E-13
    0.27482612638760257571E-13
    0.36231053766260039070E-14
    0.89504410788294703520E-13
    0.55258078504634429878E-13
    0.49752331004252406201E-14
    0.35683975104114628841E-13
    0.73600231054422907477E-13
    0.13907073199192398447E-12
    0.44963708582921281070E-13
    0.50273719205797764112E-13
    0.39179778408450264310E-13
    0.34138614385283733918E-13
    0.25379323322198763782E-13
    0.13216009949341058143E-13
    0.34528791832860242803E-13
   -0.16805492670801778081E-13
    0.48515705488100618241E-13
   -0.16047953502037280759E-14
    0.93507316834204391213E-13
    0.29274764755475130104E-13
    0.25298147881959873525E-13
    0.77661209763998177870E-13
    0.98720961843797852471E-14
    0.10045809028781610183E-12
    0.42032463050107072181E-13
    0.14920869885559436722E-14
    0.29739050632710844986E-13
    0.12492518883294975676E-13
    0.75849347011223279449E-13
    0.22497054819134369236E-13
    0.13633469290139603976E-12
   -0.35576552138668961935E-13
   -0.82698181796925322690E-14
    0.67378180007283519846E-14
    0.29609853708035580790E-13
    0.91451708092608786204E-13
    0.85770465756151647729E-13
   -0.42251135418448939046E-13
   -0.44580702957843781911E-13
    0.30043315053870850679E-13
    0.87158783231460122425E-13
    0.33224382527967434450E-13
    0.52856256119313905820E-13
    0.24710496537787044920E-13
    0.14873519642911446982E-13
    0.10871614332179780428E-12
    0.19555319614793796578E-13
   -0.92192440425169076163E-14
    0.50166826894617882185E-13
    0.72955200447298060101E-13
    0.11127850292864122486E-12
    0.17217478109931273867E-13
    0.26371718049051060736E-13
   -0.29708508006339813982E-13
    0.18082878725834796600E-13
    0.13237878580551934811E-12
   -0.26395252659474614916E-13
    0.36769334725389065995E-13
   -0.40145424183870345556E-14
    0.24876354096410863209E-13
    0.31627606121689457950E-13
    0.51661400457933545326E-13
    0.36441396017878385414E-13
    0.50627389696486016849E-13
    0.36891309912835728093E-13
   -0.28730819737041041283E-13
    0.30382939896306259636E-13
    0.61220873228301032433E-13
    0.90165668001234844646E-13
    0.59342924406337462294E-13
    0.59951065916876196096E-13
    0.11990244092817708734E-12
    0.49718228635858289686E-13
    0.78481708492513667916E-14
    0.10069889119887623319E-12
   -0.25773221450805804923E-13
   -0.39201663967450699503E-13
    0.20808721236450928991E-13
   -0.96447707797215145383E-14
    0.31610561322683253973E-13
    0.58560824521919685178E-13
    0.24611473273452787531E-13
    0.49756630337464119875E-13
    0.84904160477405738040E-13
    0.69649334852695130655E-13
    0.41203663243132245272E-13
   -0.79159928849139200357E-14
    0.10097892157251581561E-12
    0.89316759284498672966E-13
   -0.33369645752947496512E-13
    0.47470315036506777507E-13
    0.89887576979969391490E-15
    0.18674085185515709703E-13
    0.18244725985594899026E-13
    0.31398564608531603576E-13
    0.70128024456336447086E-13
    0.80734446162178891938E-13
    0.15068467342332365651E-13
    0.62756249281709665728E-13
    0.97257012829535206445E-13
    0.79620976083338895025E-13
    0.47871142637918061780E-13
    0.92846928114134592896E-13
    0.12667544413902506826E-12
    0.69114789493689372260E-13
   -0.21405602894617276293E-14
    0.34411799159483844897E-13
    0.50031860220778718115E-13
    0.87936081603070095755E-13
    0.10067621888053827357E-12
    0.83915957410689733641E-13
    0.65083780676286869339E-13
   -0.31990145974207930900E-14
   -0.79318898207311632507E-14
    0.36783271162839369174E-13
    0.32823803001006405934E-13
    0.49845163724316700608E-13
    0.11915906875310279746E-12
    0.70863034536355424783E-13
    0.65537419920416406442E-13
    0.49039037290176969797E-14
    0.12149021470551477908E-12
    0.85979656241912453254E-13
    0.31912928709774333228E-13
   -0.52105833969300948699E-15
   -0.42314583802460936684E-13
    0.58970651550851033787E-13
    0.59396837276735421714E-13
    0.58624513219273148638E-13
    0.35778484495907148150E-13
    0.27288610436315199766E-13
    0.79206736955349638008E-13
    0.66719846347915884235E-14
    0.14431525829127876007E-13
    0.48631354820365371180E-13
    0.33278660382878840004E-13
    0.89662460268690749924E-13
    0.69256977955617070959E-13
    0.53370326572675810124E-13
    0.30382293903919249710E-13
    0.48223019264985478786E-13
    0.41481876163395371114E-13
    0.51062324961582073274E-13
    0.78124147069534129256E-13
    0.67287348952985758552E-13
    0.89144328515159091359E-13
    0.20150947291108431109E-13
    0.70081201344579436448E-13
    0.58048471056516728027E-13
    0.57016106998036613578E-13
    0.84012054057000308432E-13
   -0.35453576238347029942E-13
    0.63339203279596042903E-13
    0.66915147769656335802E-13
    0.33957418054885652877E-13
    0.29865132406172510552E-13
   -0.53274471787888529528E-13
    0.68426409511829945500E-13
    0.23017249038820589071E-13
    0.99757504740763706023E-13
    0.43890105588009802914E-13
    0.69919573846836844086E-13
    0.54645394923201218240E-13
    0.79987851112766363707E-13
    0.11677130267027737413E-13
    0.47541455983879016785E-13
    0.90662204645911530587E-14
    0.41683848995078194332E-14
    0.46007823571686032383E-13
   -0.29768901966873223048E-13
   -0.53465179134024042718E-13
   -0.13721029082261544107E-13
    0.47796180378063237897E-13
    0.28710545253382420550E-13
    0.28463026735311219388E-13
    0.44011171730999690780E-13
    0.85544987448602072774E-13
    0.52257671105242033570E-13
    0.32743162869036152024E-13
    0.57241273183849436493E-14
   -0.48028121016658882728E-13
    0.24389485013127928494E-13
    0.43108374691619549933E-13
    0.26625946097207886982E-14
    0.69152908813163861564E-13
   -0.13013169438040002606E-13
    0.54011644234329587950E-13
    0.78919011860253398812E-13
    0.12742240882401474026E-12
    0.89889404891893412050E-13
    0.59462990305647348971E-13
    0.26636584055511015703E-13
   -0.22567930800569269372E-13
    0.33213768995446279425E-13
    0.46107641043169839292E-13
   -0.42711789983291857974E-13
    0.12508494219470839481E-14
    0.28297650338532018365E-13
   -0.10771142046974272483E-13
    0.51052607173800002950E-13
    0.39341719243317733580E-13
    0.17438914144408892373E-13
    0.83893609055936242854E-13
    0.18495703463166447181E-13
    0.59056519407280332547E-13
    0.29242033202197287852E-14
    0.43286675899208658811E-13
    0.69654462151516378245E-13
    0.45342706979581639549E-13
    0.74909654791362836353E-13
    0.23936011856711142913E-13
    0.53192695734884434945E-13
    0.94492245135155869801E-13
    0.37908032354762998940E-13
    0.91397629258093700091E-14
   -0.19776123914006590677E-13
    0.75087504299070251561E-13
    0.38974618584747757881E-13
   -0.24831549973468643656E-13
    0.10487439282525330883E-12
    0.83357655667698809228E-13
    0.19773345910202067587E-13
    0.28734463193688322841E-13
    0.52984252295472354772E-13
   -0.17755538623088087559E-13
    0.19476942938182395820E-13
    0.50735069738350057499E-13
    0.95125164342509136725E-13
    0.35124472129383546813E-13
    0.48758968481220205162E-13
    0.12872169047366699122E-12
   -0.39009744127062038582E-13
    0.90521810387350979357E-13
    0.82594245453814643241E-14
    0.91568279187010870697E-13
   -0.22652628792262688227E-13
    0.91126385997732706049E-13
    0.52386051097387430662E-13
    0.73931584005555107086E-13
    0.85736727428525431623E-15
   -0.14395722114051112316E-13
    0.24948077759432202489E-13
    0.10604852332393504724E-12
    0.65242082767143361505E-13
    0.70882504503201712223E-13
    0.15725471165971059476E-12
    0.64934719633262291519E-13
    0.15298990347922457962E-13
    0.61160707382916056174E-13
    0.28417966729435764446E-13
    0.99196628279900720985E-13
   -0.27832106683147061934E-13
    0.51569746490262477392E-13
    0.15921279788535900857E-13
    0.41813717097659162842E-13
    0.74881439018682767941E-13
    0.94639906549952492249E-13
    0.12171690225963318618E-13
   -0.12572179212383397730E-14
    0.33792436774141445900E-13
   -0.12667892691997083765E-13
    0.78713318101681465318E-13
    0.26385814016898565314E-14
    0.18332255027536865763E-13
   -0.65138425170698247773E-14
    0.97784383390754462391E-13
    0.89772272076328212264E-13
    0.72823130927711093588E-13
    0.82567872138250259148E-13
    0.29268923494451882962E-14
    0.36913264396174267388E-13
    0.89071950860259060316E-13
    0.10445869176531143148E-12
    0.39488437474801275327E-13
    0.43006823252511821845E-13
    0.52025749439550830760E-13
   -0.25370995974854131551E-13
    0.97609091319589167163E-13
    0.45387864753164137494E-13
    0.29108222756979451389E-13
    0.21817749828968225168E-14
    0.66831322960210801904E-13
    0.29932132991123938412E-13
    0.51810864765975499356E-13
   -0.14752918387633155592E-13
   -0.59119082822642830059E-14
    0.64348228320607121839E-13
    0.38165869896715181893E-13
    0.41430666219946833808E-13
   -0.58463642770363718363E-13
   -0.83663859600174770080E-14
    0.21690835713227794431E-13
   -0.10515258781016315759E-14
   -0.45071066765414813362E-14
    0.60433363277491827534E-13
    0.29116717032471386909E-13
    0.20303033246606440981E-13
    0.64505174389252829333E-13
    0.44885112448785400054E-13
    0.63941588331948271522E-13
    0.11645984358271231805E-13
    0.42293782034470775653E-13
    0.62986558509879507373E-13
    0.49873769329488043058E-13
   -0.27504896605248384618E-13
   -0.68550648284513255127E-13
    0.10136784682951470459E-12
    0.19697506725536042683E-14
   -0.58706629846870559605E-13
    0.46137023868591546169E-14
   -0.20560194110735531702E-13
    0.14411300185849991775E-13
    0.29403366660604998116E-14
    0.13182616694297256106E-13
    0.96598171443214938048E-15
    0.32286610553667591209E-13
    0.21518625189410846374E-13
   -0.52846160376157184358E-13
    0.60374495308857523572E-14
   -0.44015092877564986516E-14
    0.54416786652822682647E-13
    0.78549765688742820766E-13
    0.67677553213913342158E-13
    0.10303928694612132177E-12
    0.26868543790683682342E-13
    0.20600216204607589019E-13
    0.59911061313877352587E-13
    0.99630227952567116446E-13
    0.56058640721196545783E-13
    0.72545751135007793660E-13
   -0.42198886865018014670E-13
    0.87458889816025070253E-14
    0.12177038703733854853E-12
   -0.26653529402621193045E-13
    0.10319998784662431788E-12
   -0.92201081778285400006E-13
    0.18029408296997957430E-13
    0.96941676371992701476E-13
    0.11206655287828806905E-12
    0.95536468141273143447E-13
   -0.34342432552198714041E-13
    0.74465085361771388848E-13
    0.18801866544220955878E-13
    0.59493577093516898511E-13
    0.30710917288034442399E-13
    0.33081182907997176370E-13
    0.11098214031050040172E-12
    0.76954122032621713575E-13
   -0.66419837120871137778E-14
    0.83291980123113029116E-13
    0.35225911561291229056E-13
    0.42454157050044339620E-13
    0.20626544878055009801E-13
    0.43466621625572843938E-13
    0.81867915419963241182E-13
    0.66950808434067318756E-13
    0.21908115673706325601E-13
   -0.37670013777225424183E-14
    0.70492561058739893295E-13
    0.14419484025132689553E-12
    0.71648073752885202759E-13
    0.84339088564161654871E-14
    0.11841621273946629981E-13
    0.43650552578899817118E-14
    0.93382200620057000125E-13
    0.24377966543506684954E-13
    0.64426984125885725903E-13
    0.31386223933180493818E-13
    0.61777251172867140945E-13
    0.11722606671290084583E-13
    0.38684883114275927673E-13
    0.46544738124658376902E-13
    0.70345645944277402092E-13
   -0.20628892874851982183E-13
    0.47362152056580395562E-13
    0.15316000501892308789E-12
    0.46401185222175483740E-14
    0.11911771027635067287E-13
    0.10202462051926801117E-12
    0.75268218761367761338E-13
    0.82625604112789621860E-13
    0.57393634554714642296E-13
    0.10177268990858429909E-12
    0.94687242950912009360E-13
    0.10479189264710799100E-12
    0.74415682093742497668E-14
    0.37025045945610952989E-13
    0.52682225396757863112E-13
    0.60766274587772718697E-14
    0.58746455703008658360E-13
    0.11495244617275650878E-13
    0.11634800118538751713E-12
    0.67919596237817164446E-13
    0.31767232678619587683E-13
    0.65179614610895096462E-14
    0.14489412634660113778E-13
    0.58800252640520059338E-13
    0.57471153839136418944E-13
    0.25782714262530989655E-13
    0.63462952694446397366E-13
    0.10247720736260815740E-12
    0.12337310583619927281E-12
    0.69971226297424540248E-13
    0.16831043946622246945E-12
    0.32138583620140362254E-13
   -0.71763532954567283228E-15
    0.72743650633100572156E-13
    0.72641833206466556229E-13
    0.16716971317626588621E-14
    0.17744948035300934761E-14
    0.60581038389608765906E-13
    0.84257907951356107193E-13
    0.24401775808233509543E-13
    0.55906458627271071704E-13
   -0.41342747999081400954E-13
    0.12156858863893064049E-12
    0.81943416272327702245E-13
    0.84307575846641404519E-13
    0.11567411215066421821E-13
    0.62306251561942807818E-13
    0.29166362962374807725E-13
    0.52212749971342314139E-13
    0.41076238420921255975E-13
    0.38546767566118328117E-13
   -0.26466599530809401131E-13
    0.56211207551152027020E-13
    0.82059741048229159055E-13
    0.27838729916426036743E-13
    0.12399780131981098894E-12
    0.23362456199305853367E-13
    0.74114296098374875979E-13
    0.10180536965028682305E-13
    0.49680018274072069356E-13
    0.87195882987078420357E-13
    0.36927470220255090459E-13
   -0.10965708581380093611E-12
    0.22124591311454738211E-13
    0.73957824979038137062E-13
    0.83373771860466199399E-13
    0.84697311841660299147E-14
   -0.60043406461918739106E-15
    0.75071721028003150111E-13
    0.80496358780807049050E-13
    0.53777548682670122390E-13
    0.70894759252990213176E-13
    0.45613783579268723948E-13
    0.82049551950689762514E-13
    0.34816270921738528996E-13
    0.15979543080167158400E-13
    0.15608634225165416048E-12
    0.39528615464820182904E-13
    0.75833497011102275630E-13
    0.52159645031109057521E-14
    0.71171329779507421052E-14
    0.23491967544192554563E-13
    0.41842979006471021230E-13
    0.11551754506842294543E-12
    0.99903224870236548447E-13
    0.10637755683468299062E-12
    0.12503613363678864038E-12
    0.80191248515604548561E-13
    0.87711433492941420948E-13
    0.46768774287709315671E-13
   -0.31307759756621416602E-13
   -0.12649863294833059891E-13
    0.18561682308829040396E-13
    0.31403019531128331140E-13
   -0.19668308838891576685E-15
    0.10438915509623887656E-12
    0.55266413739638366810E-13
    0.21080507835073219950E-13
    0.35670434028534744661E-13
   -0.57982559207389723331E-13
    0.41558835948854819888E-14
   -0.21937552656579415879E-14
    0.88804866709900124230E-13
    0.61288848451314886610E-13
    0.48800755487237559610E-13
    0.59902759602615822552E-13
    0.37183127406026478500E-13
   -0.27395335834121025856E-14
    0.39237389096957166407E-13
   -0.16854053803539922900E-13
    0.60566356165692976268E-13
    0.19324974546839913636E-13
    0.87516517312572039671E-13
    0.54595094968815976698E-13
    0.10548745702835112516E-13
    0.35822783460688750962E-13
    0.33656752520720251713E-13
    0.92936389277990452178E-14
    0.61364295311074000681E-13
    0.74360439765451591580E-13
    0.82297073912480789325E-13
    0.62235470909628204903E-13
    0.85400262296371641562E-14
   -0.10134679987339339446E-13
    0.38857112979560008381E-13
    0.62569090662376492297E-13
    0.24820840322199497613E-13
    0.49625598907508510044E-13
    0.63947257215710748497E-13
    0.93592410398166627453E-13
    0.65536247460087451121E-13
   -0.19533726142371616732E-13
    0.46006523118052900984E-13
    0.92522393812651900638E-13
    0.16216024667301376575E-13
    0.20517392281952585231E-13
   -0.48438545922116239013E-13
    0.41099269787517073123E-13
   -0.25697550327448595432E-14
    0.19725726686104181392E-13
   -0.39466716675285665367E-13
    0.62330217610231219659E-13