# vtk DataFile Version 3.0
LAPLACIEN  2D
ASCII
DATASET UNSTRUCTURED_GRID
 POINTS        7297  float
   1.5625000000000000E-002  0.96875000000000000        0.0000000000000000     
   3.1250000000000000E-002  0.96875000000000000        0.0000000000000000     
   3.1250000000000000E-002  0.98437500000000000        0.0000000000000000     
   9.3749999999999997E-003  0.97812500000000002        0.0000000000000000     
   2.0312500000000001E-002  0.97968750000000004        0.0000000000000000     
   2.1874999999999999E-002  0.99062499999999998        0.0000000000000000     
   1.0937499999999999E-002  0.98906249999999996        0.0000000000000000     
   4.6875000000000000E-002  0.96875000000000000        0.0000000000000000     
   6.2500000000000000E-002  0.96875000000000000        0.0000000000000000     
   6.2500000000000000E-002  0.98437500000000000        0.0000000000000000     
   4.0625000000000001E-002  0.97812500000000002        0.0000000000000000     
   5.1562499999999997E-002  0.97968750000000004        0.0000000000000000     
   5.3124999999999999E-002  0.99062499999999998        0.0000000000000000     
   4.2187500000000003E-002  0.98906249999999996        0.0000000000000000     
   1.5625000000000000E-002  0.93750000000000000        0.0000000000000000     
   3.1250000000000000E-002  0.93750000000000000        0.0000000000000000     
   3.1250000000000000E-002  0.95312500000000000        0.0000000000000000     
   9.3749999999999997E-003  0.94687500000000002        0.0000000000000000     
   2.0312500000000001E-002  0.94843750000000004        0.0000000000000000     
   2.1874999999999999E-002  0.95937499999999998        0.0000000000000000     
   1.0937499999999999E-002  0.95781249999999996        0.0000000000000000     
   4.6875000000000000E-002  0.93750000000000000        0.0000000000000000     
   6.2500000000000000E-002  0.93750000000000000        0.0000000000000000     
   6.2500000000000000E-002  0.95312500000000000        0.0000000000000000     
   4.0625000000000001E-002  0.94687500000000002        0.0000000000000000     
   5.1562499999999997E-002  0.94843750000000004        0.0000000000000000     
   5.3124999999999999E-002  0.95937499999999998        0.0000000000000000     
   4.2187500000000003E-002  0.95781249999999996        0.0000000000000000     
   7.8125000000000000E-002  0.96875000000000000        0.0000000000000000     
   9.3750000000000000E-002  0.96875000000000000        0.0000000000000000     
   9.3750000000000000E-002  0.98437500000000000        0.0000000000000000     
   7.1874999999999994E-002  0.97812500000000002        0.0000000000000000     
   8.2812499999999997E-002  0.97968750000000004        0.0000000000000000     
   8.4375000000000006E-002  0.99062499999999998        0.0000000000000000     
   7.3437500000000003E-002  0.98906249999999996        0.0000000000000000     
  0.10937500000000000       0.96875000000000000        0.0000000000000000     
  0.12500000000000000       0.96875000000000000        0.0000000000000000     
  0.12500000000000000       0.98437500000000000        0.0000000000000000     
  0.10312499999999999       0.97812500000000002        0.0000000000000000     
  0.11406250000000000       0.97968750000000004        0.0000000000000000     
  0.11562500000000001       0.99062499999999998        0.0000000000000000     
  0.10468750000000000       0.98906249999999996        0.0000000000000000     
   7.8125000000000000E-002  0.93750000000000000        0.0000000000000000     
   9.3750000000000000E-002  0.93750000000000000        0.0000000000000000     
   9.3750000000000000E-002  0.95312500000000000        0.0000000000000000     
   7.1874999999999994E-002  0.94687500000000002        0.0000000000000000     
   8.2812499999999997E-002  0.94843750000000004        0.0000000000000000     
   8.4375000000000006E-002  0.95937499999999998        0.0000000000000000     
   7.3437500000000003E-002  0.95781249999999996        0.0000000000000000     
  0.10937500000000000       0.93750000000000000        0.0000000000000000     
  0.12500000000000000       0.93750000000000000        0.0000000000000000     
  0.12500000000000000       0.95312500000000000        0.0000000000000000     
  0.10312499999999999       0.94687500000000002        0.0000000000000000     
  0.11406250000000000       0.94843750000000004        0.0000000000000000     
  0.11562500000000001       0.95937499999999998        0.0000000000000000     
  0.10468750000000000       0.95781249999999996        0.0000000000000000     
   1.5625000000000000E-002  0.90625000000000000        0.0000000000000000     
   3.1250000000000000E-002  0.90625000000000000        0.0000000000000000     
   3.1250000000000000E-002  0.92187500000000000        0.0000000000000000     
   9.3749999999999997E-003  0.91562500000000002        0.0000000000000000     
   2.0312500000000001E-002  0.91718750000000004        0.0000000000000000     
   2.1874999999999999E-002  0.92812499999999998        0.0000000000000000     
   1.0937499999999999E-002  0.92656249999999996        0.0000000000000000     
   4.6875000000000000E-002  0.90625000000000000        0.0000000000000000     
   6.2500000000000000E-002  0.90625000000000000        0.0000000000000000     
   6.2500000000000000E-002  0.92187500000000000        0.0000000000000000     
   4.0625000000000001E-002  0.91562500000000002        0.0000000000000000     
   5.1562499999999997E-002  0.91718750000000004        0.0000000000000000     
   5.3124999999999999E-002  0.92812499999999998        0.0000000000000000     
   4.2187500000000003E-002  0.92656249999999996        0.0000000000000000     
   1.5625000000000000E-002  0.87500000000000000        0.0000000000000000     
   3.1250000000000000E-002  0.87500000000000000        0.0000000000000000     
   3.1250000000000000E-002  0.89062500000000000        0.0000000000000000     
   9.3749999999999997E-003  0.88437500000000002        0.0000000000000000     
   2.0312500000000001E-002  0.88593750000000004        0.0000000000000000     
   2.1874999999999999E-002  0.89687499999999998        0.0000000000000000     
   1.0937499999999999E-002  0.89531249999999996        0.0000000000000000     
   4.6875000000000000E-002  0.87500000000000000        0.0000000000000000     
   6.2500000000000000E-002  0.87500000000000000        0.0000000000000000     
   6.2500000000000000E-002  0.89062500000000000        0.0000000000000000     
   4.0625000000000001E-002  0.88437500000000002        0.0000000000000000     
   5.1562499999999997E-002  0.88593750000000004        0.0000000000000000     
   5.3124999999999999E-002  0.89687499999999998        0.0000000000000000     
   4.2187500000000003E-002  0.89531249999999996        0.0000000000000000     
   7.8125000000000000E-002  0.90625000000000000        0.0000000000000000     
   9.3750000000000000E-002  0.90625000000000000        0.0000000000000000     
   9.3750000000000000E-002  0.92187500000000000        0.0000000000000000     
   7.1874999999999994E-002  0.91562500000000002        0.0000000000000000     
   8.2812499999999997E-002  0.91718750000000004        0.0000000000000000     
   8.4375000000000006E-002  0.92812499999999998        0.0000000000000000     
   7.3437500000000003E-002  0.92656249999999996        0.0000000000000000     
  0.10937500000000000       0.90625000000000000        0.0000000000000000     
  0.12500000000000000       0.90625000000000000        0.0000000000000000     
  0.12500000000000000       0.92187500000000000        0.0000000000000000     
  0.10312499999999999       0.91562500000000002        0.0000000000000000     
  0.11406250000000000       0.91718750000000004        0.0000000000000000     
  0.11562500000000001       0.92812499999999998        0.0000000000000000     
  0.10468750000000000       0.92656249999999996        0.0000000000000000     
   7.8125000000000000E-002  0.87500000000000000        0.0000000000000000     
   9.3750000000000000E-002  0.87500000000000000        0.0000000000000000     
   9.3750000000000000E-002  0.89062500000000000        0.0000000000000000     
   7.1874999999999994E-002  0.88437500000000002        0.0000000000000000     
   8.2812499999999997E-002  0.88593750000000004        0.0000000000000000     
   8.4375000000000006E-002  0.89687499999999998        0.0000000000000000     
   7.3437500000000003E-002  0.89531249999999996        0.0000000000000000     
  0.10937500000000000       0.87500000000000000        0.0000000000000000     
  0.12500000000000000       0.87500000000000000        0.0000000000000000     
  0.12500000000000000       0.89062500000000000        0.0000000000000000     
  0.10312499999999999       0.88437500000000002        0.0000000000000000     
  0.11406250000000000       0.88593750000000004        0.0000000000000000     
  0.11562500000000001       0.89687499999999998        0.0000000000000000     
  0.10468750000000000       0.89531249999999996        0.0000000000000000     
  0.14062500000000000       0.96875000000000000        0.0000000000000000     
  0.15625000000000000       0.96875000000000000        0.0000000000000000     
  0.15625000000000000       0.98437500000000000        0.0000000000000000     
  0.13437499999999999       0.97812500000000002        0.0000000000000000     
  0.14531250000000001       0.97968750000000004        0.0000000000000000     
  0.14687500000000001       0.99062499999999998        0.0000000000000000     
  0.13593749999999999       0.98906249999999996        0.0000000000000000     
  0.17187500000000000       0.96875000000000000        0.0000000000000000     
  0.18750000000000000       0.96875000000000000        0.0000000000000000     
  0.18750000000000000       0.98437500000000000        0.0000000000000000     
  0.16562499999999999       0.97812500000000002        0.0000000000000000     
  0.17656250000000001       0.97968750000000004        0.0000000000000000     
  0.17812500000000001       0.99062499999999998        0.0000000000000000     
[...]
 CELL_DATA       14336
 SCALARS Tumor_cells float
 LOOKUP_TABLE default
    0.76168625387178975196E-14
    0.35984343507820415829E-14
    0.69693560383516783273E-14
    0.40762828021479549773E-14
    0.11057564217506116225E-13
   -0.23128259076544712931E-15
    0.64764995018642040598E-14
   -0.19021501799915703530E-15
   -0.26132561123737768290E-14
   -0.85798438981073375914E-14
   -0.59886996164554552104E-14
    0.32849114075877908593E-14
    0.21072084598700080088E-14
    0.78701680306838369032E-14
    0.48028797859616014231E-14
    0.30399366452487586713E-14
   -0.31909906332816429208E-14
    0.26209869978663853479E-13
    0.22159359569562725429E-13
   -0.34136163930224143575E-14
    0.12397866233821236238E-13
   -0.11173214793042551216E-13
    0.16912404174876600948E-13
    0.34668573689715255273E-14
    0.11777308798883493103E-14
    0.43297492938583801483E-14
    0.20545828701544209274E-14
    0.10997360096574622001E-15
   -0.18313078676026189720E-13
    0.19595888198957547265E-13
    0.31296899434411330199E-13
   -0.53927416472514057118E-14
   -0.18036899315764247076E-13
    0.11031559244580236728E-13
    0.24635978790797843905E-13
    0.91098025068812803986E-14
   -0.88623790541423802289E-15
    0.55052740061643291996E-14
   -0.21721653777116233731E-14
    0.14668668572253302725E-13
   -0.37339938955242184306E-14
    0.65506491856160264169E-14
    0.12757994673792829437E-13
    0.90360201536086888047E-14
   -0.96094109750705792940E-15
    0.37106628005281941648E-14
    0.10040756572892286042E-13
   -0.40730552122252867207E-14
    0.16315468877332582261E-13
   -0.14876971717175831928E-13
    0.13840809546663369481E-13
    0.15606386641828052791E-14
   -0.12648300563862190364E-13
    0.22336332947667557685E-13
    0.61252942586315604295E-14
   -0.44342735390362434287E-14
    0.67974288702505184609E-14
   -0.14627342876106255375E-14
    0.17006156823147286016E-13
    0.57566180344578746788E-14
    0.64939384399664981159E-14
    0.60564323173758589922E-14
   -0.33045953358150685878E-14
    0.22541260789626097713E-14
    0.28447373204744544782E-13
    0.89397290515838646619E-14
    0.85551701475648058207E-14
    0.48049998115685298211E-14
    0.51313178843763047881E-14
    0.10954106381407871267E-13
   -0.46531188025703032686E-14
    0.91909186206520330949E-14
   -0.32170557229425500195E-14
    0.16680272898893185788E-14
   -0.11471492596665838450E-14
    0.14684217014046099090E-13
   -0.10605669176983760723E-13
    0.69119754581073662790E-15
    0.86911124815010749808E-14
   -0.90204383952686826668E-14
    0.59951212837578730744E-14
    0.85024342073877285504E-14
    0.16603630377686207364E-13
    0.11550352423190495851E-13
    0.12881441194321525494E-13
    0.80795421330192396348E-14
    0.66976407078147168232E-14
    0.17192670288839709578E-13
    0.66863245913130717094E-14
   -0.97966408819819929205E-14
    0.96784457044844234913E-14
   -0.84497965297808686362E-14
   -0.75889395431968468836E-14
    0.13360908020047808094E-13
    0.17327397552510720562E-13
    0.38188936040201970467E-14
    0.83607836360240458646E-14
    0.15520044750648897634E-13
    0.64354455717211699413E-14
    0.12999833446244173113E-13
    0.84932853591281813504E-14
   -0.92839942269913945957E-14
   -0.82048253225266580770E-14
    0.19766823008872922724E-13
   -0.10365109873140680229E-14
   -0.16234322616952341809E-13
   -0.14318287731627236843E-14
    0.34606682635776189065E-14
    0.13774387340757798577E-13
    0.36505131276082152083E-14
   -0.89134132686273134130E-14
    0.53921240416493919990E-14
   -0.68597249195557562054E-14
   -0.22020781657260403759E-14
    0.44368573934093571940E-14
    0.19553983937412048674E-14
    0.79356541811278978575E-14
    0.42317306562295617144E-14
   -0.12752269807243648285E-13
   -0.36167502819909131489E-14
    0.68686316759097256795E-14
    0.69800171439281130501E-14
    0.12425839077244747239E-13
    0.13415582977106348963E-14
    0.53020987103061823066E-14
   -0.81636795817290823631E-14
    0.53916305062743159641E-14
   -0.48783442894629367134E-14
    0.21530082265716462770E-15
    0.65909517887995690752E-14
    0.11621937806704020879E-13
    0.24560510003107633524E-13
    0.97649021138188075917E-15
    0.52736675887475744519E-14
    0.19793401480794587899E-13
   -0.12881670110098306379E-13
   -0.63385615652236419780E-14
   -0.83229814517410441111E-16
    0.22479129225224479672E-14
    0.11339356757112650279E-13
    0.21457446446074588566E-13
   -0.10512830500010220077E-14
   -0.13301347815350459227E-14
   -0.25686558751499898371E-15
    0.18376780847699643976E-13
    0.56315488336325238044E-14
   -0.10845860720313563788E-17
   -0.36059729880363586134E-15
    0.18869208409895389832E-14
    0.45608715687191115687E-14
    0.15520520921372798466E-14
   -0.94066271699611273886E-14
   -0.13775139026451488892E-14
    0.21726178602102304263E-13
    0.73445361852982114331E-14
    0.38767273166808565742E-14
    0.93841373041004973764E-14
    0.16436512413366661609E-13
    0.54845005063855897926E-14
   -0.44891192551900089813E-14
   -0.70417096036140446205E-14
    0.43946347155846588556E-14
    0.11940902203108537192E-13
    0.64029624905431257659E-14
   -0.38933658718712628206E-15
    0.13990062043215854994E-13
    0.10231082049763255164E-13
    0.36098614521646599475E-14
   -0.21380009597233700048E-14
    0.28340953989895816744E-14
   -0.12193512085395302171E-13
    0.15917530835243906297E-14
    0.93712226122108690454E-14
    0.96273961784653067117E-14
   -0.95165403694446842743E-14
    0.12265559480314065012E-13
    0.98825717785503154874E-14
    0.40758714020881245268E-14
    0.79577957822806702662E-14
   -0.21957931270707022493E-14
    0.80305552654320229707E-14
    0.15378115535823124996E-13
    0.34004388126197884377E-14
    0.10218041755281413069E-13
   -0.10285664650812951860E-13
    0.96143174440131516397E-14
    0.37293682505626877913E-14
    0.46647344878618741155E-14
    0.30678828521189000603E-14
   -0.50430940313237083369E-14
    0.90645392372715097007E-14
    0.17893971359294556107E-14
    0.59129361440298487002E-14
    0.28330146312238382298E-14
   -0.58958815936670258134E-14
   -0.10095796035534831533E-13
    0.14029083026914844498E-13
    0.10882951484617286890E-13
   -0.64353622053607043893E-14
   -0.17679040973140209976E-13
    0.28817454632291354240E-14
    0.74974656372246910189E-14
   -0.48861932449938406057E-14
   -0.30512188289944989793E-15
    0.58627442662081589241E-14
   -0.49174369265932610400E-14
   -0.79398790315950027245E-14
    0.80944021845688010828E-14
   -0.37870209267195365035E-14
   -0.23598554059140559813E-14
   -0.32073658293565342977E-14
   -0.75122899622469792213E-14
   -0.89893990585057939728E-14
    0.42886221561369712854E-14
    0.10132487714543556713E-13
    0.76049002754113003707E-14
   -0.35847722858901116496E-14
    0.13896444995409091966E-13
   -0.42935740622916284357E-14
   -0.25451822259317962567E-14
    0.30577770913818278195E-14
    0.92320317661855521667E-14
   -0.15832295531056252146E-13
   -0.92180729475042182193E-14
   -0.36544024078811102804E-15
    0.10196549730256190119E-13
    0.69598596061886109687E-14
    0.13590444436157517300E-14
    0.89095584710964178951E-14
    0.27404406670970906863E-13
    0.18007342687169309079E-13
   -0.13470103087943337016E-14
   -0.54145590145101445436E-14
    0.19551354584839814729E-13
   -0.98265088291899674651E-14
    0.38615588542396853943E-14
   -0.63110955094228902263E-14
   -0.30459997227094948768E-14
   -0.38811877798908443982E-14
    0.89446321343062559678E-14
    0.61339511899402926888E-14
    0.11428611520549869840E-13
    0.85750965614724836986E-14
    0.45501737011854493497E-14
    0.20596711305847856386E-15
    0.97170725665588339909E-15
   -0.93911737756877234388E-15
    0.23409887377799358447E-13
    0.13349568692214539185E-13
    0.69860859502326404332E-14
    0.30810150175122342754E-14
    0.77020692611555813110E-14
    0.65183121190519410682E-15
    0.16453320716771031750E-13
    0.55992010466402545751E-14
    0.11344836345351101314E-13
    0.30012167176797684668E-14
    0.10652112334737507541E-14
   -0.21624727871763604498E-14
   -0.16337101093874912531E-13
   -0.47109499946000251980E-14
    0.72106136005147159427E-14
   -0.29704911888124330741E-14
   -0.50344484812131740688E-14
   -0.54129068574564911716E-14
   -0.33480729116162563432E-14
    0.19693097584432663168E-13
    0.14288397265563321347E-13
   -0.11538793343804046321E-14
   -0.58681257953449987811E-15
    0.55453339856227131856E-14
    0.33164608978921116861E-14
    0.16856103157118021058E-13
    0.10676270648662539299E-13
    0.39704579717796865741E-14
    0.24088900704133575616E-14
    0.22980780475929219160E-15
    0.21731462925530608531E-14
   -0.59147602837722995599E-14
   -0.10825236642451575552E-15
   -0.72856068755471754624E-14
    0.88043581742137357118E-14
   -0.50027293565046189172E-14
    0.29559182197344647286E-14
    0.15480087041075189803E-13
    0.93520641056654349443E-14
   -0.37441214348552132826E-15
    0.62940464470306617189E-14
   -0.12483773943862373232E-13
   -0.10115003884678359887E-14
   -0.92123619951106749253E-14
   -0.25497830432839834116E-14
    0.12346064116329038282E-13
    0.38464044733085863006E-14
   -0.34910030541951456989E-14
    0.48441873082278831643E-14
    0.22967584720934851358E-14
    0.37964866150726770705E-14
    0.86501207802080037760E-14
    0.11188873074531297658E-13
    0.18443195380412532883E-14
    0.51495385886547711885E-14
    0.12200076220599507393E-13
    0.10363594831213382421E-13
    0.21236459101567822119E-14
    0.11776203161478185078E-13
    0.12475840640715140558E-13
   -0.57178075311280089398E-14
   -0.11162839929274650068E-13
   -0.70362656707277559741E-14
   -0.25914710817816597933E-14
    0.69751424438459386322E-14
   -0.50179859753432578852E-14
   -0.31431338345082863891E-14
   -0.63898703753713528859E-14
   -0.14897528383982569024E-13
   -0.53562902094980589219E-14
    0.32045075225012110325E-14
   -0.82789509310621270435E-14
    0.14475051893707890463E-13
    0.98159778665806265910E-14
    0.10853793618900093747E-13
    0.44866883586332667702E-15
   -0.31657685980703709110E-14
   -0.19589719527808872600E-13
    0.81828525711902841802E-14
    0.36239659642167553243E-14
   -0.56153926499207386454E-14
   -0.13926248252247179701E-13
   -0.17054380308712843657E-14
   -0.19940594585497308195E-13
   -0.14114633944966917179E-13
    0.46229392183328811476E-16
    0.49029673720785180799E-14
    0.20349427332648587181E-15
    0.44436458476018552492E-14
   -0.83481281373306333083E-14
    0.23951304667417690703E-13
    0.60880781169906349392E-14
    0.43220685095298411809E-14
   -0.16528243798869431222E-14
    0.71238818419938275664E-14
    0.37234200729452004087E-14
    0.17562646975318721572E-14
    0.38676449344981927287E-14
    0.90690142819646535869E-14
    0.10780870781311262594E-14
    0.18644753182596705386E-13
    0.18051586199529410774E-13
   -0.15444957016227874388E-13
    0.75833193918403868967E-14
    0.19623258299385521139E-14
   -0.35653391209802478587E-14
    0.11972945852421728617E-13
    0.11197488376242944175E-13
    0.10727976452228551270E-13
   -0.39971237208834057630E-14
   -0.51654367937041835125E-14
    0.11599213091622108283E-13
   -0.30876806854756925805E-14
   -0.10022184436059370653E-13
    0.50896373454902408556E-14
    0.17013562283320335164E-13
   -0.80111628679852627320E-14
    0.60539096870417533155E-14
   -0.60530943920466182793E-14
   -0.22095967256336490211E-14
   -0.11439637324019729427E-13
   -0.58093113524757635084E-16
    0.57312864414402438067E-14
    0.19106772571305636373E-13
   -0.59976716657070745562E-15
    0.11095068699109993804E-13
    0.72294326600079019494E-14
    0.67321533317168939725E-15
    0.98633740257569554650E-14
    0.27070075427892084685E-14
    0.12440569403379502436E-13
   -0.11846580665254940506E-14
   -0.13222842009061352302E-14
   -0.16643578904435939661E-15
   -0.10171717228595307780E-13
   -0.79941678183184418982E-14
    0.22756553475512968968E-14
   -0.49694772321326004071E-14
    0.17728212607703795231E-13
    0.15494313147441938799E-13
    0.48275165828415083617E-14
    0.31789835431137732184E-14
    0.79843034689798460222E-14
   -0.40102579043668643699E-14
    0.61355010058603461218E-14
   -0.95230171696698305439E-15
    0.24683833181350501097E-13
    0.96904942758203090751E-14
   -0.48072748507526660248E-14
    0.21823124696588376412E-13
   -0.12164044677471944843E-14
    0.17618567872479745443E-13
    0.54183324905758394455E-14
    0.11216894567815528085E-13
    0.11200031175722016452E-13
    0.69339970852286805175E-14
    0.17267576853383873103E-14
    0.15768663243573365899E-13
    0.60650555777363612619E-14
   -0.15801425138581672424E-14
   -0.13289953074890243387E-14
    0.64648030492616694768E-14
    0.93064296804824098407E-14
    0.14130191489339881868E-14
   -0.13335973187611331404E-13
   -0.29052959199297365938E-14
    0.77939768616884883939E-14
    0.80738191290201188659E-14
   -0.81094956943784980272E-15
   -0.11591286494074157833E-14
   -0.13056962386960182316E-14
    0.48919873516486716881E-14
    0.85123564937457135051E-14
   -0.28994277355352396340E-14
   -0.37906662343928023337E-14
    0.42074915077191315425E-14
   -0.53428487893147045554E-14
    0.13580446969260334998E-14
   -0.51753121596118154350E-14
    0.86377701153411159955E-14
   -0.20667533282290105214E-14
    0.99698377223596027988E-14
   -0.91859736829754750435E-14
    0.10160990975470844341E-13
   -0.11022692800350865940E-13
    0.23008833714847488458E-13
   -0.14980213921972343753E-14
    0.68399870274903690768E-14
    0.83966329085328354648E-15
    0.64354721302812597157E-14
   -0.51449735654574097645E-14
   -0.22396083725288873145E-14
    0.82373427384783797656E-15
    0.74220364187928022676E-14
    0.31017230826712164198E-14
    0.66514985255077830377E-14
   -0.80133018560924681560E-14
    0.22556340402314367958E-14
    0.11272702410578155665E-14
    0.11415401588159767548E-14
    0.96685126734214448675E-15
    0.20325247404985541717E-13
    0.30070859815108209361E-14
    0.12278016815832811952E-13
    0.71240696704583201735E-14
   -0.94688163900151174956E-14
    0.61339295859142968274E-14
   -0.84933589631397451057E-14
    0.84958515591885594370E-14
    0.12533877328739501783E-13
    0.30998246261898528118E-15
    0.31207590043809465638E-14
    0.78047425358184852216E-14
    0.32265196121705463319E-14
   -0.13852421817239464533E-14
    0.12282350482578969710E-13
    0.69175566987105606425E-15
    0.18037656321569701062E-13
    0.17604682836300398369E-13
    0.24950692445194019863E-13
   -0.94282232720555713423E-14
   -0.35210735921552243824E-14
    0.13005177111776284578E-13
   -0.10791103825154392569E-13
    0.11624326052002565236E-13
   -0.65489105647587364068E-14
    0.52081026500303347383E-14
    0.76657945398754390998E-14
    0.38632282733520843388E-14
   -0.37901090603983674031E-14
    0.57275498038447145737E-14
    0.67601088476995438677E-14
    0.69852500327131565794E-14
    0.27322822133305698477E-13
    0.38086288834814130048E-15
    0.11107320773973186955E-13
    0.23883497590225400942E-13
    0.10990008955180477044E-13
   -0.47118545063726386956E-14
   -0.44019988035001911786E-14
   -0.93951840319994900578E-14
    0.13380640111778435253E-13
    0.28036670413195353271E-14
   -0.66936924016092001924E-14
    0.77642593099940975412E-14
   -0.60472553196384134064E-14
    0.97555131878071095173E-14
    0.24208581389736505436E-14
    0.20340662376809176598E-13
   -0.10701322813238841996E-14
    0.12642765973256420254E-13
    0.15493469671360596279E-13
    0.14929198557980990936E-13
   -0.30115902386304160328E-14
    0.26237850031351636792E-14
    0.34335833471651339318E-14
   -0.55391044078490015436E-14
   -0.29070023184904847603E-14
   -0.42909934410634627042E-14
    0.98965725054494094668E-14
   -0.20322845646993271727E-14
    0.11369520813117355105E-13
    0.96577363234045663837E-14
   -0.21109154305471480349E-14
   -0.22181339876657815707E-14
   -0.38390179857986933448E-15
    0.28875183168422256281E-14
    0.10591068355382034141E-13
    0.72240977447867310561E-14
   -0.18695673124538819855E-13
    0.18418818128013018857E-13
   -0.11348310695473318785E-13
    0.61722091507130785089E-14
    0.67034098847129057281E-14
    0.14280016712328845056E-14
    0.73764485672986271283E-15
    0.19044859996809385016E-13
    0.92411700654678570632E-15
    0.12833940942778603457E-14
   -0.65002105630167666734E-16
    0.22619989564374127476E-13
    0.55522862609448984048E-14
   -0.63949975798917284698E-14
   -0.44685460094445389121E-14
   -0.63293051563431823976E-16
   -0.58299639768108647689E-14
    0.11179856504277935924E-13
    0.32181969441536739994E-14
    0.16239272731685927399E-15
    0.27061144276743490074E-14
    0.56186347228207901767E-14
    0.54489921951890006383E-14
    0.11555042329150017840E-13
   -0.45944259860653360689E-14
    0.16369433933933768414E-13
   -0.62045237056652639679E-14
    0.61297708744670158418E-15
   -0.49176548710562244612E-14
    0.81667291780379296058E-14
   -0.38953994635589604200E-14
   -0.56199789915356432272E-15
    0.12691502478235337076E-13
   -0.87321046488887355729E-14
    0.15378362470170027559E-13
    0.15026153745239274863E-13
    0.23275072563345385644E-13
   -0.21591888815944193249E-15
    0.89306198184967292910E-15
    0.38079197354092143039E-14
   -0.34973838482159228675E-15
   -0.54361799337118013097E-15
    0.29186494089333191593E-14
    0.52670607879465058185E-14
    0.47866713315175773725E-14
   -0.64633804837220836251E-14
    0.23309677662672739805E-14
    0.69600662647099123702E-14
    0.84253483631155444455E-14
    0.12991642939873543315E-13
   -0.12183455911656401732E-14
    0.67940809629557024373E-14
    0.57221727592884119140E-14
   -0.63260377104324473948E-14
    0.74108028566211169698E-14
   -0.17891560699171528661E-13
    0.94735488888167319978E-14
    0.20387276080300502506E-13
    0.67332027702446606041E-14
   -0.15376408881035909188E-14
   -0.77536675413512564879E-14
   -0.29131436735340238571E-14
   -0.21888666179278850827E-14
   -0.34484108903977986887E-14
    0.41056918948116944812E-14
    0.36277425718541871743E-14
    0.17257301941938793155E-13
    0.19510047443866009726E-14
    0.34937309191462780701E-14
    0.10258988731789077481E-13
    0.12769810180924884085E-13
    0.20545190084106297558E-14
   -0.10138136620427860127E-14
    0.58526955350800613362E-14
   -0.85628753899854581970E-14
   -0.14740131055923511345E-13
   -0.64499039760741921124E-14
   -0.20804516829888371903E-14
    0.15749798098536187342E-13
   -0.11359949083751850565E-13
    0.27875290927861927439E-14
    0.94113356808296643336E-14
    0.53028940012291933407E-14
    0.11044770086770426120E-13
   -0.69130069141386613704E-14
   -0.10564447489713566556E-13
   -0.56291820895430997633E-14
    0.72707880332421634153E-14
    0.82757518811538937474E-14
   -0.16556568990990214629E-13
    0.44489705832067819843E-14
   -0.85872224295233728950E-14
   -0.51746293729994861638E-14
   -0.10597314174288427212E-13
    0.66078279805538145723E-14
   -0.11976017515685407864E-13
    0.17636168100270266830E-13
    0.42738831432946745800E-14
   -0.66049667733056043885E-14
   -0.26950937065702153073E-14
   -0.99356240043350434891E-14
    0.34113304814917269679E-15
    0.36443494130619733187E-14
    0.93068776719785379971E-14
    0.74728562057019414504E-15
   -0.35204732655497279721E-15
   -0.54467007272967107442E-14
    0.15839327046970979123E-14
    0.10615317911677837999E-13
    0.13459647404885889478E-13
    0.13746815128868952226E-13
    0.11293840244176489642E-14
    0.50327111614890201951E-14
    0.71361210891714225945E-14
    0.69735737327890243894E-14
   -0.64385683329068438913E-14
   -0.88871973369816558844E-14
    0.64539398668735708143E-14
    0.10778784848778430259E-13
   -0.43182075283478508039E-14
   -0.98006221868567077367E-16
    0.95042760861576437208E-14
   -0.42630766794152217976E-14
    0.59718958159565946580E-14
   -0.77833087752550932383E-14
    0.85999864379584928547E-14