# vtk DataFile Version 3.0
LAPLACIEN  2D
ASCII
DATASET UNSTRUCTURED_GRID
FIELD FieldData 1
TIME 1 1 double
17.5000
 POINTS        7297  float
   1.5625000000000000E-002  0.96875000000000000        0.0000000000000000     
   3.1250000000000000E-002  0.96875000000000000        0.0000000000000000     
   3.1250000000000000E-002  0.98437500000000000        0.0000000000000000     
   9.3749999999999997E-003  0.97812500000000002        0.0000000000000000     
   2.0312500000000001E-002  0.97968750000000004        0.0000000000000000     
   2.1874999999999999E-002  0.99062499999999998        0.0000000000000000     
   1.0937499999999999E-002  0.98906249999999996        0.0000000000000000     
   4.6875000000000000E-002  0.96875000000000000        0.0000000000000000     
   6.2500000000000000E-002  0.96875000000000000        0.0000000000000000     
   6.2500000000000000E-002  0.98437500000000000        0.0000000000000000     
   4.0625000000000001E-002  0.97812500000000002        0.0000000000000000     
   5.1562499999999997E-002  0.97968750000000004        0.0000000000000000     
   5.3124999999999999E-002  0.99062499999999998        0.0000000000000000     
   4.2187500000000003E-002  0.98906249999999996        0.0000000000000000     
   1.5625000000000000E-002  0.93750000000000000        0.0000000000000000     
   3.1250000000000000E-002  0.93750000000000000        0.0000000000000000     
   3.1250000000000000E-002  0.95312500000000000        0.0000000000000000     
   9.3749999999999997E-003  0.94687500000000002        0.0000000000000000     
   2.0312500000000001E-002  0.94843750000000004        0.0000000000000000     
   2.1874999999999999E-002  0.95937499999999998        0.0000000000000000     
   1.0937499999999999E-002  0.95781249999999996        0.0000000000000000     
   4.6875000000000000E-002  0.93750000000000000        0.0000000000000000     
   6.2500000000000000E-002  0.93750000000000000        0.0000000000000000     
   6.2500000000000000E-002  0.95312500000000000        0.0000000000000000     
   4.0625000000000001E-002  0.94687500000000002        0.0000000000000000     
   5.1562499999999997E-002  0.94843750000000004        0.0000000000000000     
   5.3124999999999999E-002  0.95937499999999998        0.0000000000000000     
   4.2187500000000003E-002  0.95781249999999996        0.0000000000000000     
   7.8125000000000000E-002  0.96875000000000000        0.0000000000000000     
   9.3750000000000000E-002  0.96875000000000000        0.0000000000000000     
   9.3750000000000000E-002  0.98437500000000000        0.0000000000000000     
   7.1874999999999994E-002  0.97812500000000002        0.0000000000000000     
   8.2812499999999997E-002  0.97968750000000004        0.0000000000000000     
   8.4375000000000006E-002  0.99062499999999998        0.0000000000000000     
   7.3437500000000003E-002  0.98906249999999996        0.0000000000000000     
  0.10937500000000000       0.96875000000000000        0.0000000000000000     
  0.12500000000000000       0.96875000000000000        0.0000000000000000     
  0.12500000000000000       0.98437500000000000        0.0000000000000000     
  0.10312499999999999       0.97812500000000002        0.0000000000000000     
  0.11406250000000000       0.97968750000000004        0.0000000000000000     
  0.11562500000000001       0.99062499999999998        0.0000000000000000     
  0.10468750000000000       0.98906249999999996        0.0000000000000000     
   7.8125000000000000E-002  0.93750000000000000        0.0000000000000000     
   9.3750000000000000E-002  0.93750000000000000        0.0000000000000000     
   9.3750000000000000E-002  0.95312500000000000        0.0000000000000000     
   7.1874999999999994E-002  0.94687500000000002        0.0000000000000000     
   8.2812499999999997E-002  0.94843750000000004        0.0000000000000000     
   8.4375000000000006E-002  0.95937499999999998        0.0000000000000000     
   7.3437500000000003E-002  0.95781249999999996        0.0000000000000000     
  0.10937500000000000       0.93750000000000000        0.0000000000000000     
  0.12500000000000000       0.93750000000000000        0.0000000000000000     
  0.12500000000000000       0.95312500000000000        0.0000000000000000     
  0.10312499999999999       0.94687500000000002        0.0000000000000000     
  0.11406250000000000       0.94843750000000004        0.0000000000000000     
  0.11562500000000001       0.95937499999999998        0.0000000000000000     
  0.10468750000000000       0.95781249999999996        0.0000000000000000     
   1.5625000000000000E-002  0.90625000000000000        0.0000000000000000     
   3.1250000000000000E-002  0.90625000000000000        0.0000000000000000     
   3.1250000000000000E-002  0.92187500000000000        0.0000000000000000     
   9.3749999999999997E-003  0.91562500000000002        0.0000000000000000     
   2.0312500000000001E-002  0.91718750000000004        0.0000000000000000     
   2.1874999999999999E-002  0.92812499999999998        0.0000000000000000     
   1.0937499999999999E-002  0.92656249999999996        0.0000000000000000     
   4.6875000000000000E-002  0.90625000000000000        0.0000000000000000     
   6.2500000000000000E-002  0.90625000000000000        0.0000000000000000     
   6.2500000000000000E-002  0.92187500000000000        0.0000000000000000     
   4.0625000000000001E-002  0.91562500000000002        0.0000000000000000     
   5.1562499999999997E-002  0.91718750000000004        0.0000000000000000     
   5.3124999999999999E-002  0.92812499999999998        0.0000000000000000     
   4.2187500000000003E-002  0.92656249999999996        0.0000000000000000     
   1.5625000000000000E-002  0.87500000000000000        0.0000000000000000     
   3.1250000000000000E-002  0.87500000000000000        0.0000000000000000     
   3.1250000000000000E-002  0.89062500000000000        0.0000000000000000     
   9.3749999999999997E-003  0.88437500000000002        0.0000000000000000     
   2.0312500000000001E-002  0.88593750000000004        0.0000000000000000     
   2.1874999999999999E-002  0.89687499999999998        0.0000000000000000     
   1.0937499999999999E-002  0.89531249999999996        0.0000000000000000     
   4.6875000000000000E-002  0.87500000000000000        0.0000000000000000     
   6.2500000000000000E-002  0.87500000000000000        0.0000000000000000     
   6.2500000000000000E-002  0.89062500000000000        0.0000000000000000     
   4.0625000000000001E-002  0.88437500000000002        0.0000000000000000     
   5.1562499999999997E-002  0.88593750000000004        0.0000000000000000     
   5.3124999999999999E-002  0.89687499999999998        0.0000000000000000     
   4.2187500000000003E-002  0.89531249999999996        0.0000000000000000     
   7.8125000000000000E-002  0.90625000000000000        0.0000000000000000     
   9.3750000000000000E-002  0.90625000000000000        0.0000000000000000     
   9.3750000000000000E-002  0.92187500000000000        0.0000000000000000     
   7.1874999999999994E-002  0.91562500000000002        0.0000000000000000     
   8.2812499999999997E-002  0.91718750000000004        0.0000000000000000     
   8.4375000000000006E-002  0.92812499999999998        0.0000000000000000     
   7.3437500000000003E-002  0.92656249999999996        0.0000000000000000     
  0.10937500000000000       0.90625000000000000        0.0000000000000000     
  0.12500000000000000       0.90625000000000000        0.0000000000000000     
  0.12500000000000000       0.92187500000000000        0.0000000000000000     
  0.10312499999999999       0.91562500000000002        0.0000000000000000     
  0.11406250000000000       0.91718750000000004        0.0000000000000000     
  0.11562500000000001       0.92812499999999998        0.0000000000000000     
  0.10468750000000000       0.92656249999999996        0.0000000000000000     
   7.8125000000000000E-002  0.87500000000000000        0.0000000000000000     
   9.3750000000000000E-002  0.87500000000000000        0.0000000000000000     
   9.3750000000000000E-002  0.89062500000000000        0.0000000000000000     
   7.1874999999999994E-002  0.88437500000000002        0.0000000000000000     
   8.2812499999999997E-002  0.88593750000000004        0.0000000000000000     
   8.4375000000000006E-002  0.89687499999999998        0.0000000000000000     
   7.3437500000000003E-002  0.89531249999999996        0.0000000000000000     
  0.10937500000000000       0.87500000000000000        0.0000000000000000     
  0.12500000000000000       0.87500000000000000        0.0000000000000000     
  0.12500000000000000       0.89062500000000000        0.0000000000000000     
  0.10312499999999999       0.88437500000000002        0.0000000000000000     
  0.11406250000000000       0.88593750000000004        0.0000000000000000     
  0.11562500000000001       0.89687499999999998        0.0000000000000000     
  0.10468750000000000       0.89531249999999996        0.0000000000000000     
  0.14062500000000000       0.96875000000000000        0.0000000000000000     
  0.15625000000000000       0.96875000000000000        0.0000000000000000     
  0.15625000000000000       0.98437500000000000        0.0000000000000000     
  0.13437499999999999       0.97812500000000002        0.0000000000000000     
  0.14531250000000001       0.97968750000000004        0.0000000000000000     
  0.14687500000000001       0.99062499999999998        0.0000000000000000     
  0.13593749999999999       0.98906249999999996        0.0000000000000000     
  0.17187500000000000       0.96875000000000000        0.0000000000000000     
  0.18750000000000000       0.96875000000000000        0.0000000000000000     
  0.18750000000000000       0.98437500000000000        0.0000000000000000     
  0.16562499999999999       0.97812500000000002        0.0000000000000000     
  0.17656250000000001       0.97968750000000004        0.0000000000000000     
[...]
 CELL_DATA       14336
 SCALARS Tumor_cells float
 LOOKUP_TABLE default
    0.58935736964791429759E-01
    0.58935736488322149063E-01
    0.58935740273228176545E-01
    0.58935740273227205099E-01
    0.58935736488325972393E-01
    0.58935736964788099090E-01
    0.58935733968478516698E-01
    0.58935732193419305969E-01
    0.58935730275433535763E-01
    0.58935730275411865597E-01
    0.58935732193430401260E-01
    0.58935733968473930089E-01
    0.58935733692161207387E-01
    0.58935733692157397934E-01
    0.58935749427208528051E-01
    0.58935752748066151663E-01
    0.58935761766273374318E-01
    0.58935764265192418232E-01
    0.58935757499890231714E-01
    0.58935760736941872340E-01
    0.58935753648980918062E-01
    0.58935747760373739801E-01
    0.58935741540991945508E-01
    0.58935739325705768787E-01
    0.58935743189490200078E-01
    0.58935742715616308562E-01
    0.58935748785493714819E-01
    0.58935750113544418949E-01
    0.58935760736942788274E-01
    0.58935757499889940281E-01
    0.58935764265192924771E-01
    0.58935761766273360440E-01
    0.58935752748067185558E-01
    0.58935749427207445583E-01
    0.58935742715618674725E-01
    0.58935743189487993510E-01
    0.58935739325708787206E-01
    0.58935741540989267095E-01
    0.58935747760375398197E-01
    0.58935753648980647446E-01
    0.58935750113545154472E-01
    0.58935748785493700941E-01
    0.58935777499608855978E-01
    0.58935778957596281213E-01
    0.58935793089511398501E-01
    0.58935793089511266662E-01
    0.58935778957596503258E-01
    0.58935777499608328622E-01
    0.58935764983466872036E-01
    0.58935761419792259685E-01
    0.58935752122780106499E-01
    0.58935752122779030970E-01
    0.58935761419793002147E-01
    0.58935764983466573663E-01
    0.58935769096657979194E-01
    0.58935769096657611432E-01
    0.58935782786557838753E-01
    0.58935791790407698887E-01
    0.58935809435404842849E-01
    0.58935816013638842037E-01
    0.58935804337377509232E-01
    0.58935812239330580276E-01
    0.58935798295420796511E-01
    0.58935785362627980677E-01
    0.58935771994699702458E-01
    0.58935766349440366074E-01
    0.58935773478167856332E-01
    0.58935770050852646917E-01
    0.58935785631930713568E-01
    0.58935789187300108294E-01
    0.58935849710350630970E-01
    0.58935867910157431482E-01
    0.58935899171487379777E-01
    0.58935911892217557329E-01
    0.58935892152785961107E-01
    0.58935906800380660764E-01
    0.58935882081489428252E-01
    0.58935858589364453763E-01
    0.58935834177525563138E-01
    0.58935823091984494704E-01
    0.58935835626411858801E-01
    0.58935827342556611208E-01
    0.58935858114396902363E-01
    0.58935865025511152693E-01
    0.58935821330055787604E-01
    0.58935828376564955433E-01
    0.58935853212970297499E-01
    0.58935856528141775112E-01
    0.58935834443099771596E-01
    0.58935835708109347852E-01
    0.58935813936084810449E-01
    0.58935804329994893880E-01
    0.58935786536782261424E-01
    0.58935783858339765851E-01
    0.58935798758260070362E-01
    0.58935800426553289211E-01
    0.58935814065551907215E-01
    0.58935815767953377009E-01
    0.58935904492677611277E-01
    0.58935920747059902802E-01
    0.58935963596046976598E-01
    0.58935972477051297436E-01
    0.58935937049712769364E-01
    0.58935942712148921274E-01
    0.58935905879511675531E-01
    0.58935886495188133383E-01
    0.58935855034451943568E-01
    0.58935847912856054176E-01
    0.58935871566041297953E-01
    0.58935870230773887424E-01
    0.58935899256808796376E-01
    0.58935903825275172407E-01
    0.58935812239331586415E-01
    0.58935804337378119855E-01
    0.58935816013639674704E-01
    0.58935809435405488166E-01
    0.58935791790408489921E-01
    0.58935782786557998347E-01
    0.58935770050853507340E-01
    0.58935773478168002049E-01
    0.58935766349441282008E-01
    0.58935771994699848175E-01
    0.58935785362628785589E-01
    0.58935798295421532034E-01
    0.58935789187301065861E-01
    0.58935785631931032758E-01
    0.58935835708110152764E-01
    0.58935834443100319768E-01
    0.58935856528142357980E-01
    0.58935853212970720771E-01
    0.58935828376565295439E-01
    0.58935821330055836176E-01
    0.58935800426553552889E-01
    0.58935798758260063424E-01
    0.58935783858340334840E-01
    0.58935786536782427958E-01
    0.58935804329995566953E-01
    0.58935813936085365561E-01
    0.58935815767953661504E-01
    0.58935814065552455387E-01
    0.58935906800382416304E-01
    0.58935892152787522358E-01
    0.58935911892219167152E-01
    0.58935899171488788373E-01
    0.58935867910158680483E-01
    0.58935849710351574660E-01
    0.58935827342557575714E-01
    0.58935835626412851063E-01
    0.58935823091985577171E-01
    0.58935834177526666422E-01
    0.58935858589365897053E-01
    0.58935882081491024198E-01
    0.58935865025512457205E-01
    0.58935858114398248508E-01
    0.58935942712150433953E-01
    0.58935937049714025304E-01
    0.58935972477052685214E-01
    0.58935963596048190904E-01
    0.58935920747060971392E-01
    0.58935904492678339861E-01
    0.58935870230774560496E-01
    0.58935871566042165315E-01
    0.58935847912856949293E-01
    0.58935855034452908074E-01
    0.58935886495189278300E-01
    0.58935905879513035555E-01
    0.58935903825276497736E-01
    0.58935899256809649860E-01
    0.58935896912692048444E-01
    0.58935902394117868630E-01
    0.58935939284335367438E-01
    0.58935939284335242538E-01
    0.58935902394117799241E-01
    0.58935896912691652927E-01
    0.58935863307547763090E-01
    0.58935855523383762211E-01
    0.58935829754180484030E-01
    0.58935829754180490969E-01
    0.58935855523383942622E-01
    0.58935863307548096157E-01
    0.58935876818660574983E-01
    0.58935876818660311305E-01
    0.58936010959806287013E-01
    0.58936027234067045466E-01
    0.58936089449966540255E-01
    0.58936095267005134124E-01
    0.58936037353353003254E-01
    0.58936034294323876026E-01
    0.58935978536227971725E-01
    0.58935960519749468201E-01
    0.58935916439788217647E-01
    0.58935912503067226786E-01
    0.58935951837306183032E-01
    0.58935957780663170147E-01
    0.58935989549499891160E-01
    0.58935992302498393935E-01
    0.58936034294325145844E-01
    0.58936037353354037149E-01
    0.58936095267006126386E-01
    0.58936089449967310472E-01
    0.58936027234067593639E-01
    0.58936010959806564569E-01
    0.58935957780663364436E-01
    0.58935951837306585488E-01
    0.58935912503067740265E-01
    0.58935916439788862964E-01
    0.58935960519750384135E-01
    0.58935978536229116642E-01
    0.58935992302499025375E-01
    0.58935989549500709950E-01
    0.58936201286956244050E-01
    0.58936216733987592531E-01
    0.58936310637904984477E-01
    0.58936310637904811005E-01
    0.58936216733987335792E-01
    0.58936201286955536283E-01
    0.58936116001726816804E-01
    0.58936097650030057349E-01
    0.58936032623461517832E-01
    0.58936032623461642732E-01
    0.58936097650030341843E-01
    0.58936116001727496816E-01
    0.58936152054165302783E-01
    0.58936152054165087677E-01
    0.58935970162648509962E-01
    0.58936002970083188612E-01
    0.58936057262176724802E-01
    0.58936080089088349609E-01
    0.58936046295273693263E-01
    0.58936072213588042157E-01
    0.58936029447218110655E-01
    0.58935988282527086712E-01
    0.58935945683716566001E-01
    0.58935925991790878709E-01
    0.58935947419362512412E-01
    0.58935931959277640391E-01
    0.58935986724757791211E-01
    0.58935999051091883527E-01
    0.58936181577216889549E-01
    0.58936239029159780134E-01
    0.58936333684691075141E-01
    0.58936373139280615052E-01
    0.58936314025500098623E-01
    0.58936358198631466632E-01
    0.58936284467900050543E-01
    0.58936213481345534060E-01
    0.58936139675192733556E-01
    0.58936105527898276224E-01
    0.58936142513591034675E-01
    0.58936115211028802796E-01
    0.58936210840923632104E-01
    0.58936232223688732323E-01
    0.58936054579187706348E-01
    0.58936086501955663175E-01
    0.58936161040427439972E-01
    0.58936179367924661221E-01
    0.58936119680889992312E-01
    0.58936131931108755311E-01
    0.58936068285493942165E-01
    0.58936033045597191471E-01
    0.58935978468429274513E-01
    0.58935964438653655473E-01
    0.58936003216335998423E-01
    0.58935997046529402243E-01
    0.58936052019026359539E-01
    0.58936061241851682435E-01
    0.58936322276338194703E-01
    0.58936381332842034675E-01
    0.58936512481790631623E-01
    0.58936546297141803596E-01
    0.58936442096805000124E-01
    0.58936464018286408018E-01
    0.58936352947550924020E-01
    0.58936290853458785099E-01
    0.58936195673060826072E-01
    0.58936170224474580814E-01
    0.58936236560793810180E-01
    0.58936223029406882568E-01
    0.58936322433135283905E-01
    0.58936339273206218847E-01
    0.58936549250690778434E-01
    0.58936647042612956560E-01
    0.58936810100104090882E-01
    0.58936874992810833751E-01
    0.58936771795276315933E-01
    0.58936844013198499970E-01
    0.58936719179249148770E-01
    0.58936599423377665496E-01
    0.58936473720551538213E-01
    0.58936415472260812731E-01
    0.58936479750341740080E-01
    0.58936433832617103612E-01
    0.58936596801359396325E-01
    0.58936632596683274921E-01
    0.58937177774425690557E-01
    0.58937336983376192867E-01
    0.58937613094704646710E-01
    0.58937713259421015133E-01
    0.58937534228700252936E-01
    0.58937645758856890832E-01
    0.58937440598172713413E-01
    0.58937245012175336345E-01
    0.58937036037901083252E-01
    0.58936939956707110055E-01
    0.58937050728021717072E-01
    0.58936977808107082755E-01
    0.58937246544026107575E-01
    0.58937303882476171912E-01
    0.58936799071471430989E-01
    0.58936903672610820026E-01
    0.58937136474617138338E-01
    0.58937193980034927043E-01
    0.58937006919196475996E-01
    0.58937039897284104750E-01
    0.58936845467079369831E-01
    0.58936740325172411181E-01
    0.58936574442881105307E-01
    0.58936530860733374326E-01
    0.58936647585316449816E-01
    0.58936623655083425488E-01
    0.58936798505179230356E-01
    0.58936827208060149630E-01
    0.58937643324229106734E-01
    0.58937819887606657243E-01
    0.58938231429982779197E-01
    0.58938319402452810092E-01
    0.58937980102050209485E-01
    0.58938018103939039671E-01
    0.58937680006172249447E-01
    0.58937510835270101595E-01
    0.58937224860166823048E-01
    0.58937154784869792701E-01
    0.58937364025921326616E-01
    0.58937329670043551999E-01
    0.58937625867699489079E-01
    0.58937670828799283707E-01
    0.58936215255419047154E-01
    0.58936250621448305065E-01
    0.58936357228603478142E-01
    0.58936373662180484290E-01
    0.58936278603918021424E-01
    0.58936279921686110517E-01
    0.58936184730607930893E-01
    0.58936148824308039196E-01
    0.58936072828157069770E-01
    0.58936062255602522653E-01
    0.58936125376327419545E-01
    0.58936128305786900095E-01
    0.58936191661695273847E-01
    0.58936199179685018479E-01
    0.58936580433392622702E-01
    0.58936651315092521142E-01
    0.58936839474860523713E-01
    0.58936875798272433946E-01
    0.58936712022566679903E-01
    0.58936720050057116171E-01
    0.58936552884874947311E-01
    0.58936485806946110888E-01
    0.58936352166040470446E-01
    0.58936329954208534210E-01
    0.58936435911411379218E-01
    0.58936432862819430889E-01
    0.58936554077514316519E-01
    0.58936570267220649011E-01
    0.58936491187760231547E-01
    0.58936530407956856659E-01
    0.58936686170247450101E-01
    0.58936699050204599537E-01
    0.58936551498645940728E-01
    0.58936539544139812663E-01
    0.58936397778828794602E-01
    0.58936357130065258891E-01
    0.58936247214331702327E-01
    0.58936239810126439531E-01
    0.58936340206092736882E-01
    0.58936357071762049409E-01
    0.58936434066913526153E-01
    0.58936439628994786999E-01
    0.58936999847599320923E-01
    0.58937087257401585272E-01
    0.58937356130706837487E-01
    0.58937397741498059878E-01
    0.58937153729981990591E-01
    0.58937151431333996421E-01
    0.58936905409460699223E-01
    0.58936821950449504171E-01
    0.58936630454188225492E-01
    0.58936608496522387146E-01
    0.58936770430502299911E-01
    0.58936781196987031439E-01
    0.58936936419237924423E-01
    0.58936953688733820234E-01
    0.58937243540034427169E-01
    0.58937379225897638946E-01
    0.58937719310997421784E-01
    0.58937789366305996797E-01
    0.58937494908423905537E-01
    0.58937509282546367284E-01
    0.58937209609261478893E-01
    0.58937089684908135212E-01
    0.58936851456626825063E-01
    0.58936809839383590137E-01
    0.58936995499245595220E-01
    0.58936983165530407169E-01
    0.58937208435128132789E-01
    0.58937239155882177599E-01
    0.58938458559315481944E-01
    0.58938706352661608678E-01
    0.58939328894004973380E-01
    0.58939449082408841563E-01
    0.58938903862560142188E-01
    0.58938911585735713483E-01
    0.58938369813744194425E-01
    0.58938166921439341661E-01
    0.58937740384790313075E-01
    0.58937669802999470559E-01
    0.58938006765572981127E-01
    0.58937985114581599444E-01
    0.58938391458124246569E-01
    0.58938443832066880756E-01
    0.58937924199092064925E-01
    0.58938109129814619802E-01
    0.58938595516775056649E-01
    0.58938694150122081239E-01
    0.58938265016193265577E-01
    0.58938278713647339335E-01
    0.58937834678893893936E-01
    0.58937672331554967486E-01
    0.58937327411304252234E-01
    0.58937277621476442946E-01
    0.58937553523840641168E-01
    0.58937548222266489262E-01
    0.58937857189704331851E-01
    0.58937897416741567846E-01
    0.58939657072010431804E-01
    0.58940027805438388597E-01
    0.58940936752475261984E-01
    0.58941136631629489906E-01
    0.58940340725719846116E-01
    0.58940366784082147411E-01
    0.58939544386969855427E-01
    0.58939244439493838901E-01
    0.58938609929507002061E-01
    0.58938512267438021575E-01
    0.58939009077427509387E-01
    0.58938976289093177041E-01
    0.58939574842473335670E-01
    0.58939655162770700214E-01
    0.58936072213591109148E-01
    0.58936046295276468820E-01
    0.58936080089091298639E-01
    0.58936057262179403216E-01
    0.58936002970085554775E-01
    0.58935970162650473669E-01
    0.58935931959279416747E-01
    0.58935947419364517752E-01
    0.58935925991792800782E-01
    0.58935945683718668486E-01
    0.58935988282529529203E-01
    0.58936029447220941724E-01
    0.58935999051094423162E-01
    0.58935986724760025535E-01
    0.58936131931111641891E-01
    0.58936119680892656847E-01
    0.58936179367927471473E-01
    0.58936161040430000424E-01
    0.58936086501957814232E-01
    0.58936054579189475766E-01
    0.58935997046530942678E-01
    0.58936003216337788657E-01
    0.58935964438655369380E-01
    0.58935978468431196586E-01
    0.58936033045599481306E-01
    0.58936068285496572006E-01
    0.58936061241853944515E-01
    0.58936052019028586924E-01
    0.58936358198636497330E-01
    0.58936314025504775438E-01
    0.58936373139285465339E-01
    0.58936333684695606239E-01
    0.58936239029163776937E-01
    0.58936181577220379812E-01
    0.58936115211031953054E-01
    0.58936142513594531878E-01
    0.58936105527901572199E-01
    0.58936139675196314025E-01
    0.58936213481349628007E-01
    0.58936284467904748174E-01
    0.58936232223692867904E-01
    0.58936210840927601151E-01
    0.58936464018291445655E-01
    0.58936442096809718572E-01
    0.58936546297146882867E-01
    0.58936512481795398644E-01
    0.58936381332846128622E-01
    0.58936322276341719661E-01
    0.58936223029409970375E-01
    0.58936236560797210238E-01
    0.58936170224477772706E-01
    0.58936195673064295519E-01
    0.58936290853462844352E-01
    0.58936352947555475934E-01
    0.58936339273210361367E-01
    0.58936322433139225196E-01
    0.58936279921688934647E-01
    0.58936278603920477792E-01
    0.58936373662183093314E-01
    0.58936357228605740222E-01
    0.58936250621450241016E-01
    0.58936215255420490444E-01
    0.58936128305788086645E-01
    0.58936125376328959979E-01
    0.58936062255603993698E-01
    0.58936072828158818371E-01
    0.58936148824310127803E-01
    0.58936184730610498284E-01
    0.58936199179687190353E-01
    0.58936191661697084898E-01
    0.58936539544142269031E-01
    0.58936551498647911373E-01
    0.58936699050206611816E-01
    0.58936686170248983596E-01
    0.58936530407957980759E-01
    0.58936491187760765842E-01
    0.58936357071762354720E-01
    0.58936340206093590366E-01
    0.58936239810127376282E-01
    0.58936247214333013777E-01
    0.58936357130066938104E-01
    0.58936397778831042804E-01
    0.58936439628996216411E-01
    0.58936434066914844543E-01
    0.58936720050062507692E-01
    0.58936712022571689784E-01
    0.58936875798277929550E-01
    0.58936839474865575228E-01
    0.58936651315096733050E-01
    0.58936580433396147660E-01
    0.58936432862822352163E-01
    0.58936435911414765398E-01
    0.58936329954211698345E-01
    0.58936352166043995404E-01
    0.58936485806950315858E-01
    0.58936552884879811476E-01
    0.58936570267224958064E-01
    0.58936554077518368833E-01
    0.58937151431339630803E-01
    0.58937153729986993533E-01
    0.58937397741503430582E-01
    0.58937356130711569813E-01
    0.58937087257405450236E-01
    0.58936999847602256075E-01
    0.58936781196989383724E-01
    0.58936770430505353024E-01
    0.58936608496525266787E-01
    0.58936630454191653306E-01
    0.58936821950453674446E-01
    0.58936905409465806249E-01
    0.58936953688738004387E-01
    0.58936936419241678364E-01
    0.58936844013206604598E-01
    0.58936771795283934838E-01
    0.58936874992818834296E-01
    0.58936810100111619581E-01
    0.58936647042619590142E-01
    0.58936549250696655677E-01
    0.58936433832622328599E-01
    0.58936479750347450790E-01
    0.58936415472266266702E-01
    0.58936473720557422395E-01
    0.58936599423384437857E-01
    0.58936719179256788492E-01
    0.58936632596690019525E-01
    0.58936596801365974396E-01
    0.58937039897292542445E-01
    0.58937006919204532052E-01
    0.58937193980043774133E-01
    0.58937136474625541338E-01
    0.58936903672618036476E-01
    0.58936799071477766199E-01
    0.58936623655088900275E-01
    0.58936647585322410325E-01
    0.58936530860738869930E-01
    0.58936574442887024183E-01
    0.58936740325179259870E-01
    0.58936845467086954042E-01
    0.58936827208067324446E-01
    0.58936798505186085984E-01
    0.58937645758869873502E-01
    0.58937534228712507023E-01
    0.58937713259434115765E-01
    0.58937613094717004880E-01
    0.58937336983387031419E-01
    0.58937177774435391131E-01
    0.58936977808115645350E-01
    0.58937050728031008251E-01
    0.58936939956715880817E-01
    0.58937036037910540964E-01
    0.58937245012186167958E-01
    0.58937440598184946683E-01
    0.58937303882487086792E-01
    0.58937246544036654694E-01
    0.58938018103953000726E-01
    0.58937980102063892984E-01
    0.58938319402468124231E-01
    0.58938231429997468835E-01
    0.58937819887619112558E-01
    0.58937643324240222842E-01
    0.58937329670053023589E-01
    0.58937364025931450462E-01
    0.58937154784878972857E-01
    0.58937224860176669339E-01
    0.58937510835281529953E-01
    0.58937680006184788029E-01
    0.58937670828811315749E-01
    0.58937625867711139482E-01
    0.58937509282556088674E-01
    0.58937494908433217533E-01
    0.58937789366316349626E-01
    0.58937719311007198686E-01
    0.58937379225905875413E-01
    0.58937243540041671375E-01
    0.58936983165536423190E-01
    0.58936995499252180231E-01
    0.58936809839389550647E-01
    0.58936851456633278235E-01
    0.58937089684915844323E-01
    0.58937209609270173327E-01
    0.58937239155890254472E-01
    0.58937208435135883533E-01
    0.58938278713658677488E-01
    0.58938265016203771063E-01
    0.58938694150133703886E-01
    0.58938595516785693973E-01
    0.58938109129823439136E-01
    0.58937924199099420153E-01
    0.58937548222272512222E-01
    0.58937553523847607817E-01
    0.58937277621482840606E-01
    0.58937327411311447867E-01
    0.58937672331563613348E-01
    0.58937834678903927577E-01