# vtk DataFile Version 3.0
LAPLACIEN  2D
ASCII
DATASET UNSTRUCTURED_GRID
FIELD FieldData 1
TIME 1 1 double
15.3000
 POINTS        7297  float
   1.5625000000000000E-002  0.96875000000000000        0.0000000000000000     
   3.1250000000000000E-002  0.96875000000000000        0.0000000000000000     
   3.1250000000000000E-002  0.98437500000000000        0.0000000000000000     
   9.3749999999999997E-003  0.97812500000000002        0.0000000000000000     
   2.0312500000000001E-002  0.97968750000000004        0.0000000000000000     
   2.1874999999999999E-002  0.99062499999999998        0.0000000000000000     
   1.0937499999999999E-002  0.98906249999999996        0.0000000000000000     
   4.6875000000000000E-002  0.96875000000000000        0.0000000000000000     
   6.2500000000000000E-002  0.96875000000000000        0.0000000000000000     
   6.2500000000000000E-002  0.98437500000000000        0.0000000000000000     
   4.0625000000000001E-002  0.97812500000000002        0.0000000000000000     
   5.1562499999999997E-002  0.97968750000000004        0.0000000000000000     
   5.3124999999999999E-002  0.99062499999999998        0.0000000000000000     
   4.2187500000000003E-002  0.98906249999999996        0.0000000000000000     
   1.5625000000000000E-002  0.93750000000000000        0.0000000000000000     
   3.1250000000000000E-002  0.93750000000000000        0.0000000000000000     
   3.1250000000000000E-002  0.95312500000000000        0.0000000000000000     
   9.3749999999999997E-003  0.94687500000000002        0.0000000000000000     
   2.0312500000000001E-002  0.94843750000000004        0.0000000000000000     
   2.1874999999999999E-002  0.95937499999999998        0.0000000000000000     
   1.0937499999999999E-002  0.95781249999999996        0.0000000000000000     
   4.6875000000000000E-002  0.93750000000000000        0.0000000000000000     
   6.2500000000000000E-002  0.93750000000000000        0.0000000000000000     
   6.2500000000000000E-002  0.95312500000000000        0.0000000000000000     
   4.0625000000000001E-002  0.94687500000000002        0.0000000000000000     
   5.1562499999999997E-002  0.94843750000000004        0.0000000000000000     
   5.3124999999999999E-002  0.95937499999999998        0.0000000000000000     
   4.2187500000000003E-002  0.95781249999999996        0.0000000000000000     
   7.8125000000000000E-002  0.96875000000000000        0.0000000000000000     
   9.3750000000000000E-002  0.96875000000000000        0.0000000000000000     
   9.3750000000000000E-002  0.98437500000000000        0.0000000000000000     
   7.1874999999999994E-002  0.97812500000000002        0.0000000000000000     
   8.2812499999999997E-002  0.97968750000000004        0.0000000000000000     
   8.4375000000000006E-002  0.99062499999999998        0.0000000000000000     
   7.3437500000000003E-002  0.98906249999999996        0.0000000000000000     
  0.10937500000000000       0.96875000000000000        0.0000000000000000     
  0.12500000000000000       0.96875000000000000        0.0000000000000000     
  0.12500000000000000       0.98437500000000000        0.0000000000000000     
  0.10312499999999999       0.97812500000000002        0.0000000000000000     
  0.11406250000000000       0.97968750000000004        0.0000000000000000     
  0.11562500000000001       0.99062499999999998        0.0000000000000000     
  0.10468750000000000       0.98906249999999996        0.0000000000000000     
   7.8125000000000000E-002  0.93750000000000000        0.0000000000000000     
   9.3750000000000000E-002  0.93750000000000000        0.0000000000000000     
   9.3750000000000000E-002  0.95312500000000000        0.0000000000000000     
   7.1874999999999994E-002  0.94687500000000002        0.0000000000000000     
   8.2812499999999997E-002  0.94843750000000004        0.0000000000000000     
   8.4375000000000006E-002  0.95937499999999998        0.0000000000000000     
   7.3437500000000003E-002  0.95781249999999996        0.0000000000000000     
  0.10937500000000000       0.93750000000000000        0.0000000000000000     
  0.12500000000000000       0.93750000000000000        0.0000000000000000     
  0.12500000000000000       0.95312500000000000        0.0000000000000000     
  0.10312499999999999       0.94687500000000002        0.0000000000000000     
  0.11406250000000000       0.94843750000000004        0.0000000000000000     
  0.11562500000000001       0.95937499999999998        0.0000000000000000     
  0.10468750000000000       0.95781249999999996        0.0000000000000000     
   1.5625000000000000E-002  0.90625000000000000        0.0000000000000000     
   3.1250000000000000E-002  0.90625000000000000        0.0000000000000000     
   3.1250000000000000E-002  0.92187500000000000        0.0000000000000000     
   9.3749999999999997E-003  0.91562500000000002        0.0000000000000000     
   2.0312500000000001E-002  0.91718750000000004        0.0000000000000000     
   2.1874999999999999E-002  0.92812499999999998        0.0000000000000000     
   1.0937499999999999E-002  0.92656249999999996        0.0000000000000000     
   4.6875000000000000E-002  0.90625000000000000        0.0000000000000000     
   6.2500000000000000E-002  0.90625000000000000        0.0000000000000000     
   6.2500000000000000E-002  0.92187500000000000        0.0000000000000000     
   4.0625000000000001E-002  0.91562500000000002        0.0000000000000000     
   5.1562499999999997E-002  0.91718750000000004        0.0000000000000000     
   5.3124999999999999E-002  0.92812499999999998        0.0000000000000000     
   4.2187500000000003E-002  0.92656249999999996        0.0000000000000000     
   1.5625000000000000E-002  0.87500000000000000        0.0000000000000000     
   3.1250000000000000E-002  0.87500000000000000        0.0000000000000000     
   3.1250000000000000E-002  0.89062500000000000        0.0000000000000000     
   9.3749999999999997E-003  0.88437500000000002        0.0000000000000000     
   2.0312500000000001E-002  0.88593750000000004        0.0000000000000000     
   2.1874999999999999E-002  0.89687499999999998        0.0000000000000000     
   1.0937499999999999E-002  0.89531249999999996        0.0000000000000000     
   4.6875000000000000E-002  0.87500000000000000        0.0000000000000000     
   6.2500000000000000E-002  0.87500000000000000        0.0000000000000000     
   6.2500000000000000E-002  0.89062500000000000        0.0000000000000000     
   4.0625000000000001E-002  0.88437500000000002        0.0000000000000000     
   5.1562499999999997E-002  0.88593750000000004        0.0000000000000000     
   5.3124999999999999E-002  0.89687499999999998        0.0000000000000000     
   4.2187500000000003E-002  0.89531249999999996        0.0000000000000000     
   7.8125000000000000E-002  0.90625000000000000        0.0000000000000000     
   9.3750000000000000E-002  0.90625000000000000        0.0000000000000000     
   9.3750000000000000E-002  0.92187500000000000        0.0000000000000000     
   7.1874999999999994E-002  0.91562500000000002        0.0000000000000000     
   8.2812499999999997E-002  0.91718750000000004        0.0000000000000000     
   8.4375000000000006E-002  0.92812499999999998        0.0000000000000000     
   7.3437500000000003E-002  0.92656249999999996        0.0000000000000000     
  0.10937500000000000       0.90625000000000000        0.0000000000000000     
  0.12500000000000000       0.90625000000000000        0.0000000000000000     
  0.12500000000000000       0.92187500000000000        0.0000000000000000     
  0.10312499999999999       0.91562500000000002        0.0000000000000000     
  0.11406250000000000       0.91718750000000004        0.0000000000000000     
  0.11562500000000001       0.92812499999999998        0.0000000000000000     
  0.10468750000000000       0.92656249999999996        0.0000000000000000     
   7.8125000000000000E-002  0.87500000000000000        0.0000000000000000     
   9.3750000000000000E-002  0.87500000000000000        0.0000000000000000     
   9.3750000000000000E-002  0.89062500000000000        0.0000000000000000     
   7.1874999999999994E-002  0.88437500000000002        0.0000000000000000     
   8.2812499999999997E-002  0.88593750000000004        0.0000000000000000     
   8.4375000000000006E-002  0.89687499999999998        0.0000000000000000     
   7.3437500000000003E-002  0.89531249999999996        0.0000000000000000     
  0.10937500000000000       0.87500000000000000        0.0000000000000000     
  0.12500000000000000       0.87500000000000000        0.0000000000000000     
  0.12500000000000000       0.89062500000000000        0.0000000000000000     
  0.10312499999999999       0.88437500000000002        0.0000000000000000     
  0.11406250000000000       0.88593750000000004        0.0000000000000000     
  0.11562500000000001       0.89687499999999998        0.0000000000000000     
  0.10468750000000000       0.89531249999999996        0.0000000000000000     
  0.14062500000000000       0.96875000000000000        0.0000000000000000     
  0.15625000000000000       0.96875000000000000        0.0000000000000000     
  0.15625000000000000       0.98437500000000000        0.0000000000000000     
  0.13437499999999999       0.97812500000000002        0.0000000000000000     
  0.14531250000000001       0.97968750000000004        0.0000000000000000     
  0.14687500000000001       0.99062499999999998        0.0000000000000000     
  0.13593749999999999       0.98906249999999996        0.0000000000000000     
  0.17187500000000000       0.96875000000000000        0.0000000000000000     
  0.18750000000000000       0.96875000000000000        0.0000000000000000     
  0.18750000000000000       0.98437500000000000        0.0000000000000000     
  0.16562499999999999       0.97812500000000002        0.0000000000000000     
  0.17656250000000001       0.97968750000000004        0.0000000000000000     
[...]
 CELL_DATA       14336
 SCALARS Tumor_cells float
 LOOKUP_TABLE default
    0.43873072116975532497E-01
    0.43873071790543741177E-01
    0.43873074374231123274E-01
    0.43873074374230609795E-01
    0.43873071790545573045E-01
    0.43873072116973728385E-01
    0.43873070071282049831E-01
    0.43873068859044586643E-01
    0.43873067550134384196E-01
    0.43873067550123497071E-01
    0.43873068859050234902E-01
    0.43873070071279829385E-01
    0.43873069881623177890E-01
    0.43873069881621394595E-01
    0.43873080619954749060E-01
    0.43873082885841734047E-01
    0.43873089037059276318E-01
    0.43873090742243492368E-01
    0.43873086128155734664E-01
    0.43873088336101394302E-01
    0.43873083502379950360E-01
    0.43873079483847082782E-01
    0.43873075240153804055E-01
    0.43873073727781299047E-01
    0.43873076364590424259E-01
    0.43873076040976670409E-01
    0.43873080182615216416E-01
    0.43873081088938420402E-01
    0.43873088336102421259E-01
    0.43873086128155998342E-01
    0.43873090742244186258E-01
    0.43873089037059574691E-01
    0.43873082885842490386E-01
    0.43873080619954277215E-01
    0.43873076040977926349E-01
    0.43873076364589529141E-01
    0.43873073727783006015E-01
    0.43873075240152721588E-01
    0.43873079483848241578E-01
    0.43873083502380297305E-01
    0.43873081088939190619E-01
    0.43873080182615396827E-01
    0.43873099764796738564E-01
    0.43873100757684510564E-01
    0.43873110390606852305E-01
    0.43873110390606713527E-01
    0.43873100757684441175E-01
    0.43873099764796127942E-01
    0.43873091231308412874E-01
    0.43873088799780635139E-01
    0.43873082458875105327E-01
    0.43873082458874591849E-01
    0.43873088799781141678E-01
    0.43873091231308544713E-01
    0.43873094034397146224E-01
    0.43873094034397000507E-01
    0.43873103369612941049E-01
    0.43873109507082945491E-01
    0.43873121532377504228E-01
    0.43873126015069999206E-01
    0.43873118058249491180E-01
    0.43873123443655140385E-01
    0.43873113941308709840E-01
    0.43873105126436190426E-01
    0.43873096013095184975E-01
    0.43873092165641648654E-01
    0.43873097024191377857E-01
    0.43873094687519070822E-01
    0.43873105310208992957E-01
    0.43873107732741327414E-01
    0.43873148970323454232E-01
    0.43873161365797157252E-01
    0.43873182654662043478E-01
    0.43873191315330656304E-01
    0.43873177874269898846E-01
    0.43873187849068108479E-01
    0.43873171017028686491E-01
    0.43873155017663874322E-01
    0.43873138389809475390E-01
    0.43873130837947436900E-01
    0.43873139376368677778E-01
    0.43873133733410264734E-01
    0.43873154694219096417E-01
    0.43873159400978196942E-01
    0.43873129634853631764E-01
    0.43873134435396032860E-01
    0.43873151355002602825E-01
    0.43873153613061433020E-01
    0.43873138569084271787E-01
    0.43873139432133029247E-01
    0.43873124598915555494E-01
    0.43873118052055286309E-01
    0.43873105925972863406E-01
    0.43873104099802079370E-01
    0.43873114254207049023E-01
    0.43873115390893557830E-01
    0.43873124685090983399E-01
    0.43873125845383255383E-01
    0.43873186277572216729E-01
    0.43873197343739213372E-01
    0.43873226515999029507E-01
    0.43873232560204589170E-01
    0.43873208442521717532E-01
    0.43873212298040753510E-01
    0.43873187221383773415E-01
    0.43873174021801499001E-01
    0.43873152596519228441E-01
    0.43873147746061949559E-01
    0.43873163854730785893E-01
    0.43873162945577783012E-01
    0.43873182711321984106E-01
    0.43873185821769154769E-01
    0.43873123443657006948E-01
    0.43873118058251010798E-01
    0.43873126015071643724E-01
    0.43873121532378885068E-01
    0.43873109507084201431E-01
    0.43873103369613655755E-01
    0.43873094687520049206E-01
    0.43873097024192127258E-01
    0.43873092165642779694E-01
    0.43873096013096024581E-01
    0.43873105126437605961E-01
    0.43873113941310264152E-01
    0.43873107732742673559E-01
    0.43873105310210165630E-01
    0.43873139432134541926E-01
    0.43873138569085395888E-01
    0.43873153613062564060E-01
    0.43873151355003421614E-01
    0.43873134435396705932E-01
    0.43873129634853853809E-01
    0.43873115390893870080E-01
    0.43873114254207479235E-01
    0.43873104099802794076E-01
    0.43873105925973529540E-01
    0.43873118052056361837E-01
    0.43873124598916839190E-01
    0.43873125845384178256E-01
    0.43873124685091725861E-01
    0.43873187849071473843E-01
    0.43873177874272938082E-01
    0.43873191315333813500E-01
    0.43873182654664881486E-01
    0.43873161365799634437E-01
    0.43873148970325459572E-01
    0.43873133733412124358E-01
    0.43873139376370752507E-01
    0.43873130837949469996E-01
    0.43873138389811668081E-01
    0.43873155017666518041E-01
    0.43873171017031711849E-01
    0.43873159400980840661E-01
    0.43873154694221573602E-01
    0.43873212298043785806E-01
    0.43873208442524354311E-01
    0.43873232560207274522E-01
    0.43873226516001347097E-01
    0.43873197343741184018E-01
    0.43873186277573660019E-01
    0.43873162945579129157E-01
    0.43873163854732478983E-01
    0.43873147746063670405E-01
    0.43873152596521171331E-01
    0.43873174021803830469E-01
    0.43873187221386548973E-01
    0.43873185821771423787E-01
    0.43873182711324058836E-01
    0.43873181116696587101E-01
    0.43873184848828183924E-01
    0.43873209968277919468E-01
    0.43873209968277725179E-01
    0.43873184848827864735E-01
    0.43873181116695796067E-01
    0.43873158230291295356E-01
    0.43873152928021776076E-01
    0.43873135374376016904E-01
    0.43873135374376120987E-01
    0.43873152928022123020E-01
    0.43873158230292010062E-01
    0.43873167431861724574E-01
    0.43873167431861620491E-01
    0.43873258760422244318E-01
    0.43873269835933967342E-01
    0.43873312179260402777E-01
    0.43873316135754895917E-01
    0.43873276720766359038E-01
    0.43873274637327853986E-01
    0.43873236685511754485E-01
    0.43873224422044936055E-01
    0.43873194412509648743E-01
    0.43873191732903257800E-01
    0.43873218512950278025E-01
    0.43873222560165126005E-01
    0.43873244184741491680E-01
    0.43873246057766837613E-01
    0.43873274637330199333E-01
    0.43873276720768177028E-01
    0.43873316135756665335E-01
    0.43873312179261721167E-01
    0.43873269835934980421E-01
    0.43873258760422695346E-01
    0.43873222560165507644E-01
    0.43873218512951152326E-01
    0.43873191732904270879E-01
    0.43873194412510974072E-01
    0.43873224422046580573E-01
    0.43873236685513961053E-01
    0.43873246057768287842E-01
    0.43873244184742705987E-01
    0.43873388280430046515E-01
    0.43873398791028646315E-01
    0.43873462681841127186E-01
    0.43873462681840842692E-01
    0.43873398791028132837E-01
    0.43873388280428873842E-01
    0.43873330247788284997E-01
    0.43873317759594514242E-01
    0.43873273505615179024E-01
    0.43873273505615408008E-01
    0.43873317759594999965E-01
    0.43873330247789436853E-01
    0.43873354781248430356E-01
    0.43873354781248284640E-01
    0.43873230983604148692E-01
    0.43873253312181746677E-01
    0.43873290261451293459E-01
    0.43873305792703758133E-01
    0.43873282796383854254E-01
    0.43873300434174103413E-01
    0.43873271331745934687E-01
    0.43873243315820147081E-01
    0.43873214320256356813E-01
    0.43873200914926836769E-01
    0.43873215501101188452E-01
    0.43873204977622939915E-01
    0.43873242255600221340E-01
    0.43873250644641079155E-01
    0.43873374843097931453E-01
    0.43873413925897705723E-01
    0.43873478314056094107E-01
    0.43873505147807412285E-01
    0.43873464939595957501E-01
    0.43873494986397601481E-01
    0.43873444834357143429E-01
    0.43873396546061371737E-01
    0.43873346335072463398E-01
    0.43873323102395285489E-01
    0.43873348265466981244E-01
    0.43873329691346066306E-01
    0.43873394750157938826E-01
    0.43873409295550759579E-01
    0.43873288439483799916E-01
    0.43873310160489571718E-01
    0.43873360879376280264E-01
    0.43873373345105062815E-01
    0.43873332734410110112E-01
    0.43873341068610988147E-01
    0.43873297761296524422E-01
    0.43873273781527437343E-01
    0.43873236637037835162E-01
    0.43873227088322891420E-01
    0.43873253481198158654E-01
    0.43873249283731576009E-01
    0.43873286694199917224E-01
    0.43873292969313963663E-01
    0.43873470563975357217E-01
    0.43873510729342798942E-01
    0.43873599932150952885E-01
    0.43873622925580176013E-01
    0.43873552053794964700E-01
    0.43873566961225386740E-01
    0.43873491415290649664E-01
    0.43873449180231720301E-01
    0.43873384433159079432E-01
    0.43873367121902456800E-01
    0.43873412250272449120E-01
    0.43873403049226711303E-01
    0.43873470664019691145E-01
    0.43873482116914101769E-01
    0.43873624924941248548E-01
    0.43873691428143742066E-01
    0.43873802311541192089E-01
    0.43873846437893153360E-01
    0.43873776262047373131E-01
    0.43873825371553480668E-01
    0.43873740482707125621E-01
    0.43873659043602290797E-01
    0.43873573555991640660E-01
    0.43873533941183789908E-01
    0.43873577656591097873E-01
    0.43873546429165535820E-01
    0.43873657261237104799E-01
    0.43873681603472478030E-01
    0.43874052319299645941E-01
    0.43874160570148673655E-01
    0.43874348305018254224E-01
    0.43874416407630699444E-01
    0.43874294679869203784E-01
    0.43874370511339612355E-01
    0.43874231018514883718E-01
    0.43874098034910775923E-01
    0.43873955942836516397E-01
    0.43873890611368739079E-01
    0.43873965931865134549E-01
    0.43873916350460492874E-01
    0.43874099076770409211E-01
    0.43874138063053437497E-01
    0.43873794828911606702E-01
    0.43873865953208801560E-01
    0.43874024256280806655E-01
    0.43874063353458378489E-01
    0.43873936151874327882E-01
    0.43873958572719772009E-01
    0.43873826361382574357E-01
    0.43873754865940195469E-01
    0.43873642058064585281E-01
    0.43873612421011544404E-01
    0.43873691803453879201E-01
    0.43873675535284741012E-01
    0.43873794433572733953E-01
    0.43873813949935572265E-01
    0.43874368883008822706E-01
    0.43874488923409900309E-01
    0.43874768734697248973E-01
    0.43874828541554652950E-01
    0.43874597843342764969E-01
    0.43874623676417971729E-01
    0.43874393799708831521E-01
    0.43874278780063405425E-01
    0.43874084336597070355E-01
    0.43874036691993544002E-01
    0.43874178966718663242E-01
    0.43874155613846339830E-01
    0.43874356998871551216E-01
    0.43874387566280578787E-01
    0.43873397780639984689E-01
    0.43873421837082642039E-01
    0.43873494363313052247E-01
    0.43873505536254089887E-01
    0.43873440867144723743E-01
    0.43873441758996031825E-01
    0.43873376997396386356E-01
    0.43873352570356412283E-01
    0.43873300859092530246E-01
    0.43873293666573220939E-01
    0.43873336620118545681E-01
    0.43873338617634115300E-01
    0.43873381720914102211E-01
    0.43873386833666150331E-01
    0.43873646180710067222E-01
    0.43873694379767916307E-01
    0.43873822345857155236E-01
    0.43873847037948152106E-01
    0.43873735652304325650E-01
    0.43873741102365977629E-01
    0.43873627412231969158E-01
    0.43873581796940036570E-01
    0.43873490897850780934E-01
    0.43873475793247164456E-01
    0.43873547869470237714E-01
    0.43873545804803952552E-01
    0.43873628239193468437E-01
    0.43873639246185855423E-01
    0.43873585506209684948E-01
    0.43873612181596730042E-01
    0.43873718130425495842E-01
    0.43873726885309362322E-01
    0.43873626520358560699E-01
    0.43873618382069198840E-01
    0.43873521948902947931E-01
    0.43873494302303944758E-01
    0.43873419526121650025E-01
    0.43873414490864195980E-01
    0.43873482794046209099E-01
    0.43873494270840432407E-01
    0.43873546644329748656E-01
    0.43873550425815706355E-01
    0.43873931462538318105E-01
    0.43873990894953487918E-01
    0.43874173742089177253E-01
    0.43874202024738372108E-01
    0.43874036079532170718E-01
    0.43874034500574261852E-01
    0.43873867190825796558E-01
    0.43873810443452468388E-01
    0.43873680206858514663E-01
    0.43873665279499901581E-01
    0.43873775420424483695E-01
    0.43873782754717996490E-01
    0.43873888305791336473E-01
    0.43873900044696330369E-01
    0.43874097112074433857E-01
    0.43874189360238270707E-01
    0.43874420606482625318E-01
    0.43874468226983695529E-01
    0.43874267998553102832E-01
    0.43874277759100167862E-01
    0.43874073990472876872E-01
    0.43873992452202005554E-01
    0.43873830456612701589E-01
    0.43873802162466411791E-01
    0.43873928421793752241E-01
    0.43873920049104980778E-01
    0.43874073214753644967E-01
    0.43874094098634373873E-01
    0.43874923234685482554E-01
    0.43875091692837715762E-01
    0.43875514964007128471E-01
    0.43875596663659428842E-01
    0.43875225951793696277E-01
    0.43875231185714652637E-01
    0.43874862828738162013E-01
    0.43874724892162590695E-01
    0.43874434882184412676E-01
    0.43874386901010080375E-01
    0.43874616021120395326E-01
    0.43874601318740547029E-01
    0.43874877576351577202E-01
    0.43874913178435066829E-01
    0.43874560015015544312E-01
    0.43874685739765467707E-01
    0.43875016460397257834E-01
    0.43875083504703975279E-01
    0.43874791699426596292E-01
    0.43874800987254686246E-01
    0.43874499060703064934E-01
    0.43874388689400987962E-01
    0.43874154151964314674E-01
    0.43874120308095648779E-01
    0.43874307932074918526E-01
    0.43874304347993373088E-01
    0.43874514412123560847E-01
    0.43874541755080251337E-01
    0.43875738229969686588E-01
    0.43875990269116316167E-01
    0.43876608279002506097E-01
    0.43876744152626025175E-01
    0.43876202977018240181E-01
    0.43876220660412822150E-01
    0.43875661493457090989E-01
    0.43875457581266978646E-01
    0.43875026167283004419E-01
    0.43874959782626649085E-01
    0.43875297595739680412E-01
    0.43875275334755589607E-01
    0.43875682263601938071E-01
    0.43875736861232778052E-01
    0.43873300434179557383E-01
    0.43873282796388878013E-01
    0.43873305792708976181E-01
    0.43873290261456122929E-01
    0.43873253312186062669E-01
    0.43873230983607895694E-01
    0.43873204977626360790E-01
    0.43873215501104990965E-01
    0.43873200914930493566E-01
    0.43873214320260305044E-01
    0.43873243315824657362E-01
    0.43873271331751007018E-01
    0.43873250644645603313E-01
    0.43873242255604544271E-01
    0.43873341068616136806E-01
    0.43873332734414786926E-01
    0.43873373345109899224E-01
    0.43873360879380651767E-01
    0.43873310160493395049E-01
    0.43873288439487019563E-01
    0.43873249283734511161E-01
    0.43873253481201551773E-01
    0.43873227088326215151E-01
    0.43873236637041505837E-01
    0.43873273781531628435E-01
    0.43873297761301305320E-01
    0.43873292969318099244E-01
    0.43873286694203796066E-01
    0.43873494986405865703E-01
    0.43873464939603680490E-01
    0.43873505147815419769E-01
    0.43873478314063601990E-01
    0.43873413925904498900E-01
    0.43873374843103982168E-01
    0.43873329691351631299E-01
    0.43873348265473038898E-01
    0.43873323102401114160E-01
    0.43873346335078694525E-01
    0.43873396546068338386E-01
    0.43873444834364873357E-01
    0.43873409295557774801E-01
    0.43873394750164683431E-01
    0.43873566961233415040E-01
    0.43873552053802458706E-01
    0.43873622925587982269E-01
    0.43873599932158259540E-01
    0.43873510729349279869E-01
    0.43873470563981019354E-01
    0.43873403049231901596E-01
    0.43873412250278201463E-01
    0.43873367121908007915E-01
    0.43873384433165081575E-01
    0.43873449180238423273E-01
    0.43873491415298115914E-01
    0.43873482116920825558E-01
    0.43873470664026137378E-01
    0.43873441759000653128E-01
    0.43873440867148762179E-01
    0.43873505536258176896E-01
    0.43873494363316598021E-01
    0.43873421837085681274E-01
    0.43873397780642267585E-01
    0.43873338617636162273E-01
    0.43873336620121217155E-01
    0.43873293666575878536E-01
    0.43873300859095638871E-01
    0.43873352570360020508E-01
    0.43873376997400688471E-01
    0.43873386833669626717E-01
    0.43873381720917294102E-01
    0.43873618382072827881E-01
    0.43873626520361398706E-01
    0.43873726885312089308E-01
    0.43873718130427535877E-01
    0.43873612181598305171E-01
    0.43873585506210399654E-01
    0.43873494270841008336E-01
    0.43873482794047562183E-01
    0.43873414490865708659E-01
    0.43873419526123724754E-01
    0.43873494302306491333E-01
    0.43873521948906347989E-01
    0.43873550425817961496E-01
    0.43873546644331636035E-01
    0.43873741102373811640E-01
    0.43873735652311486588E-01
    0.43873847037955625294E-01
    0.43873822345863962291E-01
    0.43873694379773876817E-01
    0.43873646180715084042E-01
    0.43873545804808455895E-01
    0.43873547869475441885E-01
    0.43873475793252222910E-01
    0.43873490897856380621E-01
    0.43873581796946420353E-01
    0.43873627412239254997E-01
    0.43873639246192197572E-01
    0.43873628239199449763E-01
    0.43874034500581457485E-01
    0.43874036079538471233E-01
    0.43874202024744832218E-01
    0.43874173742094818573E-01
    0.43873990894958234121E-01
    0.43873931462541926329E-01
    0.43873782754721153687E-01
    0.43873775420428591520E-01
    0.43873665279504023284E-01
    0.43873680206863344133E-01
    0.43873810443458061137E-01
    0.43873867190832513407E-01
    0.43873900044701728829E-01
    0.43873888305796276965E-01
    0.43873825371565505771E-01
    0.43873776262058732101E-01
    0.43873846437904956419E-01
    0.43873802311552356770E-01
    0.43873691428153900607E-01
    0.43873624924950421766E-01
    0.43873546429174008210E-01
    0.43873577656600215580E-01
    0.43873533941192567609E-01
    0.43873573556000966533E-01
    0.43873659043612601993E-01
    0.43873740482718463773E-01
    0.43873681603482872493E-01
    0.43873657261247152317E-01
    0.43873958572731797112E-01
    0.43873936151885721546E-01
    0.43874063353470396653E-01
    0.43874024256292193380E-01
    0.43873865953218973979E-01
    0.43873794828920738287E-01
    0.43873675535293067684E-01
    0.43873691803462865069E-01
    0.43873612421020127816E-01
    0.43873642058073744621E-01
    0.43873754865950388704E-01
    0.43873826361393739037E-01
    0.43873813949945904278E-01
    0.43873794433582705143E-01
    0.43874370511356862445E-01
    0.43874294679885593451E-01
    0.43874416407647838512E-01
    0.43874348305034539808E-01
    0.43874160570163453499E-01
    0.43874052319313149029E-01
    0.43873916350472906556E-01
    0.43873965931878408653E-01
    0.43873890611381478888E-01
    0.43873955942850026424E-01
    0.43874098034925687606E-01
    0.43874231018531224813E-01
    0.43874138063068494897E-01
    0.43874099076784967011E-01
    0.43874623676435631214E-01
    0.43874597843359820770E-01
    0.43874828541572902241E-01
    0.43874768734714714169E-01
    0.43874488923425422615E-01
    0.43874368883022929477E-01
    0.43874155613859072700E-01
    0.43874178966732207963E-01
    0.43874036692006353200E-01
    0.43874084336610628954E-01
    0.43874278780078469764E-01
    0.43874393799725179555E-01
    0.43874387566296052521E-01
    0.43874356998886560044E-01
    0.43874277759112623176E-01
    0.43874267998564829563E-01
    0.43874468226996143905E-01
    0.43874420606494289598E-01
    0.43874189360248512515E-01
    0.43874097112083447481E-01
    0.43873920049113022956E-01
    0.43873928421802620148E-01
    0.43873802162474863364E-01
    0.43873830456621826235E-01
    0.43873992452212323689E-01
    0.43874073990484395436E-01
    0.43874094098644844664E-01
    0.43874073214763685546E-01
    0.43874800987267453811E-01
    0.43874791699438302206E-01
    0.43875083504716395899E-01
    0.43875016460408589047E-01
    0.43874685739775209914E-01
    0.43874560015023718329E-01
    0.43874304348000520148E-01
    0.43874307932083203565E-01
    0.43874120308103614629E-01
    0.43874154151973189519E-01
    0.43874388689411215891E-01
    0.43874499060714798604E-01