# vtk DataFile Version 3.0
LAPLACIEN  2D
ASCII
DATASET UNSTRUCTURED_GRID
FIELD FieldData 1
TIME 1 1 double
17.8000
 POINTS        7297  float
   1.5625000000000000E-002  0.96875000000000000        0.0000000000000000     
   3.1250000000000000E-002  0.96875000000000000        0.0000000000000000     
   3.1250000000000000E-002  0.98437500000000000        0.0000000000000000     
   9.3749999999999997E-003  0.97812500000000002        0.0000000000000000     
   2.0312500000000001E-002  0.97968750000000004        0.0000000000000000     
   2.1874999999999999E-002  0.99062499999999998        0.0000000000000000     
   1.0937499999999999E-002  0.98906249999999996        0.0000000000000000     
   4.6875000000000000E-002  0.96875000000000000        0.0000000000000000     
   6.2500000000000000E-002  0.96875000000000000        0.0000000000000000     
   6.2500000000000000E-002  0.98437500000000000        0.0000000000000000     
   4.0625000000000001E-002  0.97812500000000002        0.0000000000000000     
   5.1562499999999997E-002  0.97968750000000004        0.0000000000000000     
   5.3124999999999999E-002  0.99062499999999998        0.0000000000000000     
   4.2187500000000003E-002  0.98906249999999996        0.0000000000000000     
   1.5625000000000000E-002  0.93750000000000000        0.0000000000000000     
   3.1250000000000000E-002  0.93750000000000000        0.0000000000000000     
   3.1250000000000000E-002  0.95312500000000000        0.0000000000000000     
   9.3749999999999997E-003  0.94687500000000002        0.0000000000000000     
   2.0312500000000001E-002  0.94843750000000004        0.0000000000000000     
   2.1874999999999999E-002  0.95937499999999998        0.0000000000000000     
   1.0937499999999999E-002  0.95781249999999996        0.0000000000000000     
   4.6875000000000000E-002  0.93750000000000000        0.0000000000000000     
   6.2500000000000000E-002  0.93750000000000000        0.0000000000000000     
   6.2500000000000000E-002  0.95312500000000000        0.0000000000000000     
   4.0625000000000001E-002  0.94687500000000002        0.0000000000000000     
   5.1562499999999997E-002  0.94843750000000004        0.0000000000000000     
   5.3124999999999999E-002  0.95937499999999998        0.0000000000000000     
   4.2187500000000003E-002  0.95781249999999996        0.0000000000000000     
   7.8125000000000000E-002  0.96875000000000000        0.0000000000000000     
   9.3750000000000000E-002  0.96875000000000000        0.0000000000000000     
   9.3750000000000000E-002  0.98437500000000000        0.0000000000000000     
   7.1874999999999994E-002  0.97812500000000002        0.0000000000000000     
   8.2812499999999997E-002  0.97968750000000004        0.0000000000000000     
   8.4375000000000006E-002  0.99062499999999998        0.0000000000000000     
   7.3437500000000003E-002  0.98906249999999996        0.0000000000000000     
  0.10937500000000000       0.96875000000000000        0.0000000000000000     
  0.12500000000000000       0.96875000000000000        0.0000000000000000     
  0.12500000000000000       0.98437500000000000        0.0000000000000000     
  0.10312499999999999       0.97812500000000002        0.0000000000000000     
  0.11406250000000000       0.97968750000000004        0.0000000000000000     
  0.11562500000000001       0.99062499999999998        0.0000000000000000     
  0.10468750000000000       0.98906249999999996        0.0000000000000000     
   7.8125000000000000E-002  0.93750000000000000        0.0000000000000000     
   9.3750000000000000E-002  0.93750000000000000        0.0000000000000000     
   9.3750000000000000E-002  0.95312500000000000        0.0000000000000000     
   7.1874999999999994E-002  0.94687500000000002        0.0000000000000000     
   8.2812499999999997E-002  0.94843750000000004        0.0000000000000000     
   8.4375000000000006E-002  0.95937499999999998        0.0000000000000000     
   7.3437500000000003E-002  0.95781249999999996        0.0000000000000000     
  0.10937500000000000       0.93750000000000000        0.0000000000000000     
  0.12500000000000000       0.93750000000000000        0.0000000000000000     
  0.12500000000000000       0.95312500000000000        0.0000000000000000     
  0.10312499999999999       0.94687500000000002        0.0000000000000000     
  0.11406250000000000       0.94843750000000004        0.0000000000000000     
  0.11562500000000001       0.95937499999999998        0.0000000000000000     
  0.10468750000000000       0.95781249999999996        0.0000000000000000     
   1.5625000000000000E-002  0.90625000000000000        0.0000000000000000     
   3.1250000000000000E-002  0.90625000000000000        0.0000000000000000     
   3.1250000000000000E-002  0.92187500000000000        0.0000000000000000     
   9.3749999999999997E-003  0.91562500000000002        0.0000000000000000     
   2.0312500000000001E-002  0.91718750000000004        0.0000000000000000     
   2.1874999999999999E-002  0.92812499999999998        0.0000000000000000     
   1.0937499999999999E-002  0.92656249999999996        0.0000000000000000     
   4.6875000000000000E-002  0.90625000000000000        0.0000000000000000     
   6.2500000000000000E-002  0.90625000000000000        0.0000000000000000     
   6.2500000000000000E-002  0.92187500000000000        0.0000000000000000     
   4.0625000000000001E-002  0.91562500000000002        0.0000000000000000     
   5.1562499999999997E-002  0.91718750000000004        0.0000000000000000     
   5.3124999999999999E-002  0.92812499999999998        0.0000000000000000     
   4.2187500000000003E-002  0.92656249999999996        0.0000000000000000     
   1.5625000000000000E-002  0.87500000000000000        0.0000000000000000     
   3.1250000000000000E-002  0.87500000000000000        0.0000000000000000     
   3.1250000000000000E-002  0.89062500000000000        0.0000000000000000     
   9.3749999999999997E-003  0.88437500000000002        0.0000000000000000     
   2.0312500000000001E-002  0.88593750000000004        0.0000000000000000     
   2.1874999999999999E-002  0.89687499999999998        0.0000000000000000     
   1.0937499999999999E-002  0.89531249999999996        0.0000000000000000     
   4.6875000000000000E-002  0.87500000000000000        0.0000000000000000     
   6.2500000000000000E-002  0.87500000000000000        0.0000000000000000     
   6.2500000000000000E-002  0.89062500000000000        0.0000000000000000     
   4.0625000000000001E-002  0.88437500000000002        0.0000000000000000     
   5.1562499999999997E-002  0.88593750000000004        0.0000000000000000     
   5.3124999999999999E-002  0.89687499999999998        0.0000000000000000     
   4.2187500000000003E-002  0.89531249999999996        0.0000000000000000     
   7.8125000000000000E-002  0.90625000000000000        0.0000000000000000     
   9.3750000000000000E-002  0.90625000000000000        0.0000000000000000     
   9.3750000000000000E-002  0.92187500000000000        0.0000000000000000     
   7.1874999999999994E-002  0.91562500000000002        0.0000000000000000     
   8.2812499999999997E-002  0.91718750000000004        0.0000000000000000     
   8.4375000000000006E-002  0.92812499999999998        0.0000000000000000     
   7.3437500000000003E-002  0.92656249999999996        0.0000000000000000     
  0.10937500000000000       0.90625000000000000        0.0000000000000000     
  0.12500000000000000       0.90625000000000000        0.0000000000000000     
  0.12500000000000000       0.92187500000000000        0.0000000000000000     
  0.10312499999999999       0.91562500000000002        0.0000000000000000     
  0.11406250000000000       0.91718750000000004        0.0000000000000000     
  0.11562500000000001       0.92812499999999998        0.0000000000000000     
  0.10468750000000000       0.92656249999999996        0.0000000000000000     
   7.8125000000000000E-002  0.87500000000000000        0.0000000000000000     
   9.3750000000000000E-002  0.87500000000000000        0.0000000000000000     
   9.3750000000000000E-002  0.89062500000000000        0.0000000000000000     
   7.1874999999999994E-002  0.88437500000000002        0.0000000000000000     
   8.2812499999999997E-002  0.88593750000000004        0.0000000000000000     
   8.4375000000000006E-002  0.89687499999999998        0.0000000000000000     
   7.3437500000000003E-002  0.89531249999999996        0.0000000000000000     
  0.10937500000000000       0.87500000000000000        0.0000000000000000     
  0.12500000000000000       0.87500000000000000        0.0000000000000000     
  0.12500000000000000       0.89062500000000000        0.0000000000000000     
  0.10312499999999999       0.88437500000000002        0.0000000000000000     
  0.11406250000000000       0.88593750000000004        0.0000000000000000     
  0.11562500000000001       0.89687499999999998        0.0000000000000000     
  0.10468750000000000       0.89531249999999996        0.0000000000000000     
  0.14062500000000000       0.96875000000000000        0.0000000000000000     
  0.15625000000000000       0.96875000000000000        0.0000000000000000     
  0.15625000000000000       0.98437500000000000        0.0000000000000000     
  0.13437499999999999       0.97812500000000002        0.0000000000000000     
  0.14531250000000001       0.97968750000000004        0.0000000000000000     
  0.14687500000000001       0.99062499999999998        0.0000000000000000     
  0.13593749999999999       0.98906249999999996        0.0000000000000000     
  0.17187500000000000       0.96875000000000000        0.0000000000000000     
  0.18750000000000000       0.96875000000000000        0.0000000000000000     
  0.18750000000000000       0.98437500000000000        0.0000000000000000     
  0.16562499999999999       0.97812500000000002        0.0000000000000000     
  0.17656250000000001       0.97968750000000004        0.0000000000000000     
[...]
 CELL_DATA       14336
 SCALARS Tumor_cells float
 LOOKUP_TABLE default
    0.60730680042573759181E-01
    0.60730679551749884582E-01
    0.60730683450673818291E-01
    0.60730683450672798274E-01
    0.60730679551753853629E-01
    0.60730680042570220345E-01
    0.60730676955903568903E-01
    0.60730675127543209957E-01
    0.60730673151743644334E-01
    0.60730673151720634961E-01
    0.60730675127555082404E-01
    0.60730676955898697800E-01
    0.60730676671498708130E-01
    0.60730676671494961127E-01
    0.60730692880737506545E-01
    0.60730696301682228488E-01
    0.60730705592231322421E-01
    0.60730708166331248687E-01
    0.60730701196681807774E-01
    0.60730704531556975456E-01
    0.60730697229341816523E-01
    0.60730691163315510261E-01
    0.60730684756532087032E-01
    0.60730682474284869432E-01
    0.60730686454808988084E-01
    0.60730685966573952350E-01
    0.60730692219440489399E-01
    0.60730693587655121268E-01
    0.60730704531557884451E-01
    0.60730701196681405318E-01
    0.60730708166331706654E-01
    0.60730705592231225276E-01
    0.60730696301683290139E-01
    0.60730692880736299177E-01
    0.60730685966576436474E-01
    0.60730686454806663555E-01
    0.60730682474288082140E-01
    0.60730684756529249024E-01
    0.60730691163317203352E-01
    0.60730697229341511212E-01
    0.60730693587656016386E-01
    0.60730692219440267354E-01
    0.60730721801221368428E-01
    0.60730723303562904325E-01
    0.60730737863272848953E-01
    0.60730737863272703236E-01
    0.60730723303563119431E-01
    0.60730721801220882705E-01
    0.60730708906500528721E-01
    0.60730705235458197488E-01
    0.60730695657604666371E-01
    0.60730695657603479820E-01
    0.60730705235458988522E-01
    0.60730708906500167898E-01
    0.60730713144416401117E-01
    0.60730713144416179072E-01
    0.60730727247878112107E-01
    0.60730736524046750879E-01
    0.60730754703352804458E-01
    0.60730761480667971863E-01
    0.60730749450656498767E-01
    0.60730757591701337028E-01
    0.60730743225549874142E-01
    0.60730729901413135763E-01
    0.60730716129313556950E-01
    0.60730710312947189244E-01
    0.60730717657748338467E-01
    0.60730714126850861290E-01
    0.60730730178902118943E-01
    0.60730733842060125038E-01
    0.60730796199262443436E-01
    0.60730814951091310894E-01
    0.60730847161484927121E-01
    0.60730860268426410664E-01
    0.60730839929344831996E-01
    0.60730855021285869155E-01
    0.60730829551901156782E-01
    0.60730805347017358109E-01
    0.60730780194750907941E-01
    0.60730768773167409513E-01
    0.60730781687823448545E-01
    0.60730773152965489281E-01
    0.60730804857848146028E-01
    0.60730811978612936342E-01
    0.60730766959617876743E-01
    0.60730774219763285215E-01
    0.60730799809554758539E-01
    0.60730803225169500970E-01
    0.60730780469868031468E-01
    0.60730781772725998813E-01
    0.60730759340523715606E-01
    0.60730749443769826978E-01
    0.60730731111603583616E-01
    0.60730728352301303896E-01
    0.60730743703589898375E-01
    0.60730745422562425195E-01
    0.60730759474715401147E-01
    0.60730761228560942167E-01
    0.60730852646402162798E-01
    0.60730869394514983006E-01
    0.60730913546054969554E-01
    0.60730922696865752286E-01
    0.60730886191972602295E-01
    0.60730892025768437592E-01
    0.60730854073636576784E-01
    0.60730834101008483727E-01
    0.60730801685088722786E-01
    0.60730794347620270512E-01
    0.60730818719192732058E-01
    0.60730817343727948321E-01
    0.60730847250890826472E-01
    0.60730851957979392619E-01
    0.60730757591702218268E-01
    0.60730749450657081634E-01
    0.60730761480668783714E-01
    0.60730754703353408142E-01
    0.60730736524047465585E-01
    0.60730727247878181496E-01
    0.60730714126851687018E-01
    0.60730717657748317651E-01
    0.60730710312948091301E-01
    0.60730716129313612461E-01
    0.60730729901413926797E-01
    0.60730743225550512521E-01
    0.60730733842060825867E-01
    0.60730730178902611605E-01
    0.60730781772726734336E-01
    0.60730780469868461680E-01
    0.60730803225170042203E-01
    0.60730799809555091606E-01
    0.60730774219763646038E-01
    0.60730766959617911438E-01
    0.60730745422562723568E-01
    0.60730743703589905313E-01
    0.60730728352301852069E-01
    0.60730731111603680761E-01
    0.60730749443770423723E-01
    0.60730759340524215206E-01
    0.60730761228561427889E-01
    0.60730759474715706459E-01
    0.60730855021287472040E-01
    0.60730839929346226713E-01
    0.60730860268427902526E-01
    0.60730847161486259389E-01
    0.60730814951092490506E-01
    0.60730796199263352431E-01
    0.60730773152966426032E-01
    0.60730781687824357540E-01
    0.60730768773168380958E-01
    0.60730780194751858569E-01
    0.60730805347018620988E-01
    0.60730829551902593133E-01
    0.60730811978614164526E-01
    0.60730804857849277067E-01
    0.60730892025769922515E-01
    0.60730886191973879051E-01
    0.60730922696867098431E-01
    0.60730913546056183860E-01
    0.60730869394515982207E-01
    0.60730852646402849748E-01
    0.60730817343728593638E-01
    0.60730818719193502275E-01
    0.60730794347621130935E-01
    0.60730801685089604025E-01
    0.60730834101009635584E-01
    0.60730854073637888235E-01
    0.60730851957980495903E-01
    0.60730847250891832612E-01
    0.60730844836472855364E-01
    0.60730850484711017268E-01
    0.60730888496086640749E-01
    0.60730888496086536665E-01
    0.60730850484710899306E-01
    0.60730844836472480663E-01
    0.60730810210715878428E-01
    0.60730802190424780507E-01
    0.60730775639223175122E-01
    0.60730775639223161244E-01
    0.60730802190424981735E-01
    0.60730810210716142106E-01
    0.60730824132366016677E-01
    0.60730824132365968104E-01
    0.60730962351986453318E-01
    0.60730979121560342560E-01
    0.60731043231498069157E-01
    0.60731049225603614405E-01
    0.60730989548559814739E-01
    0.60730986395925883048E-01
    0.60730928941041546765E-01
    0.60730910376961044772E-01
    0.60730864956738232763E-01
    0.60730860900480368447E-01
    0.60730901430778402861E-01
    0.60730907554941017390E-01
    0.60730940290073302801E-01
    0.60730943126792606701E-01
    0.60730986395927138988E-01
    0.60730989548560820879E-01
    0.60731049225604620545E-01
    0.60731043231498839374E-01
    0.60730979121560932366E-01
    0.60730962351986723935E-01
    0.60730907554941204740E-01
    0.60730901430778840011E-01
    0.60730860900480861109E-01
    0.60730864956738850324E-01
    0.60730910376961939889E-01
    0.60730928941042726377E-01
    0.60730943126793432429E-01
    0.60730940290073982812E-01
    0.60731158475772727134E-01
    0.60731174393840473003E-01
    0.60731271159900589163E-01
    0.60731271159900415690E-01
    0.60731174393840188508E-01
    0.60731158475772033245E-01
    0.60731070592161040533E-01
    0.60731051681742101445E-01
    0.60730984675063007239E-01
    0.60730984675063111322E-01
    0.60731051681742399817E-01
    0.60731070592161699728E-01
    0.60731107743163405266E-01
    0.60731107743163321999E-01
    0.60730920310103506110E-01
    0.60730954115054296139E-01
    0.60731010059021067748E-01
    0.60731033580544900585E-01
    0.60730998757864099180E-01
    0.60731025464407895065E-01
    0.60730981396640661141E-01
    0.60730938979986021087E-01
    0.60730895086001095151E-01
    0.60730874795758907347E-01
    0.60730896874844127187E-01
    0.60730880945104460944E-01
    0.60730937375211603568E-01
    0.60730950076328345244E-01
    0.60731138159625649986E-01
    0.60731197361450238448E-01
    0.60731294901821136767E-01
    0.60731335558862370450E-01
    0.60731274642537656783E-01
    0.60731320161404672708E-01
    0.60731244183490816491E-01
    0.60731171034112643725E-01
    0.60731094979769188746E-01
    0.60731059792815983434E-01
    0.60731097905241657187E-01
    0.60731069771570195259E-01
    0.60731168313752442733E-01
    0.60731190347872394952E-01
    0.60731007297527180022E-01
    0.60731040191754341595E-01
    0.60731117000300850750E-01
    0.60731135885829859444E-01
    0.60731074379977392774E-01
    0.60731087002286646137E-01
    0.60731021418492070474E-01
    0.60730985106524047745E-01
    0.60730928868794449571E-01
    0.60730914412663587754E-01
    0.60730954370627490690E-01
    0.60730948013616739556E-01
    0.60731004658392678808E-01
    0.60731014161753416047E-01
    0.60731283150041545649E-01
    0.60731344006591150841E-01
    0.60731479155112906565E-01
    0.60731514001339165221E-01
    0.60731406622016474717E-01
    0.60731429210694999610E-01
    0.60731314752704310123E-01
    0.60731250766553744602E-01
    0.60731152685343216258E-01
    0.60731126461887809109E-01
    0.60731194820523352884E-01
    0.60731180877461543588E-01
    0.60731283310145225962E-01
    0.60731300663296308717E-01
    0.60731517041213559094E-01
    0.60731617815483487921E-01
    0.60731785848147083751E-01
    0.60731852720283904801E-01
    0.60731746373202527556E-01
    0.60731820793787229251E-01
    0.60731692150988683676E-01
    0.60731568742164572516E-01
    0.60731439205443701890E-01
    0.60731379181099449938E-01
    0.60731445419887480908E-01
    0.60731398102471516320E-01
    0.60731566040796054751E-01
    0.60731602927797494196E-01
    0.60732164743813342456E-01
    0.60732328811915120559E-01
    0.60732613352988913669E-01
    0.60732716574999984216E-01
    0.60732532077713008434E-01
    0.60732647012016735544E-01
    0.60732435587818427158E-01
    0.60732234031317333667E-01
    0.60732018678502905362E-01
    0.60731919665133748953E-01
    0.60732033817849931379E-01
    0.60731958673166074048E-01
    0.60732235610786285129E-01
    0.60732294699211895883E-01
    0.60731774488555261005E-01
    0.60731882280972614152E-01
    0.60732122188821180409E-01
    0.60732181448558034131E-01
    0.60731988676920443948E-01
    0.60732022659908915796E-01
    0.60731822295179802018E-01
    0.60731713945913007313E-01
    0.60731543002489916938E-01
    0.60731498091610131018E-01
    0.60731618378249696555E-01
    0.60731593718958504224E-01
    0.60731773902977806423E-01
    0.60731803481263731126E-01
    0.60732644511933102371E-01
    0.60732826465327426069E-01
    0.60733250574735615779E-01
    0.60733341232345056104E-01
    0.60732991569916093544E-01
    0.60733030730338879999E-01
    0.60732682308295315998E-01
    0.60732507973558523540E-01
    0.60732213267562895620E-01
    0.60732141053996595292E-01
    0.60732356684158245175E-01
    0.60732321280842903322E-01
    0.60732626520125954084E-01
    0.60732672853394391310E-01
    0.60731172869544221282E-01
    0.60731209313342075784E-01
    0.60731319170178689471E-01
    0.60731336104761508843E-01
    0.60731238148091268303E-01
    0.60731239505269901668E-01
    0.60731141412861545936E-01
    0.60731104413206130066E-01
    0.60731026102403620759E-01
    0.60731015208223791679E-01
    0.60731080251700750305E-01
    0.60731083270594822532E-01
    0.60731148556370559422E-01
    0.60731156303331777779E-01
    0.60731549182743774229E-01
    0.60731622226753267935E-01
    0.60731816128028019708E-01
    0.60731853559752510541E-01
    0.60731684785718567654E-01
    0.60731693057178529060E-01
    0.60731520791454600416E-01
    0.60731451668114992681E-01
    0.60731313951486065594E-01
    0.60731291062866420150E-01
    0.60731400251816128333E-01
    0.60731397110571794240E-01
    0.60731522022157903573E-01
    0.60731538705560667024E-01
    0.60731457215638953717E-01
    0.60731497632202771642E-01
    0.60731658146254190178E-01
    0.60731671419266296252E-01
    0.60731519366015451755E-01
    0.60731507046516246262E-01
    0.60731360957336992523E-01
    0.60731319069292521995E-01
    0.60731205802593238308E-01
    0.60731198172872272179E-01
    0.60731301629674251663E-01
    0.60731319009547465870E-01
    0.60731398352622291414E-01
    0.60731404084289675183E-01
    0.60731981396420130215E-01
    0.60732071474512705489E-01
    0.60732348555418820546E-01
    0.60732391436727213574E-01
    0.60732139975939181120E-01
    0.60732137606741051772E-01
    0.60731884075293680880E-01
    0.60731798069566675369E-01
    0.60731600729740382871E-01
    0.60731578102326003177E-01
    0.60731744977791927986E-01
    0.60731756072650654177E-01
    0.60731916032180532916E-01
    0.60731933828723098923E-01
    0.60732232526698369524E-01
    0.60732372354673963555E-01
    0.60732722823164803083E-01
    0.60732795016994974013E-01
    0.60732491567881706496E-01
    0.60732506379497050442E-01
    0.60732197556685275919E-01
    0.60732073972706898668E-01
    0.60731828472917005757E-01
    0.60731785586228347051E-01
    0.60731976913514229555E-01
    0.60731964203858998519E-01
    0.60732196349206055142E-01
    0.60732228007433129713E-01
    0.60733484645216460895E-01
    0.60733740005136462037E-01
    0.60734381558661759692E-01
    0.60734505416766081110E-01
    0.60733943545333318736E-01
    0.60733951502726382654E-01
    0.60733393185148934479E-01
    0.60733184098324087541E-01
    0.60732744536883855047E-01
    0.60732671800784364391E-01
    0.60733019053633305329E-01
    0.60732996742464892548E-01
    0.60733415493398883178E-01
    0.60733469466264081160E-01
    0.60732933968822816473E-01
    0.60733124546717247305E-01
    0.60733625786796224810E-01
    0.60733727432109883837E-01
    0.60733285193098472676E-01
    0.60733299308256327720E-01
    0.60732841714142851708E-01
    0.60732674410121964548E-01
    0.60732318958754839822E-01
    0.60732267649062358916E-01
    0.60732551975300655411E-01
    0.60732546511902102404E-01
    0.60732864913207132429E-01
    0.60732906368538744357E-01
    0.60734719761862870913E-01
    0.60735101817232177435E-01
    0.60736038524302475572E-01
    0.60736244507165595974E-01
    0.60735424293654069472E-01
    0.60735451146748900553E-01
    0.60734603633185321736E-01
    0.60734294525923465669E-01
    0.60733640638261907063E-01
    0.60733539994172761056E-01
    0.60734051976835644326E-01
    0.60734018187312881210E-01
    0.60734635020300929698E-01
    0.60734717793349074499E-01
    0.60731025464410746950E-01
    0.60730998757866680449E-01
    0.60731033580547620632E-01
    0.60731010059023558811E-01
    0.60730954115056468012E-01
    0.60730920310105351856E-01
    0.60730880945106084645E-01
    0.60730896874845959055E-01
    0.60730874795760669826E-01
    0.60730895086003024164E-01
    0.60730938979988290105E-01
    0.60730981396643297920E-01
    0.60730950076330607323E-01
    0.60730937375213740748E-01
    0.60731087002289387000E-01
    0.60731074379979897715E-01
    0.60731135885832565613E-01
    0.60731117000303314057E-01
    0.60731040191756430202E-01
    0.60731007297528907807E-01
    0.60730948013618224479E-01
    0.60730954370629218475E-01
    0.60730914412665246149E-01
    0.60730928868796288378E-01
    0.60730985106526205741E-01
    0.60731021418494547659E-01
    0.60731014161755594860E-01
    0.60731004658394739659E-01
    0.60731320161409439728E-01
    0.60731274642542049103E-01
    0.60731335558866977875E-01
    0.60731294901825418064E-01
    0.60731197361454040962E-01
    0.60731138159628952899E-01
    0.60731069771573102656E-01
    0.60731097905244918467E-01
    0.60731059792819064302E-01
    0.60731094979772561049E-01
    0.60731171034116571139E-01
    0.60731244183495285138E-01
    0.60731190347876315427E-01
    0.60731168313756189736E-01
    0.60731429210699745813E-01
    0.60731406622020964181E-01
    0.60731514001344064080E-01
    0.60731479155117513991E-01
    0.60731344006595085194E-01
    0.60731283150044938768E-01
    0.60731180877464471801E-01
    0.60731194820526593348E-01
    0.60731126461890834467E-01
    0.60731152685346533049E-01
    0.60731250766557609566E-01
    0.60731314752708598359E-01
    0.60731300663300277765E-01
    0.60731283310149007659E-01
    0.60731239505272642532E-01
    0.60731238148093696916E-01
    0.60731336104764097050E-01
    0.60731319170180965428E-01
    0.60731209313343983980E-01
    0.60731172869545650694E-01
    0.60731083270596009083E-01
    0.60731080251702256045E-01
    0.60731015208225255786E-01
    0.60731026102405306910E-01
    0.60731104413208190917E-01
    0.60731141412864030060E-01
    0.60731156303333824753E-01
    0.60731148556372453740E-01
    0.60731507046518647119E-01
    0.60731519366017359951E-01
    0.60731671419268211387E-01
    0.60731658146255675101E-01
    0.60731497632203867987E-01
    0.60731457215639481073E-01
    0.60731319009547798937E-01
    0.60731301629675105147E-01
    0.60731198172873181174E-01
    0.60731205802594528942E-01
    0.60731319069294166513E-01
    0.60731360957339240725E-01
    0.60731404084291173984E-01
    0.60731398352623547354E-01
    0.60731693057183774864E-01
    0.60731684785723459574E-01
    0.60731853559757881245E-01
    0.60731816128032953261E-01
    0.60731622226757410454E-01
    0.60731549182747236737E-01
    0.60731397110574660003E-01
    0.60731400251819445124E-01
    0.60731291062869480202E-01
    0.60731313951489472591E-01
    0.60731451668119086629E-01
    0.60731520791459353559E-01
    0.60731538705564885872E-01
    0.60731522022161851804E-01
    0.60732137606746554315E-01
    0.60732139975944031407E-01
    0.60732391436732459378E-01
    0.60732348555423407155E-01
    0.60732071474516424736E-01
    0.60731981396422961283E-01
    0.60731756072652930134E-01
    0.60731744977794870077E-01
    0.60731578102328813429E-01
    0.60731600729743734357E-01
    0.60731798069570776255E-01
    0.60731884075298676884E-01
    0.60731933828727151237E-01
    0.60731916032184238285E-01
    0.60731820793795014690E-01
    0.60731746373209799517E-01
    0.60731852720291551462E-01
    0.60731785848154279384E-01
    0.60731617815489802314E-01
    0.60731517041219131026E-01
    0.60731398102476470691E-01
    0.60731445419892914062E-01
    0.60731379181104619414E-01
    0.60731439205449273822E-01
    0.60731568742170997932E-01
    0.60731692150995990331E-01
    0.60731602927803940428E-01
    0.60731566040802223427E-01
    0.60732022659916999607E-01
    0.60731988676928187754E-01
    0.60732181448566610604E-01
    0.60732122188829347487E-01
    0.60731882280979573863E-01
    0.60731774488561381109E-01
    0.60731593718963784723E-01
    0.60731618378255400326E-01
    0.60731498091615342128E-01
    0.60731543002495551320E-01
    0.60731713945919543751E-01
    0.60731822295187039285E-01
    0.60731803481270552059E-01
    0.60731773902984384494E-01
    0.60732647012029301881E-01
    0.60732532077724818431E-01
    0.60732716575012640758E-01
    0.60732613353000820811E-01
    0.60732328811925542777E-01
    0.60732164743822619757E-01
    0.60731958673174248065E-01
    0.60732033817858847857E-01
    0.60731919665142165832E-01
    0.60732018678512009191E-01
    0.60732234031327776702E-01
    0.60732435587830271850E-01
    0.60732294699222436063E-01
    0.60732235610796388159E-01
    0.60733030730352417781E-01
    0.60732991569929367648E-01
    0.60733341232359981665E-01
    0.60733250574749958473E-01
    0.60732826465339527500E-01
    0.60732644511943954801E-01
    0.60732321280852104295E-01
    0.60732356684168049832E-01
    0.60732141054005421565E-01
    0.60732213267572339455E-01
    0.60732507973569528625E-01
    0.60732682308307410490E-01
    0.60732672853406055591E-01
    0.60732626520137271420E-01
    0.60732506379506570604E-01
    0.60732491567890845019E-01
    0.60732795017005195004E-01
    0.60732722823174427329E-01
    0.60732372354682068183E-01
    0.60732232526705454134E-01
    0.60731964203864889640E-01
    0.60731976913520654970E-01
    0.60731785586234141028E-01
    0.60731828472923243822E-01
    0.60732073972714385734E-01
    0.60732197556693741369E-01
    0.60732228007441040052E-01
    0.60732196349213667108E-01
    0.60733299308267506278E-01
    0.60733285193108853262E-01
    0.60733727432121388523E-01
    0.60733625786806778868E-01
    0.60733124546725934800E-01
    0.60732933968830067617E-01
    0.60732546511907965769E-01
    0.60732551975307476344E-01
    0.60732267649068596982E-01
    0.60732318958761896677E-01
    0.60732674410130513265E-01
    0.60732841714152788204E-01