# vtk DataFile Version 3.0
LAPLACIEN  2D
ASCII
DATASET UNSTRUCTURED_GRID
FIELD FieldData 1
TIME 1 1 double
11.6000
 POINTS        7297  float
   1.5625000000000000E-002  0.96875000000000000        0.0000000000000000     
   3.1250000000000000E-002  0.96875000000000000        0.0000000000000000     
   3.1250000000000000E-002  0.98437500000000000        0.0000000000000000     
   9.3749999999999997E-003  0.97812500000000002        0.0000000000000000     
   2.0312500000000001E-002  0.97968750000000004        0.0000000000000000     
   2.1874999999999999E-002  0.99062499999999998        0.0000000000000000     
   1.0937499999999999E-002  0.98906249999999996        0.0000000000000000     
   4.6875000000000000E-002  0.96875000000000000        0.0000000000000000     
   6.2500000000000000E-002  0.96875000000000000        0.0000000000000000     
   6.2500000000000000E-002  0.98437500000000000        0.0000000000000000     
   4.0625000000000001E-002  0.97812500000000002        0.0000000000000000     
   5.1562499999999997E-002  0.97968750000000004        0.0000000000000000     
   5.3124999999999999E-002  0.99062499999999998        0.0000000000000000     
   4.2187500000000003E-002  0.98906249999999996        0.0000000000000000     
   1.5625000000000000E-002  0.93750000000000000        0.0000000000000000     
   3.1250000000000000E-002  0.93750000000000000        0.0000000000000000     
   3.1250000000000000E-002  0.95312500000000000        0.0000000000000000     
   9.3749999999999997E-003  0.94687500000000002        0.0000000000000000     
   2.0312500000000001E-002  0.94843750000000004        0.0000000000000000     
   2.1874999999999999E-002  0.95937499999999998        0.0000000000000000     
   1.0937499999999999E-002  0.95781249999999996        0.0000000000000000     
   4.6875000000000000E-002  0.93750000000000000        0.0000000000000000     
   6.2500000000000000E-002  0.93750000000000000        0.0000000000000000     
   6.2500000000000000E-002  0.95312500000000000        0.0000000000000000     
   4.0625000000000001E-002  0.94687500000000002        0.0000000000000000     
   5.1562499999999997E-002  0.94843750000000004        0.0000000000000000     
   5.3124999999999999E-002  0.95937499999999998        0.0000000000000000     
   4.2187500000000003E-002  0.95781249999999996        0.0000000000000000     
   7.8125000000000000E-002  0.96875000000000000        0.0000000000000000     
   9.3750000000000000E-002  0.96875000000000000        0.0000000000000000     
   9.3750000000000000E-002  0.98437500000000000        0.0000000000000000     
   7.1874999999999994E-002  0.97812500000000002        0.0000000000000000     
   8.2812499999999997E-002  0.97968750000000004        0.0000000000000000     
   8.4375000000000006E-002  0.99062499999999998        0.0000000000000000     
   7.3437500000000003E-002  0.98906249999999996        0.0000000000000000     
  0.10937500000000000       0.96875000000000000        0.0000000000000000     
  0.12500000000000000       0.96875000000000000        0.0000000000000000     
  0.12500000000000000       0.98437500000000000        0.0000000000000000     
  0.10312499999999999       0.97812500000000002        0.0000000000000000     
  0.11406250000000000       0.97968750000000004        0.0000000000000000     
  0.11562500000000001       0.99062499999999998        0.0000000000000000     
  0.10468750000000000       0.98906249999999996        0.0000000000000000     
   7.8125000000000000E-002  0.93750000000000000        0.0000000000000000     
   9.3750000000000000E-002  0.93750000000000000        0.0000000000000000     
   9.3750000000000000E-002  0.95312500000000000        0.0000000000000000     
   7.1874999999999994E-002  0.94687500000000002        0.0000000000000000     
   8.2812499999999997E-002  0.94843750000000004        0.0000000000000000     
   8.4375000000000006E-002  0.95937499999999998        0.0000000000000000     
   7.3437500000000003E-002  0.95781249999999996        0.0000000000000000     
  0.10937500000000000       0.93750000000000000        0.0000000000000000     
  0.12500000000000000       0.93750000000000000        0.0000000000000000     
  0.12500000000000000       0.95312500000000000        0.0000000000000000     
  0.10312499999999999       0.94687500000000002        0.0000000000000000     
  0.11406250000000000       0.94843750000000004        0.0000000000000000     
  0.11562500000000001       0.95937499999999998        0.0000000000000000     
  0.10468750000000000       0.95781249999999996        0.0000000000000000     
   1.5625000000000000E-002  0.90625000000000000        0.0000000000000000     
   3.1250000000000000E-002  0.90625000000000000        0.0000000000000000     
   3.1250000000000000E-002  0.92187500000000000        0.0000000000000000     
   9.3749999999999997E-003  0.91562500000000002        0.0000000000000000     
   2.0312500000000001E-002  0.91718750000000004        0.0000000000000000     
   2.1874999999999999E-002  0.92812499999999998        0.0000000000000000     
   1.0937499999999999E-002  0.92656249999999996        0.0000000000000000     
   4.6875000000000000E-002  0.90625000000000000        0.0000000000000000     
   6.2500000000000000E-002  0.90625000000000000        0.0000000000000000     
   6.2500000000000000E-002  0.92187500000000000        0.0000000000000000     
   4.0625000000000001E-002  0.91562500000000002        0.0000000000000000     
   5.1562499999999997E-002  0.91718750000000004        0.0000000000000000     
   5.3124999999999999E-002  0.92812499999999998        0.0000000000000000     
   4.2187500000000003E-002  0.92656249999999996        0.0000000000000000     
   1.5625000000000000E-002  0.87500000000000000        0.0000000000000000     
   3.1250000000000000E-002  0.87500000000000000        0.0000000000000000     
   3.1250000000000000E-002  0.89062500000000000        0.0000000000000000     
   9.3749999999999997E-003  0.88437500000000002        0.0000000000000000     
   2.0312500000000001E-002  0.88593750000000004        0.0000000000000000     
   2.1874999999999999E-002  0.89687499999999998        0.0000000000000000     
   1.0937499999999999E-002  0.89531249999999996        0.0000000000000000     
   4.6875000000000000E-002  0.87500000000000000        0.0000000000000000     
   6.2500000000000000E-002  0.87500000000000000        0.0000000000000000     
   6.2500000000000000E-002  0.89062500000000000        0.0000000000000000     
   4.0625000000000001E-002  0.88437500000000002        0.0000000000000000     
   5.1562499999999997E-002  0.88593750000000004        0.0000000000000000     
   5.3124999999999999E-002  0.89687499999999998        0.0000000000000000     
   4.2187500000000003E-002  0.89531249999999996        0.0000000000000000     
   7.8125000000000000E-002  0.90625000000000000        0.0000000000000000     
   9.3750000000000000E-002  0.90625000000000000        0.0000000000000000     
   9.3750000000000000E-002  0.92187500000000000        0.0000000000000000     
   7.1874999999999994E-002  0.91562500000000002        0.0000000000000000     
   8.2812499999999997E-002  0.91718750000000004        0.0000000000000000     
   8.4375000000000006E-002  0.92812499999999998        0.0000000000000000     
   7.3437500000000003E-002  0.92656249999999996        0.0000000000000000     
  0.10937500000000000       0.90625000000000000        0.0000000000000000     
  0.12500000000000000       0.90625000000000000        0.0000000000000000     
  0.12500000000000000       0.92187500000000000        0.0000000000000000     
  0.10312499999999999       0.91562500000000002        0.0000000000000000     
  0.11406250000000000       0.91718750000000004        0.0000000000000000     
  0.11562500000000001       0.92812499999999998        0.0000000000000000     
  0.10468750000000000       0.92656249999999996        0.0000000000000000     
   7.8125000000000000E-002  0.87500000000000000        0.0000000000000000     
   9.3750000000000000E-002  0.87500000000000000        0.0000000000000000     
   9.3750000000000000E-002  0.89062500000000000        0.0000000000000000     
   7.1874999999999994E-002  0.88437500000000002        0.0000000000000000     
   8.2812499999999997E-002  0.88593750000000004        0.0000000000000000     
   8.4375000000000006E-002  0.89687499999999998        0.0000000000000000     
   7.3437500000000003E-002  0.89531249999999996        0.0000000000000000     
  0.10937500000000000       0.87500000000000000        0.0000000000000000     
  0.12500000000000000       0.87500000000000000        0.0000000000000000     
  0.12500000000000000       0.89062500000000000        0.0000000000000000     
  0.10312499999999999       0.88437500000000002        0.0000000000000000     
  0.11406250000000000       0.88593750000000004        0.0000000000000000     
  0.11562500000000001       0.89687499999999998        0.0000000000000000     
  0.10468750000000000       0.89531249999999996        0.0000000000000000     
  0.14062500000000000       0.96875000000000000        0.0000000000000000     
  0.15625000000000000       0.96875000000000000        0.0000000000000000     
  0.15625000000000000       0.98437500000000000        0.0000000000000000     
  0.13437499999999999       0.97812500000000002        0.0000000000000000     
  0.14531250000000001       0.97968750000000004        0.0000000000000000     
  0.14687500000000001       0.99062499999999998        0.0000000000000000     
  0.13593749999999999       0.98906249999999996        0.0000000000000000     
  0.17187500000000000       0.96875000000000000        0.0000000000000000     
  0.18750000000000000       0.96875000000000000        0.0000000000000000     
  0.18750000000000000       0.98437500000000000        0.0000000000000000     
  0.16562499999999999       0.97812500000000002        0.0000000000000000     
  0.17656250000000001       0.97968750000000004        0.0000000000000000     
[...]
 CELL_DATA       14336
 SCALARS Tumor_cells float
 LOOKUP_TABLE default
    0.31861636179441585326E-01
    0.31861635924628636807E-01
    0.31861637916231332068E-01
    0.31861637916230825529E-01
    0.31861635924629316818E-01
    0.31861636179439850602E-01
    0.31861634600592915467E-01
    0.31861633666706468127E-01
    0.31861632658379414329E-01
    0.31861632658373453819E-01
    0.31861633666709791857E-01
    0.31861634600592193822E-01
    0.31861634454291548613E-01
    0.31861634454290480023E-01
    0.31861642726776488732E-01
    0.31861644471965093472E-01
    0.31861649209814685291E-01
    0.31861650522718408529E-01
    0.31861646969640430860E-01
    0.31861648672092457435E-01
    0.31861644948295068935E-01
    0.31861641852140791531E-01
    0.31861638584417970033E-01
    0.31861637415431284803E-01
    0.31861639450121215233E-01
    0.31861639199110079745E-01
    0.31861642389226771388E-01
    0.31861643089369534598E-01
    0.31861648672096287704E-01
    0.31861646969643171723E-01
    0.31861650522721461642E-01
    0.31861649209816843287E-01
    0.31861644471966939218E-01
    0.31861642726776821799E-01
    0.31861639199111259357E-01
    0.31861639450121777284E-01
    0.31861637415433213816E-01
    0.31861638584418719433E-01
    0.31861641852143393616E-01
    0.31861644948297941637E-01
    0.31861643089371879944E-01
    0.31861642389228492234E-01
    0.31861657468688256434E-01
    0.31861658232075470987E-01
    0.31861665647185052896E-01
    0.31861665647184490846E-01
    0.31861658232074589747E-01
    0.31861657468685966599E-01
    0.31861650898236219820E-01
    0.31861649025669097623E-01
    0.31861644142432511695E-01
    0.31861644142432546389E-01
    0.31861649025670103763E-01
    0.31861650898238023932E-01
    0.31861653055711265659E-01
    0.31861653055710953408E-01
    0.31861660245275515158E-01
    0.31861664970863616542E-01
    0.31861674227858544084E-01
    0.31861677679073274749E-01
    0.31861671554633513859E-01
    0.31861675701614869394E-01
    0.31861668386407769604E-01
    0.31861661599578913751E-01
    0.31861654583394974360E-01
    0.31861651619416807291E-01
    0.31861655361160576283E-01
    0.31861653561222925968E-01
    0.31861661740319895120E-01
    0.31861663606113282965E-01
    0.31861695345904071652E-01
    0.31861704886322408936E-01
    0.31861721268186614375E-01
    0.31861727933351749464E-01
    0.31861717591899929580E-01
    0.31861725269189636323E-01
    0.31861712316774662423E-01
    0.31861700003346850318E-01
    0.31861687206000841033E-01
    0.31861681393052107558E-01
    0.31861687964122926975E-01
    0.31861683620040007203E-01
    0.31861699753320760209E-01
    0.31861703375914832148E-01
    0.31861680458432031782E-01
    0.31861684153173405742E-01
    0.31861697173405055528E-01
    0.31861698912007185847E-01
    0.31861687336437183315E-01
    0.31861688002938294562E-01
    0.31861676587198628496E-01
    0.31861671546758431328E-01
    0.31861662212422411922E-01
    0.31861660806410896374E-01
    0.31861668621649401334E-01
    0.31861669496000347146E-01
    0.31861676650332550198E-01
    0.31861677543638750043E-01
    0.31861724044071892958E-01
    0.31861732559385021191E-01
    0.31861755001985653246E-01
    0.31861759653484582333E-01
    0.31861741102381678503E-01
    0.31861744072618471135E-01
    0.31861724780269738699E-01
    0.31861714621678562109E-01
    0.31861698135237911944E-01
    0.31861694401632667528E-01
    0.31861706794874988802E-01
    0.31861706093269361040E-01
    0.31861721304073054029E-01
    0.31861723698152759343E-01
    0.31861675701623341783E-01
    0.31861671554640862147E-01
    0.31861677679080956105E-01
    0.31861674227865129094E-01
    0.31861664970869160718E-01
    0.31861660245279518899E-01
    0.31861653561226638276E-01
    0.31861655361165010236E-01
    0.31861651619421220427E-01
    0.31861654583399817708E-01
    0.31861661599585117122E-01
    0.31861668386415152587E-01
    0.31861663606119451642E-01
    0.31861661740325522563E-01
    0.31861688002945288967E-01
    0.31861687336442595653E-01
    0.31861698912012431650E-01
    0.31861697173408913553E-01
    0.31861684153176368650E-01
    0.31861680458433232210E-01
    0.31861669496001512880E-01
    0.31861668621651899336E-01
    0.31861660806413769076E-01
    0.31861662212426124230E-01
    0.31861671546763198348E-01
    0.31861676587204901256E-01
    0.31861677543643017463E-01
    0.31861676650336095973E-01
    0.31861725269204846378E-01
    0.31861717591913710224E-01
    0.31861727933366071341E-01
    0.31861721268199576229E-01
    0.31861704886333726272E-01
    0.31861695345913494670E-01
    0.31861683620048569798E-01
    0.31861687964132717754E-01
    0.31861681393061447309E-01
    0.31861687206011117535E-01
    0.31861700003358847666E-01
    0.31861712316788436128E-01
    0.31861703375926905824E-01
    0.31861699753332133056E-01
    0.31861744072632175451E-01
    0.31861741102393523195E-01
    0.31861759653496482536E-01
    0.31861755001995895054E-01
    0.31861732559393833586E-01
    0.31861724044078498785E-01
    0.31861706093275481144E-01
    0.31861706794882829752E-01
    0.31861694401640543173E-01
    0.31861698135247029651E-01
    0.31861714621689171678E-01
    0.31861724780282395242E-01
    0.31861723698162966456E-01
    0.31861721304082400719E-01
    0.31861720071318273828E-01
    0.31861722941328149417E-01
    0.31861742265538728347E-01
    0.31861742265537909558E-01
    0.31861722941326629799E-01
    0.31861720071314700298E-01
    0.31861702462954888393E-01
    0.31861698382352025838E-01
    0.31861684875247771320E-01
    0.31861684875248388882E-01
    0.31861698382353427494E-01
    0.31861702462958177429E-01
    0.31861709541398899881E-01
    0.31861709541398469669E-01
    0.31861779795292206885E-01
    0.31861788314456206128E-01
    0.31861820880754086749E-01
    0.31861823924701257460E-01
    0.31861793612534987374E-01
    0.31861792013395555390E-01
    0.31861762822500014347E-01
    0.31861753386808432109E-01
    0.31861730301496291040E-01
    0.31861728239149879338E-01
    0.31861748838973129316E-01
    0.31861751951387733139E-01
    0.31861768586082556132E-01
    0.31861770027321698051E-01
    0.31861792013405915158E-01
    0.31861793612543001797E-01
    0.31861823924708800038E-01
    0.31861820880759679497E-01
    0.31861788314460584570E-01
    0.31861779795294059570E-01
    0.31861751951389440107E-01
    0.31861748838977063669E-01
    0.31861728239154341047E-01
    0.31861730301502314000E-01
    0.31861753386815752642E-01
    0.31861762822509694104E-01
    0.31861770027328123467E-01
    0.31861768586087940713E-01
    0.31861879401644435661E-01
    0.31861887481862846694E-01
    0.31861936610197982844E-01
    0.31861936610196844866E-01
    0.31861887481860709515E-01
    0.31861879401639467413E-01
    0.31861834774759581479E-01
    0.31861825169524848889E-01
    0.31861791135637355932E-01
    0.31861791135638299621E-01
    0.31861825169526833412E-01
    0.31861834774764306866E-01
    0.31861853639231635382E-01
    0.31861853639231024760E-01
    0.31861758452527394470E-01
    0.31861775631995443991E-01
    0.31861804055921899570E-01
    0.31861816004255458235E-01
    0.31861798316889851368E-01
    0.31861811887078803074E-01
    0.31861789499860980468E-01
    0.31861767946081684388E-01
    0.31861745637609059645E-01
    0.31861735323304003764E-01
    0.31861746544103460022E-01
    0.31861738446042286999E-01
    0.31861767128534633498E-01
    0.31861773582737104582E-01
    0.31861869113648980112E-01
    0.31861899176141225687E-01
    0.31861948695018460498E-01
    0.31861969333453782349E-01
    0.31861938414909425632E-01
    0.31861961526078390328E-01
    0.31861922955276622549E-01
    0.31861885815413257261E-01
    0.31861847195445651415E-01
    0.31861829324843174427E-01
    0.31861848677136220265E-01
    0.31861834388353937886E-01
    0.31861884431438954046E-01
    0.31861895619119368073E-01
    0.31861802634740185591E-01
    0.31861819344983152713E-01
    0.31861858353503413888E-01
    0.31861867943297712824E-01
    0.31861836714540632542E-01
    0.31861843130478795239E-01
    0.31861809821615391658E-01
    0.31861791373136792715E-01
    0.31861762799909314203E-01
    0.31861755452110819553E-01
    0.31861775751313159422E-01
    0.31861772518861006254E-01
    0.31861801299812447796E-01
    0.31861806128019601325E-01
    0.31861942705896040273E-01
    0.31861973597844144013E-01
    0.31862042191485848153E-01
    0.31862059877042513134E-01
    0.31862005386136489637E-01
    0.31862016857939608194E-01
    0.31861958765993146636E-01
    0.31861926280850612347E-01
    0.31861876486803289432E-01
    0.31861863169655717243E-01
    0.31861897870941485733E-01
    0.31861890789431183968E-01
    0.31861942794314396243E-01
    0.31861951604105924474E-01
    0.31862061439957567455E-01
    0.31862112583209881156E-01
    0.31862197844332085239E-01
    0.31862231778699567908E-01
    0.31862177822456171083E-01
    0.31862215588652528786E-01
    0.31862150314413022201E-01
    0.31862087689067966623E-01
    0.31862021949564230117E-01
    0.31861991484851130696E-01
    0.31862025099006464901E-01
    0.31862001081470636699E-01
    0.31862086315005165582E-01
    0.31862105034611391818E-01
    0.31862390075611847495E-01
    0.31862473312297183436E-01
    0.31862617652178064354E-01
    0.31862670018168996744E-01
    0.31862576431389622034E-01
    0.31862634739097180081E-01
    0.31862527489301038786E-01
    0.31862425241256778219E-01
    0.31862315987886274948E-01
    0.31862265753484872444E-01
    0.31862323663789646200E-01
    0.31862285535898801636E-01
    0.31862426037635949161E-01
    0.31862456014970938489E-01
    0.31862192052015785027E-01
    0.31862246746847761036E-01
    0.31862368459789548736E-01
    0.31862398528401454645E-01
    0.31862300734844820060E-01
    0.31862317984424147477E-01
    0.31862216332020444620E-01
    0.31862161351733406245E-01
    0.31862074610726820456E-01
    0.31862051816476610888E-01
    0.31862112849448141760E-01
    0.31862100332264504943E-01
    0.31862191764208423750E-01
    0.31862206774033140222E-01
    0.31862633427079720128E-01
    0.31862725727334693937E-01
    0.31862940849302759383E-01
    0.31862986839782489468E-01
    0.31862809483489386297E-01
    0.31862829356824780291E-01
    0.31862652625314992483E-01
    0.31862564185215665191E-01
    0.31862414688466039747E-01
    0.31862378050293224674E-01
    0.31862487429844044140E-01
    0.31862469463794958202E-01
    0.31862624309389964150E-01
    0.31862647815308897670E-01
    0.31861886711212629442E-01
    0.31861905212922703168E-01
    0.31861960983672762970E-01
    0.31861969577598667214E-01
    0.31861919853740962305E-01
    0.31861920545965510820E-01
    0.31861870745170578489E-01
    0.31861851955143245807E-01
    0.31861812184729110253E-01
    0.31861806650458630863E-01
    0.31861839682082185310E-01
    0.31861841215365727109E-01
    0.31861874367494942561E-01
    0.31861878300791110497E-01
    0.31862077719025258538E-01
    0.31862114784210596174E-01
    0.31862213172801183425E-01
    0.31862232162850695483E-01
    0.31862146529068574585E-01
    0.31862150729170833630E-01
    0.31862063315958685794E-01
    0.31862028234829017914E-01
    0.31861958338527736345E-01
    0.31861946719200943956E-01
    0.31862002136430096766E-01
    0.31862000543139402942E-01
    0.31862063935320462937E-01
    0.31862072401400348687E-01
    0.31862031048237579589E-01
    0.31862051559410985158E-01
    0.31862133018526007933E-01
    0.31862139751606594062E-01
    0.31862062589083910147E-01
    0.31862056336975856652E-01
    0.31861982191189561209E-01
    0.31861960929838270551E-01
    0.31861903431306480561E-01
    0.31861899557398341842E-01
    0.31861952076072168338E-01
    0.31861960899243958745E-01
    0.31862001171389375820E-01
    0.31862004080152023233E-01
    0.31862297033559923432E-01
    0.31862342729821052645E-01
    0.31862483302820980569E-01
    0.31862505051287806634E-01
    0.31862377479328976571E-01
    0.31862376275160954331E-01
    0.31862247646577017413E-01
    0.31862204009853289932E-01
    0.31862103877758909953E-01
    0.31862092396388229376E-01
    0.31862177072829032942E-01
    0.31862182707197393705E-01
    0.31862263863943106335E-01
    0.31862272891910070616E-01
    0.31862424426164256963E-01
    0.31862495356914231903E-01
    0.31862673141399032450E-01
    0.31862709761618361604E-01
    0.31862555832608240036E-01
    0.31862563350660892680E-01
    0.31862406692099720651E-01
    0.31862343991113824260E-01
    0.31862219440494388145E-01
    0.31862197679253037585E-01
    0.31862294746080974117E-01
    0.31862288299388405455E-01
    0.31862406070687146475E-01
    0.31862422131580095397E-01
    0.31863059566412228751E-01
    0.31863189088947918570E-01
    0.31863514494780580122E-01
    0.31863577317490308916E-01
    0.31863292328641996953E-01
    0.31863296369829902099E-01
    0.31863013182637942022E-01
    0.31862907123576672541E-01
    0.31862684161611143363E-01
    0.31862647263945886866E-01
    0.31862823402735322709E-01
    0.31862812085039118881E-01
    0.31863024489532987271E-01
    0.31863051866620258068E-01
    0.31862780264899928651E-01
    0.31862876928763592121E-01
    0.31863131177158582341E-01
    0.31863182729811027893E-01
    0.31862958407237976233E-01
    0.31862965562976422462E-01
    0.31862733450115428291E-01
    0.31862648585975997251E-01
    0.31862468273465373303E-01
    0.31862442247062222611E-01
    0.31862586483957539008E-01
    0.31862583717962224272E-01
    0.31862745225598267107E-01
    0.31862766251325502775E-01
    0.31863686058959242442E-01
    0.31863879837604323908E-01
    0.31864354946807629809E-01
    0.31864459421346018331E-01
    0.31864043390855370519E-01
    0.31864057008439174157E-01
    0.31863627136173133803E-01
    0.31863470355989555183E-01
    0.31863138692537838759E-01
    0.31863087645658226543E-01
    0.31863347337507855195E-01
    0.31863330207214983492E-01
    0.31863643065106958541E-01
    0.31863685046592288286E-01
    0.31861811887102672869E-01
    0.31861798316912028073E-01
    0.31861816004278370462E-01
    0.31861804055943153402E-01
    0.31861775632014567583E-01
    0.31861758452544158837E-01
    0.31861738446057767671E-01
    0.31861746544120522762E-01
    0.31861735323320372615E-01
    0.31861745637626684435E-01
    0.31861767946101529625E-01
    0.31861789499883053089E-01
    0.31861773582757081658E-01
    0.31861767128553757089E-01
    0.31861843130501221744E-01
    0.31861836714560894113E-01
    0.31861867943318258889E-01
    0.31861858353522017062E-01
    0.31861819344999812997E-01
    0.31861802634754181340E-01
    0.31861772518874072191E-01
    0.31861775751328265394E-01
    0.31861755452125717358E-01
    0.31861762799925780199E-01
    0.31861791373155243234E-01
    0.31861809821636354056E-01
    0.31861806128037725716E-01
    0.31861801299829559109E-01
    0.31861961526112959897E-01
    0.31861938414941969044E-01
    0.31861969333487276390E-01
    0.31861948695050011648E-01
    0.31861899176170112302E-01
    0.31861869113675035659E-01
    0.31861834388378293403E-01
    0.31861848677162497856E-01
    0.31861829324868536084E-01
    0.31861847195472602079E-01
    0.31861885815442941849E-01
    0.31861922955309027183E-01
    0.31861895619149240011E-01
    0.31861884431467785150E-01
    0.31862016857972769168E-01
    0.31862005386167221999E-01
    0.31862059877073821423E-01
    0.31862042191514949874E-01
    0.31861973597870699160E-01
    0.31861942705919424346E-01
    0.31861890789453187200E-01
    0.31861897870965875945E-01
    0.31861863169679628671E-01
    0.31861876486829053545E-01
    0.31861926280878923035E-01
    0.31861958766024441048E-01
    0.31861951604134013116E-01
    0.31861942794341312213E-01
    0.31861920545984655229E-01
    0.31861919853757469934E-01
    0.31861969577614980553E-01
    0.31861960983686835047E-01
    0.31861905212934998888E-01
    0.31861886711221927559E-01
    0.31861841215374456238E-01
    0.31861839682093454074E-01
    0.31861806650470191060E-01
    0.31861812184742537013E-01
    0.31861851955158476679E-01
    0.31861870745188647369E-01
    0.31861878300805550335E-01
    0.31861874367508188910E-01
    0.31862056336989755256E-01
    0.31862062589094658493E-01
    0.31862139751616613825E-01
    0.31862133018533432549E-01
    0.31862051559416841584E-01
    0.31862031048240070652E-01
    0.31861960899246276335E-01
    0.31861952076077552920E-01
    0.31861899557404524397E-01
    0.31861903431314869684E-01
    0.31861960929848269497E-01
    0.31861982191202786741E-01
    0.31862004080160717667E-01
    0.31862001171396675536E-01
    0.31862150729200969246E-01
    0.31862146529095795866E-01
    0.31862232162878062480E-01
    0.31862213172825976093E-01
    0.31862114784232987985E-01
    0.31862077719044139268E-01
    0.31862000543157201204E-01
    0.31862002136450767731E-01
    0.31861946719221607982E-01
    0.31861958338550565306E-01
    0.31862028234854240794E-01
    0.31862063315987274037E-01
    0.31862072401424905432E-01
    0.31862063935343638843E-01
    0.31862376275186149455E-01
    0.31862377479350695308E-01
    0.31862505051309150672E-01
    0.31862483302839410271E-01
    0.31862342729837227207E-01
    0.31862297033572205274E-01
    0.31862182707208926147E-01
    0.31862177072843986259E-01
    0.31862092396403703110E-01
    0.31862103877776909444E-01
    0.31862204009873495991E-01
    0.31862247646601032924E-01
    0.31862272891929117880E-01
    0.31862263863960564592E-01
    0.31862215588699907554E-01
    0.31862177822501190627E-01
    0.31862231778745815636E-01
    0.31862197844376077827E-01
    0.31862112583250619402E-01
    0.31862061439994975032E-01
    0.31862001081505879341E-01
    0.31862025099043962684E-01
    0.31861991484887483561E-01
    0.31862021949602470361E-01
    0.31862087689109482025E-01
    0.31862150314457833578E-01
    0.31862105034653177837E-01
    0.31862086315045744234E-01
    0.31862317984470277243E-01
    0.31862300734888250597E-01
    0.31862398528445828871E-01
    0.31862368459831431899E-01
    0.31862246746886431492E-01
    0.31862192052050770930E-01
    0.31862100332297575711E-01
    0.31862112849483897881E-01
    0.31862051816511603730E-01
    0.31862074610763964355E-01
    0.31862161351773686524E-01
    0.31862216332064194346E-01
    0.31862206774073344173E-01
    0.31862191764247274617E-01
    0.31862634739159748087E-01
    0.31862576431449504688E-01
    0.31862670018230468405E-01
    0.31862617652236913113E-01
    0.31862473312352125598E-01
    0.31862390075662883060E-01
    0.31862285535947144910E-01
    0.31862323663840605437E-01
    0.31862265753534402268E-01
    0.31862315987938059914E-01
    0.31862425241312476720E-01
    0.31862527489360636945E-01
    0.31862456015027004752E-01
    0.31862426037690586011E-01
    0.31862829356886418486E-01
    0.31862809483548130973E-01
    0.31862986839842774578E-01
    0.31862940849360248119E-01
    0.31862725727388081787E-01
    0.31862633427128854435E-01
    0.31862469463841469608E-01
    0.31862487429893567026E-01
    0.31862378050341561009E-01
    0.31862414688516867145E-01
    0.31862564185270302042E-01
    0.31862652625373646953E-01
    0.31862647815363714932E-01
    0.31862624309443247916E-01
    0.31862563350704496690E-01
    0.31862555832648652154E-01
    0.31862709761659377405E-01
    0.31862673141437189428E-01
    0.31862495356949196990E-01
    0.31862424426195176674E-01
    0.31862288299417604320E-01
    0.31862294746113350996E-01
    0.31862197679285046703E-01
    0.31862219440528874448E-01
    0.31862343991151398370E-01
    0.31862406692141208298E-01
    0.31862422131617183785E-01
    0.31862406070722673612E-01
    0.31862965563015800685E-01
    0.31862958407273524186E-01
    0.31863182729846770136E-01
    0.31863131177190993915E-01
    0.31862876928792867315E-01
    0.31862780264924624174E-01
    0.31862583717985490384E-01
    0.31862586483984593755E-01
    0.31862442247089395320E-01
    0.31862468273495446469E-01
    0.31862648586009074958E-01
    0.31862733450152912196E-01