# vtk DataFile Version 3.0
LAPLACIEN  2D
ASCII
DATASET UNSTRUCTURED_GRID
FIELD FieldData 1
TIME 1 1 double
8.5000
 POINTS        7297  float
   1.5625000000000000E-002  0.96875000000000000        0.0000000000000000     
   3.1250000000000000E-002  0.96875000000000000        0.0000000000000000     
   3.1250000000000000E-002  0.98437500000000000        0.0000000000000000     
   9.3749999999999997E-003  0.97812500000000002        0.0000000000000000     
   2.0312500000000001E-002  0.97968750000000004        0.0000000000000000     
   2.1874999999999999E-002  0.99062499999999998        0.0000000000000000     
   1.0937499999999999E-002  0.98906249999999996        0.0000000000000000     
   4.6875000000000000E-002  0.96875000000000000        0.0000000000000000     
   6.2500000000000000E-002  0.96875000000000000        0.0000000000000000     
   6.2500000000000000E-002  0.98437500000000000        0.0000000000000000     
   4.0625000000000001E-002  0.97812500000000002        0.0000000000000000     
   5.1562499999999997E-002  0.97968750000000004        0.0000000000000000     
   5.3124999999999999E-002  0.99062499999999998        0.0000000000000000     
   4.2187500000000003E-002  0.98906249999999996        0.0000000000000000     
   1.5625000000000000E-002  0.93750000000000000        0.0000000000000000     
   3.1250000000000000E-002  0.93750000000000000        0.0000000000000000     
   3.1250000000000000E-002  0.95312500000000000        0.0000000000000000     
   9.3749999999999997E-003  0.94687500000000002        0.0000000000000000     
   2.0312500000000001E-002  0.94843750000000004        0.0000000000000000     
   2.1874999999999999E-002  0.95937499999999998        0.0000000000000000     
   1.0937499999999999E-002  0.95781249999999996        0.0000000000000000     
   4.6875000000000000E-002  0.93750000000000000        0.0000000000000000     
   6.2500000000000000E-002  0.93750000000000000        0.0000000000000000     
   6.2500000000000000E-002  0.95312500000000000        0.0000000000000000     
   4.0625000000000001E-002  0.94687500000000002        0.0000000000000000     
   5.1562499999999997E-002  0.94843750000000004        0.0000000000000000     
   5.3124999999999999E-002  0.95937499999999998        0.0000000000000000     
   4.2187500000000003E-002  0.95781249999999996        0.0000000000000000     
   7.8125000000000000E-002  0.96875000000000000        0.0000000000000000     
   9.3750000000000000E-002  0.96875000000000000        0.0000000000000000     
   9.3750000000000000E-002  0.98437500000000000        0.0000000000000000     
   7.1874999999999994E-002  0.97812500000000002        0.0000000000000000     
   8.2812499999999997E-002  0.97968750000000004        0.0000000000000000     
   8.4375000000000006E-002  0.99062499999999998        0.0000000000000000     
   7.3437500000000003E-002  0.98906249999999996        0.0000000000000000     
  0.10937500000000000       0.96875000000000000        0.0000000000000000     
  0.12500000000000000       0.96875000000000000        0.0000000000000000     
  0.12500000000000000       0.98437500000000000        0.0000000000000000     
  0.10312499999999999       0.97812500000000002        0.0000000000000000     
  0.11406250000000000       0.97968750000000004        0.0000000000000000     
  0.11562500000000001       0.99062499999999998        0.0000000000000000     
  0.10468750000000000       0.98906249999999996        0.0000000000000000     
   7.8125000000000000E-002  0.93750000000000000        0.0000000000000000     
   9.3750000000000000E-002  0.93750000000000000        0.0000000000000000     
   9.3750000000000000E-002  0.95312500000000000        0.0000000000000000     
   7.1874999999999994E-002  0.94687500000000002        0.0000000000000000     
   8.2812499999999997E-002  0.94843750000000004        0.0000000000000000     
   8.4375000000000006E-002  0.95937499999999998        0.0000000000000000     
   7.3437500000000003E-002  0.95781249999999996        0.0000000000000000     
  0.10937500000000000       0.93750000000000000        0.0000000000000000     
  0.12500000000000000       0.93750000000000000        0.0000000000000000     
  0.12500000000000000       0.95312500000000000        0.0000000000000000     
  0.10312499999999999       0.94687500000000002        0.0000000000000000     
  0.11406250000000000       0.94843750000000004        0.0000000000000000     
  0.11562500000000001       0.95937499999999998        0.0000000000000000     
  0.10468750000000000       0.95781249999999996        0.0000000000000000     
   1.5625000000000000E-002  0.90625000000000000        0.0000000000000000     
   3.1250000000000000E-002  0.90625000000000000        0.0000000000000000     
   3.1250000000000000E-002  0.92187500000000000        0.0000000000000000     
   9.3749999999999997E-003  0.91562500000000002        0.0000000000000000     
   2.0312500000000001E-002  0.91718750000000004        0.0000000000000000     
   2.1874999999999999E-002  0.92812499999999998        0.0000000000000000     
   1.0937499999999999E-002  0.92656249999999996        0.0000000000000000     
   4.6875000000000000E-002  0.90625000000000000        0.0000000000000000     
   6.2500000000000000E-002  0.90625000000000000        0.0000000000000000     
   6.2500000000000000E-002  0.92187500000000000        0.0000000000000000     
   4.0625000000000001E-002  0.91562500000000002        0.0000000000000000     
   5.1562499999999997E-002  0.91718750000000004        0.0000000000000000     
   5.3124999999999999E-002  0.92812499999999998        0.0000000000000000     
   4.2187500000000003E-002  0.92656249999999996        0.0000000000000000     
   1.5625000000000000E-002  0.87500000000000000        0.0000000000000000     
   3.1250000000000000E-002  0.87500000000000000        0.0000000000000000     
   3.1250000000000000E-002  0.89062500000000000        0.0000000000000000     
   9.3749999999999997E-003  0.88437500000000002        0.0000000000000000     
   2.0312500000000001E-002  0.88593750000000004        0.0000000000000000     
   2.1874999999999999E-002  0.89687499999999998        0.0000000000000000     
   1.0937499999999999E-002  0.89531249999999996        0.0000000000000000     
   4.6875000000000000E-002  0.87500000000000000        0.0000000000000000     
   6.2500000000000000E-002  0.87500000000000000        0.0000000000000000     
   6.2500000000000000E-002  0.89062500000000000        0.0000000000000000     
   4.0625000000000001E-002  0.88437500000000002        0.0000000000000000     
   5.1562499999999997E-002  0.88593750000000004        0.0000000000000000     
   5.3124999999999999E-002  0.89687499999999998        0.0000000000000000     
   4.2187500000000003E-002  0.89531249999999996        0.0000000000000000     
   7.8125000000000000E-002  0.90625000000000000        0.0000000000000000     
   9.3750000000000000E-002  0.90625000000000000        0.0000000000000000     
   9.3750000000000000E-002  0.92187500000000000        0.0000000000000000     
   7.1874999999999994E-002  0.91562500000000002        0.0000000000000000     
   8.2812499999999997E-002  0.91718750000000004        0.0000000000000000     
   8.4375000000000006E-002  0.92812499999999998        0.0000000000000000     
   7.3437500000000003E-002  0.92656249999999996        0.0000000000000000     
  0.10937500000000000       0.90625000000000000        0.0000000000000000     
  0.12500000000000000       0.90625000000000000        0.0000000000000000     
  0.12500000000000000       0.92187500000000000        0.0000000000000000     
  0.10312499999999999       0.91562500000000002        0.0000000000000000     
  0.11406250000000000       0.91718750000000004        0.0000000000000000     
  0.11562500000000001       0.92812499999999998        0.0000000000000000     
  0.10468750000000000       0.92656249999999996        0.0000000000000000     
   7.8125000000000000E-002  0.87500000000000000        0.0000000000000000     
   9.3750000000000000E-002  0.87500000000000000        0.0000000000000000     
   9.3750000000000000E-002  0.89062500000000000        0.0000000000000000     
   7.1874999999999994E-002  0.88437500000000002        0.0000000000000000     
   8.2812499999999997E-002  0.88593750000000004        0.0000000000000000     
   8.4375000000000006E-002  0.89687499999999998        0.0000000000000000     
   7.3437500000000003E-002  0.89531249999999996        0.0000000000000000     
  0.10937500000000000       0.87500000000000000        0.0000000000000000     
  0.12500000000000000       0.87500000000000000        0.0000000000000000     
  0.12500000000000000       0.89062500000000000        0.0000000000000000     
  0.10312499999999999       0.88437500000000002        0.0000000000000000     
  0.11406250000000000       0.88593750000000004        0.0000000000000000     
  0.11562500000000001       0.89687499999999998        0.0000000000000000     
  0.10468750000000000       0.89531249999999996        0.0000000000000000     
  0.14062500000000000       0.96875000000000000        0.0000000000000000     
  0.15625000000000000       0.96875000000000000        0.0000000000000000     
  0.15625000000000000       0.98437500000000000        0.0000000000000000     
  0.13437499999999999       0.97812500000000002        0.0000000000000000     
  0.14531250000000001       0.97968750000000004        0.0000000000000000     
  0.14687500000000001       0.99062499999999998        0.0000000000000000     
  0.13593749999999999       0.98906249999999996        0.0000000000000000     
  0.17187500000000000       0.96875000000000000        0.0000000000000000     
  0.18750000000000000       0.96875000000000000        0.0000000000000000     
  0.18750000000000000       0.98437500000000000        0.0000000000000000     
  0.16562499999999999       0.97812500000000002        0.0000000000000000     
  0.17656250000000001       0.97968750000000004        0.0000000000000000     
[...]
 CELL_DATA       14336
 SCALARS Tumor_cells float
 LOOKUP_TABLE default
    0.23568661357868430500E-01
    0.23568661160337830984E-01
    0.23568662670104927048E-01
    0.23568662670103945195E-01
    0.23568661160337133625E-01
    0.23568661357865072076E-01
    0.23568660157795285476E-01
    0.23568659450141467987E-01
    0.23568658685706171674E-01
    0.23568658685703049172E-01
    0.23568659450143910478E-01
    0.23568660157796485904E-01
    0.23568660046869673030E-01
    0.23568660046868840363E-01
    0.23568666310138802061E-01
    0.23568667630315717765E-01
    0.23568671211933671372E-01
    0.23568672203873694548E-01
    0.23568669520649149218E-01
    0.23568670811121020942E-01
    0.23568667994588746173E-01
    0.23568665650845588289E-01
    0.23568663178585736589E-01
    0.23568662287697269425E-01
    0.23568663832731838459E-01
    0.23568663639821206546E-01
    0.23568666055011958799E-01
    0.23568666587844854660E-01
    0.23568670811133788506E-01
    0.23568669520659054489E-01
    0.23568672203884040439E-01
    0.23568671211941265992E-01
    0.23568667630321303574E-01
    0.23568666310140855974E-01
    0.23568663639823399236E-01
    0.23568663832735568114E-01
    0.23568662287701595826E-01
    0.23568663178590552182E-01
    0.23568665650853387605E-01
    0.23568667994599040022E-01
    0.23568666587852331318E-01
    0.23568666055018096250E-01
    0.23568677441568250397E-01
    0.23568678014750019806E-01
    0.23568683602317588160E-01
    0.23568683602315718129E-01
    0.23568678014746775873E-01
    0.23568677441560617614E-01
    0.23568672484077568541E-01
    0.23568671069236938470E-01
    0.23568667379512676235E-01
    0.23568667379513699722E-01
    0.23568671069239811172E-01
    0.23568672484084122326E-01
    0.23568674110464041954E-01
    0.23568674110463129490E-01
    0.23568679539820128199E-01
    0.23568683104378373994E-01
    0.23568690078111683567E-01
    0.23568692678485780173E-01
    0.23568688068053809948E-01
    0.23568691193750577334E-01
    0.23568685683271011627E-01
    0.23568680566228066009E-01
    0.23568675274742725834E-01
    0.23568673034084827028E-01
    0.23568675859665551287E-01
    0.23568674498649917759E-01
    0.23568680670724821008E-01
    0.23568682079172176280E-01
    0.23568705967512600108E-01
    0.23568713142185070825E-01
    0.23568725449238516617E-01
    0.23568730457749365731E-01
    0.23568722694322946642E-01
    0.23568728464230290220E-01
    0.23568718735319391100E-01
    0.23568709478258263040E-01
    0.23568699853996146615E-01
    0.23568695478521920622E-01
    0.23568700421133612077E-01
    0.23568697149928919538E-01
    0.23568709287546930897E-01
    0.23568712011965465419E-01
    0.23568694750998191861E-01
    0.23568697531892040392E-01
    0.23568707322082077527E-01
    0.23568708631611673399E-01
    0.23568699932035554884E-01
    0.23568700438986147500E-01
    0.23568691851597801945E-01
    0.23568688052738241689E-01
    0.23568681020610611487E-01
    0.23568679959087512898E-01
    0.23568685844368098686E-01
    0.23568686500813850609E-01
    0.23568691890008777734E-01
    0.23568692563608335810E-01
    0.23568727505895403079E-01
    0.23568733900988247248E-01
    0.23568750738055564004E-01
    0.23568754230875482714E-01
    0.23568740321290429507E-01
    0.23568742558460125530E-01
    0.23568728082526000517E-01
    0.23568720447825618203E-01
    0.23568708061738542076E-01
    0.23568705251719033328E-01
    0.23568714560060970847E-01
    0.23568714027728410870E-01
    0.23568725458085547364E-01
    0.23568727258022996451E-01
    0.23568691193779797016E-01
    0.23568688068079251402E-01
    0.23568692678512283278E-01
    0.23568690078134488242E-01
    0.23568683104397303296E-01
    0.23568679539834144765E-01
    0.23568674498662327971E-01
    0.23568675859681146451E-01
    0.23568673034099617281E-01
    0.23568675274759753879E-01
    0.23568680566249271269E-01
    0.23568685683296574512E-01
    0.23568682079193374601E-01
    0.23568680670744229094E-01
    0.23568700439010239339E-01
    0.23568699932054272550E-01
    0.23568708631629711053E-01
    0.23568707322095407142E-01
    0.23568697531902226688E-01
    0.23568694751002421117E-01
    0.23568686500817732921E-01
    0.23568685844376872918E-01
    0.23568679959097192655E-01
    0.23568681020623608036E-01
    0.23568688052754603601E-01
    0.23568691851619590072E-01
    0.23568692563623039327E-01
    0.23568691890021111618E-01
    0.23568728464282529683E-01
    0.23568722694370387860E-01
    0.23568730457798583305E-01
    0.23568725449283074724E-01
    0.23568713142224043122E-01
    0.23568705967545140051E-01
    0.23568697149958434123E-01
    0.23568700421167473880E-01
    0.23568695478554151784E-01
    0.23568699854031718854E-01
    0.23568709478299611909E-01
    0.23568718735366710887E-01
    0.23568712012007050211E-01
    0.23568709287586173812E-01
    0.23568742558507268375E-01
    0.23568740321331164284E-01
    0.23568754230916262593E-01
    0.23568750738090674807E-01
    0.23568733901018493887E-01
    0.23568727505918134896E-01
    0.23568714027749442658E-01
    0.23568714560087987431E-01
    0.23568705251746164403E-01
    0.23568708061770041184E-01
    0.23568720447862130662E-01
    0.23568728082569549015E-01
    0.23568727258058100316E-01
    0.23568725458117716076E-01
    0.23568724518264076717E-01
    0.23568726670230376319E-01
    0.23568741171064847006E-01
    0.23568741171061988182E-01
    0.23568726670225106229E-01
    0.23568724518251819161E-01
    0.23568711294883339102E-01
    0.23568708226301263164E-01
    0.23568698072992614462E-01
    0.23568698072994803683E-01
    0.23568708226306040593E-01
    0.23568711294894652969E-01
    0.23568716609098042808E-01
    0.23568716609096568293E-01
    0.23568769307270580338E-01
    0.23568775691425979113E-01
    0.23568800086970802948E-01
    0.23568802368032215622E-01
    0.23568779665515141031E-01
    0.23568778473361889914E-01
    0.23568756597765219002E-01
    0.23568749517057181742E-01
    0.23568732200348618128E-01
    0.23568730650109701724E-01
    0.23568746101647049945E-01
    0.23568748434787543250E-01
    0.23568760908549570010E-01
    0.23568761990150146474E-01
    0.23568778473397236639E-01
    0.23568779665542462926E-01
    0.23568802368057854835E-01
    0.23568800086989760006E-01
    0.23568775691440821407E-01
    0.23568769307276835751E-01
    0.23568748434793410085E-01
    0.23568746101660528747E-01
    0.23568730650125008924E-01
    0.23568732200369313379E-01
    0.23568749517082147882E-01
    0.23568756597798324465E-01
    0.23568761990172069909E-01
    0.23568760908567978896E-01
    0.23568843890846704475E-01
    0.23568849935040103727E-01
    0.23568886689230544862E-01
    0.23568886689226714592E-01
    0.23568849935032873399E-01
    0.23568843890829829085E-01
    0.23568810488330406427E-01
    0.23568803294438563090E-01
    0.23568777804589238073E-01
    0.23568777804592443842E-01
    0.23568803294445300756E-01
    0.23568810488346365883E-01
    0.23568824608261925574E-01
    0.23568824608259875131E-01
    0.23568753356242002489E-01
    0.23568766243706563285E-01
    0.23568787547885574479E-01
    0.23568796505032404281E-01
    0.23568783256981386959E-01
    0.23568793431143167383E-01
    0.23568776654328094794E-01
    0.23568760491096334836E-01
    0.23568743756391858507E-01
    0.23568736014212218061E-01
    0.23568744431318212895E-01
    0.23568738349487781264E-01
    0.23568759873689601458E-01
    0.23568764715163264406E-01
    0.23568836269664553834E-01
    0.23568858777307976488E-01
    0.23568895825037464858E-01
    0.23568911269243431050E-01
    0.23568888149666431669E-01
    0.23568905445979178304E-01
    0.23568876591489613254E-01
    0.23568848793706163175E-01
    0.23568819881721395082E-01
    0.23568806496181350651E-01
    0.23568820983228332827E-01
    0.23568810275893727069E-01
    0.23568847751285395414E-01
    0.23568856127028157965E-01
    0.23568786440844757823E-01
    0.23568798963715581474E-01
    0.23568828171176975372E-01
    0.23568835355443486929E-01
    0.23568811985579356250E-01
    0.23568816802082368650E-01
    0.23568791861297438278E-01
    0.23568778029331709234E-01
    0.23568756612482991142E-01
    0.23568751096488687463E-01
    0.23568766308149479566E-01
    0.23568763877057603146E-01
    0.23568785455306686533E-01
    0.23568789076237543767E-01
    0.23568891285650459683E-01
    0.23568914396603624778E-01
    0.23568965679054580675E-01
    0.23568978907632258391E-01
    0.23568938185471816071E-01
    0.23568946779593199364E-01
    0.23568903348893215088E-01
    0.23568879037396260612E-01
    0.23568841782339051277E-01
    0.23568831806515096183E-01
    0.23568857764049638143E-01
    0.23568852453690763288E-01
    0.23568891372640728837E-01
    0.23568897967166692331E-01
    0.23568980129167596549E-01
    0.23569018365592893371E-01
    0.23569082074743667732E-01
    0.23569107438993125436E-01
    0.23569067136094828951E-01
    0.23569095365265746445E-01
    0.23569046592308344479E-01
    0.23568999781801804050E-01
    0.23568950637278936189E-01
    0.23568927854439560704E-01
    0.23568952980992548263E-01
    0.23568935012305142207E-01
    0.23568998745221839825E-01
    0.23569012740674018941E-01
    0.23569225666236200828E-01
    0.23569287839547477942E-01
    0.23569395609367941452E-01
    0.23569434719928950006E-01
    0.23569364861373610226E-01
    0.23569408409889809619E-01
    0.23569328332802303577E-01
    0.23569251972172453047E-01
    0.23569170373947383873E-01
    0.23569132845173475926E-01
    0.23569176092549593698E-01
    0.23569147597910351799E-01
    0.23569252553359107405E-01
    0.23569274945393493825E-01
    0.23569077665527449900E-01
    0.23569118536059866648E-01
    0.23569209438830396319E-01
    0.23569231906941216087E-01
    0.23569158888870348628E-01
    0.23569171795882651321E-01
    0.23569095875603199297E-01
    0.23569054781432449003E-01
    0.23568989965048685320E-01
    0.23568972915963357778E-01
    0.23569018514066154835E-01
    0.23569009143628374958E-01
    0.23569077479547860532E-01
    0.23569088700724445673E-01
    0.23569407277856731231E-01
    0.23569476196126360606E-01
    0.23569636761889469628E-01
    0.23569671105069623512E-01
    0.23569538751498794737E-01
    0.23569553616097468213E-01
    0.23569421704320428490E-01
    0.23569355654742440986E-01
    0.23569244035265508874E-01
    0.23569216659335423536E-01
    0.23569298313476445134E-01
    0.23569284875902974524E-01
    0.23569400509774664221E-01
    0.23569418068135748745E-01
    0.23568849363820209425E-01
    0.23568863208480800991E-01
    0.23568904925214628765E-01
    0.23568911354063352970E-01
    0.23568874169367596411E-01
    0.23568874696143073816E-01
    0.23568837439246138193E-01
    0.23568823367083015924E-01
    0.23568793590393172926E-01
    0.23568789440449707667E-01
    0.23568814169953610643E-01
    0.23568815314061606486E-01
    0.23568840133650115903E-01
    0.23568843079412451352E-01
    0.23568992191885830556E-01
    0.23569019892877261790E-01
    0.23569093403012771754E-01
    0.23569107591766117610E-01
    0.23569043623300804657E-01
    0.23569046773362030411E-01
    0.23568981459149936086E-01
    0.23568955226607134906E-01
    0.23568902971023798776E-01
    0.23568894274764266850E-01
    0.23568935703522100877E-01
    0.23568934506848632227E-01
    0.23568981899205292824E-01
    0.23568988229711505811E-01
    0.23568957302177971636E-01
    0.23568972633346237100E-01
    0.23569033513856963574E-01
    0.23569038544065851887E-01
    0.23568980878337530971E-01
    0.23568976207390408828E-01
    0.23568920779822387368E-01
    0.23568904878250536428E-01
    0.23568861872768312460E-01
    0.23568858973091775383E-01
    0.23568898254718216589E-01
    0.23568904853531559562E-01
    0.23568934966392902919E-01
    0.23568937141403300400E-01
    0.23569156041198250501E-01
    0.23569190166288091215E-01
    0.23569295142930976605E-01
    0.23569311377656217837E-01
    0.23569216115188539734E-01
    0.23569215216417915837E-01
    0.23569119150853704014E-01
    0.23569086550879556757E-01
    0.23569011739394941929E-01
    0.23569003158105249207E-01
    0.23569066425951312044E-01
    0.23569070637715610478E-01
    0.23569131261604165523E-01
    0.23569138004500136269E-01
    0.23569251176311829116E-01
    0.23569304140545466880E-01
    0.23569436867829557380E-01
    0.23569464209060524140E-01
    0.23569349306570990671E-01
    0.23569354935810953727E-01
    0.23569237977725660677E-01
    0.23569191139495095783E-01
    0.23569098117730769709E-01
    0.23569081852269798544E-01
    0.23569154344219227920E-01
    0.23569149521542227116E-01
    0.23569237481915993049E-01
    0.23569249479424340954E-01
    0.23569725288210659903E-01
    0.23569821952649158692E-01
    0.23570064773951522608E-01
    0.23570111658032438795E-01
    0.23569899014365264245E-01
    0.23569902052128981901E-01
    0.23569690731959309915E-01
    0.23569611556412514014E-01
    0.23569445139897941821E-01
    0.23569417583323769988E-01
    0.23569549045438942941E-01
    0.23569540585891033541E-01
    0.23569699128090943613E-01
    0.23569719566133632421E-01
    0.23569516835266181298E-01
    0.23569588978687255193E-01
    0.23569778736562446014E-01
    0.23569817203335050038E-01
    0.23569649785730516917E-01
    0.23569655126288960312E-01
    0.23569481882045939525E-01
    0.23569418528956487952E-01
    0.23569283914337584712E-01
    0.23569264480288790869E-01
    0.23569372168903496984E-01
    0.23569370108593352270E-01
    0.23569490669976041891E-01
    0.23569506363240972507E-01
    0.23570192789131267502E-01
    0.23570337363859512197E-01
    0.23570691838359116022E-01
    0.23570769776246620897E-01
    0.23570459384975234185E-01
    0.23570469547289453482E-01
    0.23570148816643529677E-01
    0.23570031827074660463E-01
    0.23569784336091997856E-01
    0.23569746238858720055E-01
    0.23569940031389471913E-01
    0.23569927254801701505E-01
    0.23570160696825936952E-01
    0.23570192020195300520E-01
    0.23568793431224838164E-01
    0.23568783257057256825E-01
    0.23568796505110737455E-01
    0.23568787547958314904E-01
    0.23568766243772062974E-01
    0.23568753356299525920E-01
    0.23568738349540971355E-01
    0.23568744431376811854E-01
    0.23568736014268454326E-01
    0.23568743756452403826E-01
    0.23568760491164325588E-01
    0.23568776654403603837E-01
    0.23568764715231720064E-01
    0.23568759873755149720E-01
    0.23568816802158970569E-01
    0.23568811985648554369E-01
    0.23568835355513437918E-01
    0.23568828171240313596E-01
    0.23568798963772400606E-01
    0.23568786440892518230E-01
    0.23568763877102359011E-01
    0.23568766308201264531E-01
    0.23568751096539834050E-01
    0.23568756612539491085E-01
    0.23568778029394884393E-01
    0.23568791861369176033E-01
    0.23568789076299549723E-01
    0.23568785455365198755E-01
    0.23568905446096473366E-01
    0.23568888149776947433E-01
    0.23568911269357104010E-01
    0.23568895825144615258E-01
    0.23568858777406279797E-01
    0.23568836269753399432E-01
    0.23568810275976969509E-01
    0.23568820983317993745E-01
    0.23568806496267954986E-01
    0.23568819881813248690E-01
    0.23568848793807065101E-01
    0.23568876591599535741E-01
    0.23568856127129746841E-01
    0.23568847751383532191E-01
    0.23568946779705477607E-01
    0.23568938185575736416E-01
    0.23568978907737670597E-01
    0.23568965679152484999E-01
    0.23568914396693362023E-01
    0.23568891285729635932E-01
    0.23568852453765630484E-01
    0.23568857764132540578E-01
    0.23568831806596652473E-01
    0.23568841782426883796E-01
    0.23568879037492378170E-01
    0.23568903348999387104E-01
    0.23568897967261887016E-01
    0.23568891372731902434E-01
    0.23568874696207942065E-01
    0.23568874169423440629E-01
    0.23568911354118253498E-01
    0.23568904925261903449E-01
    0.23568863208522260883E-01
    0.23568849363851538531E-01
    0.23568815314091225155E-01
    0.23568814169991882113E-01
    0.23568789440489068543E-01
    0.23568793590438900237E-01
    0.23568823367134679458E-01
    0.23568837439307484954E-01
    0.23568843079461304635E-01
    0.23568840133694882177E-01
    0.23568976207436913295E-01
    0.23568980878373380766E-01
    0.23569038544099040616E-01
    0.23569033513881513381E-01
    0.23568972633365690289E-01
    0.23568957302186204633E-01
    0.23568904853539369287E-01
    0.23568898254736309755E-01
    0.23568858973112689209E-01
    0.23568861872796598861E-01
    0.23568904878284054755E-01
    0.23568920779866681797E-01
    0.23568937141432370896E-01
    0.23568934966417303539E-01
    0.23569046773462779681E-01
    0.23569043623391565390E-01
    0.23569107591856701400E-01
    0.23569093403094813766E-01
    0.23569019892951809797E-01
    0.23568992191948714282E-01
    0.23568934506908476717E-01
    0.23568935703591611247E-01
    0.23568894274834120695E-01
    0.23568902971100955807E-01
    0.23568955226691900434E-01
    0.23568981459245887111E-01
    0.23568988229793728234E-01
    0.23568981899282893944E-01
    0.23569215216500519899E-01
    0.23569216115259500333E-01
    0.23569311377725301465E-01
    0.23569295142990488029E-01
    0.23569190166340771297E-01
    0.23569156041238163019E-01
    0.23569070637753750108E-01
    0.23569066426000775949E-01
    0.23569003158156763555E-01
    0.23569011739454796828E-01
    0.23569086550946329733E-01
    0.23569119150932807405E-01
    0.23569138004562714683E-01
    0.23569131261661522420E-01
    0.23569095365424709565E-01
    0.23569067136246069083E-01
    0.23569107439148195837E-01
    0.23569082074891351680E-01
    0.23569018365730158571E-01
    0.23568980129293957276E-01
    0.23568935012424633429E-01
    0.23568952981119443285E-01
    0.23568927854562712193E-01
    0.23568950637408277171E-01
    0.23568999781941761540E-01
    0.23569046592458786638E-01
    0.23569012740814854201E-01
    0.23568998745358699098E-01
    0.23569171796036708644E-01
    0.23569158889015145997E-01
    0.23569231907088261657E-01
    0.23569209438969073583E-01
    0.23569118536188735785E-01
    0.23569077665644307812E-01
    0.23569009143739629714E-01
    0.23569018514186402397E-01
    0.23568972916081534080E-01
    0.23568989965174050316E-01
    0.23569054781567691514E-01
    0.23569095875749922209E-01
    0.23569088700859015112E-01
    0.23569077479677878056E-01
    0.23569408410096318041E-01
    0.23569364861571514419E-01
    0.23569434720131409583E-01
    0.23569395609562140276E-01
    0.23569287839729703704E-01
    0.23569225666406085767E-01
    0.23569147598072132110E-01
    0.23569176092719735377E-01
    0.23569132845339207938E-01
    0.23569170374120190087E-01
    0.23569251972357416203E-01
    0.23569328332999184283E-01
    0.23569274945579556796E-01
    0.23569252553540694789E-01
    0.23569553616299306759E-01
    0.23569538751690585765E-01
    0.23569671105264571737E-01
    0.23569636762075237696E-01
    0.23569476196300585824E-01
    0.23569407278017494994E-01
    0.23569284876056761230E-01
    0.23569298313640144049E-01
    0.23569216659496284444E-01
    0.23569244035434439716E-01
    0.23569355654922838350E-01
    0.23569421704513700971E-01
    0.23569418068315795695E-01
    0.23569400509949670064E-01
    0.23569354935953842900E-01
    0.23569349306703013536E-01
    0.23569464209193206200E-01
    0.23569436867952826831E-01
    0.23569304140659524949E-01
    0.23569251176412737980E-01
    0.23569149521638695088E-01
    0.23569154344326333217E-01
    0.23569081852376477099E-01
    0.23569098117845660445E-01
    0.23569191139619249942E-01
    0.23569237977862464439E-01
    0.23569249479546257320E-01
    0.23569237482032771164E-01
    0.23569655126414242041E-01
    0.23569649785843214962E-01
    0.23569817203446783577E-01
    0.23569778736663670599E-01
    0.23569588978779844324E-01
    0.23569516835344431205E-01
    0.23569370108668382530E-01
    0.23569372168990854188E-01
    0.23569264480377404014E-01
    0.23569283914435485566E-01
    0.23569418529063034667E-01
    0.23569481882166339742E-01