# vtk DataFile Version 3.0
LAPLACIEN  2D
ASCII
DATASET UNSTRUCTURED_GRID
FIELD FieldData 1
TIME 1 1 double
4.8000
 POINTS        7297  float
   1.5625000000000000E-002  0.96875000000000000        0.0000000000000000     
   3.1250000000000000E-002  0.96875000000000000        0.0000000000000000     
   3.1250000000000000E-002  0.98437500000000000        0.0000000000000000     
   9.3749999999999997E-003  0.97812500000000002        0.0000000000000000     
   2.0312500000000001E-002  0.97968750000000004        0.0000000000000000     
   2.1874999999999999E-002  0.99062499999999998        0.0000000000000000     
   1.0937499999999999E-002  0.98906249999999996        0.0000000000000000     
   4.6875000000000000E-002  0.96875000000000000        0.0000000000000000     
   6.2500000000000000E-002  0.96875000000000000        0.0000000000000000     
   6.2500000000000000E-002  0.98437500000000000        0.0000000000000000     
   4.0625000000000001E-002  0.97812500000000002        0.0000000000000000     
   5.1562499999999997E-002  0.97968750000000004        0.0000000000000000     
   5.3124999999999999E-002  0.99062499999999998        0.0000000000000000     
   4.2187500000000003E-002  0.98906249999999996        0.0000000000000000     
   1.5625000000000000E-002  0.93750000000000000        0.0000000000000000     
   3.1250000000000000E-002  0.93750000000000000        0.0000000000000000     
   3.1250000000000000E-002  0.95312500000000000        0.0000000000000000     
   9.3749999999999997E-003  0.94687500000000002        0.0000000000000000     
   2.0312500000000001E-002  0.94843750000000004        0.0000000000000000     
   2.1874999999999999E-002  0.95937499999999998        0.0000000000000000     
   1.0937499999999999E-002  0.95781249999999996        0.0000000000000000     
   4.6875000000000000E-002  0.93750000000000000        0.0000000000000000     
   6.2500000000000000E-002  0.93750000000000000        0.0000000000000000     
   6.2500000000000000E-002  0.95312500000000000        0.0000000000000000     
   4.0625000000000001E-002  0.94687500000000002        0.0000000000000000     
   5.1562499999999997E-002  0.94843750000000004        0.0000000000000000     
   5.3124999999999999E-002  0.95937499999999998        0.0000000000000000     
   4.2187500000000003E-002  0.95781249999999996        0.0000000000000000     
   7.8125000000000000E-002  0.96875000000000000        0.0000000000000000     
   9.3750000000000000E-002  0.96875000000000000        0.0000000000000000     
   9.3750000000000000E-002  0.98437500000000000        0.0000000000000000     
   7.1874999999999994E-002  0.97812500000000002        0.0000000000000000     
   8.2812499999999997E-002  0.97968750000000004        0.0000000000000000     
   8.4375000000000006E-002  0.99062499999999998        0.0000000000000000     
   7.3437500000000003E-002  0.98906249999999996        0.0000000000000000     
  0.10937500000000000       0.96875000000000000        0.0000000000000000     
  0.12500000000000000       0.96875000000000000        0.0000000000000000     
  0.12500000000000000       0.98437500000000000        0.0000000000000000     
  0.10312499999999999       0.97812500000000002        0.0000000000000000     
  0.11406250000000000       0.97968750000000004        0.0000000000000000     
  0.11562500000000001       0.99062499999999998        0.0000000000000000     
  0.10468750000000000       0.98906249999999996        0.0000000000000000     
   7.8125000000000000E-002  0.93750000000000000        0.0000000000000000     
   9.3750000000000000E-002  0.93750000000000000        0.0000000000000000     
   9.3750000000000000E-002  0.95312500000000000        0.0000000000000000     
   7.1874999999999994E-002  0.94687500000000002        0.0000000000000000     
   8.2812499999999997E-002  0.94843750000000004        0.0000000000000000     
   8.4375000000000006E-002  0.95937499999999998        0.0000000000000000     
   7.3437500000000003E-002  0.95781249999999996        0.0000000000000000     
  0.10937500000000000       0.93750000000000000        0.0000000000000000     
  0.12500000000000000       0.93750000000000000        0.0000000000000000     
  0.12500000000000000       0.95312500000000000        0.0000000000000000     
  0.10312499999999999       0.94687500000000002        0.0000000000000000     
  0.11406250000000000       0.94843750000000004        0.0000000000000000     
  0.11562500000000001       0.95937499999999998        0.0000000000000000     
  0.10468750000000000       0.95781249999999996        0.0000000000000000     
   1.5625000000000000E-002  0.90625000000000000        0.0000000000000000     
   3.1250000000000000E-002  0.90625000000000000        0.0000000000000000     
   3.1250000000000000E-002  0.92187500000000000        0.0000000000000000     
   9.3749999999999997E-003  0.91562500000000002        0.0000000000000000     
   2.0312500000000001E-002  0.91718750000000004        0.0000000000000000     
   2.1874999999999999E-002  0.92812499999999998        0.0000000000000000     
   1.0937499999999999E-002  0.92656249999999996        0.0000000000000000     
   4.6875000000000000E-002  0.90625000000000000        0.0000000000000000     
   6.2500000000000000E-002  0.90625000000000000        0.0000000000000000     
   6.2500000000000000E-002  0.92187500000000000        0.0000000000000000     
   4.0625000000000001E-002  0.91562500000000002        0.0000000000000000     
   5.1562499999999997E-002  0.91718750000000004        0.0000000000000000     
   5.3124999999999999E-002  0.92812499999999998        0.0000000000000000     
   4.2187500000000003E-002  0.92656249999999996        0.0000000000000000     
   1.5625000000000000E-002  0.87500000000000000        0.0000000000000000     
   3.1250000000000000E-002  0.87500000000000000        0.0000000000000000     
   3.1250000000000000E-002  0.89062500000000000        0.0000000000000000     
   9.3749999999999997E-003  0.88437500000000002        0.0000000000000000     
   2.0312500000000001E-002  0.88593750000000004        0.0000000000000000     
   2.1874999999999999E-002  0.89687499999999998        0.0000000000000000     
   1.0937499999999999E-002  0.89531249999999996        0.0000000000000000     
   4.6875000000000000E-002  0.87500000000000000        0.0000000000000000     
   6.2500000000000000E-002  0.87500000000000000        0.0000000000000000     
   6.2500000000000000E-002  0.89062500000000000        0.0000000000000000     
   4.0625000000000001E-002  0.88437500000000002        0.0000000000000000     
   5.1562499999999997E-002  0.88593750000000004        0.0000000000000000     
   5.3124999999999999E-002  0.89687499999999998        0.0000000000000000     
   4.2187500000000003E-002  0.89531249999999996        0.0000000000000000     
   7.8125000000000000E-002  0.90625000000000000        0.0000000000000000     
   9.3750000000000000E-002  0.90625000000000000        0.0000000000000000     
   9.3750000000000000E-002  0.92187500000000000        0.0000000000000000     
   7.1874999999999994E-002  0.91562500000000002        0.0000000000000000     
   8.2812499999999997E-002  0.91718750000000004        0.0000000000000000     
   8.4375000000000006E-002  0.92812499999999998        0.0000000000000000     
   7.3437500000000003E-002  0.92656249999999996        0.0000000000000000     
  0.10937500000000000       0.90625000000000000        0.0000000000000000     
  0.12500000000000000       0.90625000000000000        0.0000000000000000     
  0.12500000000000000       0.92187500000000000        0.0000000000000000     
  0.10312499999999999       0.91562500000000002        0.0000000000000000     
  0.11406250000000000       0.91718750000000004        0.0000000000000000     
  0.11562500000000001       0.92812499999999998        0.0000000000000000     
  0.10468750000000000       0.92656249999999996        0.0000000000000000     
   7.8125000000000000E-002  0.87500000000000000        0.0000000000000000     
   9.3750000000000000E-002  0.87500000000000000        0.0000000000000000     
   9.3750000000000000E-002  0.89062500000000000        0.0000000000000000     
   7.1874999999999994E-002  0.88437500000000002        0.0000000000000000     
   8.2812499999999997E-002  0.88593750000000004        0.0000000000000000     
   8.4375000000000006E-002  0.89687499999999998        0.0000000000000000     
   7.3437500000000003E-002  0.89531249999999996        0.0000000000000000     
  0.10937500000000000       0.87500000000000000        0.0000000000000000     
  0.12500000000000000       0.87500000000000000        0.0000000000000000     
  0.12500000000000000       0.89062500000000000        0.0000000000000000     
  0.10312499999999999       0.88437500000000002        0.0000000000000000     
  0.11406250000000000       0.88593750000000004        0.0000000000000000     
  0.11562500000000001       0.89687499999999998        0.0000000000000000     
  0.10468750000000000       0.89531249999999996        0.0000000000000000     
  0.14062500000000000       0.96875000000000000        0.0000000000000000     
  0.15625000000000000       0.96875000000000000        0.0000000000000000     
  0.15625000000000000       0.98437500000000000        0.0000000000000000     
  0.13437499999999999       0.97812500000000002        0.0000000000000000     
  0.14531250000000001       0.97968750000000004        0.0000000000000000     
  0.14687500000000001       0.99062499999999998        0.0000000000000000     
  0.13593749999999999       0.98906249999999996        0.0000000000000000     
  0.17187500000000000       0.96875000000000000        0.0000000000000000     
  0.18750000000000000       0.96875000000000000        0.0000000000000000     
  0.18750000000000000       0.98437500000000000        0.0000000000000000     
  0.16562499999999999       0.97812500000000002        0.0000000000000000     
  0.17656250000000001       0.97968750000000004        0.0000000000000000     
[...]
 CELL_DATA       14336
 SCALARS Tumor_cells float
 LOOKUP_TABLE default
    0.16545048293121991656E-01
    0.16545044305884701319E-01
    0.16545068602431444588E-01
    0.16545068602427669829E-01
    0.16545044305879361840E-01
    0.16545048293109092252E-01
    0.16545028123979864387E-01
    0.16545015954464874913E-01
    0.16545002878645870964E-01
    0.16545002878644979316E-01
    0.16545015954469083352E-01
    0.16545028123988027996E-01
    0.16545025889000884722E-01
    0.16545025888999299185E-01
    0.16545124155749324490E-01
    0.16545144249409900195E-01
    0.16545194499218297823E-01
    0.16545209233373634611E-01
    0.16545173717632772475E-01
    0.16545193507525833565E-01
    0.16545153507327117759E-01
    0.16545117354980092006E-01
    0.16545078424558490315E-01
    0.16545063393703152155E-01
    0.16545087656368060586E-01
    0.16545083738942610585E-01
    0.16545122180385726102E-01
    0.16545130868216233189E-01
    0.16545193507581497372E-01
    0.16545173717676595060E-01
    0.16545209233418831096E-01
    0.16545194499251670434E-01
    0.16545144249433839378E-01
    0.16545124155758986900E-01
    0.16545083738950885216E-01
    0.16545087656385789460E-01
    0.16545063393720506328E-01
    0.16545078424581367849E-01
    0.16545117355013537475E-01
    0.16545153507372685475E-01
    0.16545130868248634354E-01
    0.16545122180412850238E-01
    0.16545270566303272447E-01
    0.16545275101992995559E-01
    0.16545337163935983082E-01
    0.16545337163927888863E-01
    0.16545275101978649396E-01
    0.16545270566270031676E-01
    0.16545209845932617315E-01
    0.16545189794166120095E-01
    0.16545139363556126549E-01
    0.16545139363561261331E-01
    0.16545189794178270098E-01
    0.16545209845961576789E-01
    0.16545228237939323124E-01
    0.16545228237935423465E-01
    0.16545299688338829802E-01
    0.16545343141521267477E-01
    0.16545418790825813793E-01
    0.16545447709334283604E-01
    0.16545401157219009891E-01
    0.16545436200583518715E-01
    0.16545376942055305819E-01
    0.16545317404719993987E-01
    0.16545253163610836034E-01
    0.16545223424584476479E-01
    0.16545258732541319457E-01
    0.16545239216562139528E-01
    0.16545317338325100931E-01
    0.16545334475900303622E-01
    0.16545572058260678977E-01
    0.16545637778554764252E-01
    0.16545737840224707116E-01
    0.16545780022445111257E-01
    0.16545722649351567862E-01
    0.16545771911539310095E-01
    0.16545694309751873136E-01
    0.16545612639583654607E-01
    0.16545524238369559156E-01
    0.16545480397947658763E-01
    0.16545526471737719704E-01
    0.16545492066137701404E-01
    0.16545608156527530364E-01
    0.16545633280611156402E-01
    0.16545449002417146611E-01
    0.16545476870954211462E-01
    0.16545564908962459572E-01
    0.16545578879417825041E-01
    0.16545504938744567264E-01
    0.16545515121305916922E-01
    0.16545434486424086262E-01
    0.16545391316168257811E-01
    0.16545315195684525550E-01
    0.16545300695497928978E-01
    0.16545362826142627488E-01
    0.16545367570870574830E-01
    0.16545425646638661776E-01
    0.16545433953881069633E-01
    0.16545725874970960978E-01
    0.16545776015379622809E-01
    0.16545889690091887536E-01
    0.16545916766032994771E-01
    0.16545830537867019239E-01
    0.16545854292058816831E-01
    0.16545754136581811156E-01
    0.16545689032696455495E-01
    0.16545588012468775974E-01
    0.16545559689817440630E-01
    0.16545633520213532536E-01
    0.16545623888658614331E-01
    0.16545719988697773356E-01
    0.16545736150202022818E-01
    0.16545436200711291508E-01
    0.16545401157330365260E-01
    0.16545447709450208235E-01
    0.16545418790925584679E-01
    0.16545343141603986031E-01
    0.16545299688400325749E-01
    0.16545239216616141470E-01
    0.16545258732609792462E-01
    0.16545223424649022070E-01
    0.16545253163685668535E-01
    0.16545317404812687201E-01
    0.16545376942167264872E-01
    0.16545334475993021123E-01
    0.16545317338410046870E-01
    0.16545515121411294435E-01
    0.16545504938826432334E-01
    0.16545578879496654345E-01
    0.16545564909020746280E-01
    0.16545476870998675895E-01
    0.16545449002435666519E-01
    0.16545367570887439812E-01
    0.16545362826181117533E-01
    0.16545300695540103575E-01
    0.16545315195741507747E-01
    0.16545391316239704133E-01
    0.16545434486519454420E-01
    0.16545433953945320321E-01
    0.16545425646692566574E-01
    0.16545771911768026446E-01
    0.16545722649559307937E-01
    0.16545780022660574321E-01
    0.16545737840419749015E-01
    0.16545637778725315326E-01
    0.16545572058403078958E-01
    0.16545492066266761361E-01
    0.16545526471885972641E-01
    0.16545480398088691781E-01
    0.16545524238525285282E-01
    0.16545612639764666063E-01
    0.16545694309959092794E-01
    0.16545633280793215630E-01
    0.16545608156699309621E-01
    0.16545854292265158719E-01
    0.16545830538045282893E-01
    0.16545916766211390264E-01
    0.16545889690245462605E-01
    0.16545776015511937107E-01
    0.16545725875070391858E-01
    0.16545623888750575492E-01
    0.16545633520331788635E-01
    0.16545559689936120001E-01
    0.16545588012606651795E-01
    0.16545689032856244344E-01
    0.16545754136772453796E-01
    0.16545736150355636052E-01
    0.16545719988838528819E-01
    0.16545698374457466079E-01
    0.16545711845743823337E-01
    0.16545812901999090022E-01
    0.16545812901986634708E-01
    0.16545711845720782740E-01
    0.16545698374403856185E-01
    0.16545596071446084380E-01
    0.16545568189088241673E-01
    0.16545479710270392937E-01
    0.16545479710279999835E-01
    0.16545568189109075702E-01
    0.16545596071495586449E-01
    0.16545635820441009778E-01
    0.16545635820434563545E-01
    0.16545983819526113856E-01
    0.16546020005975381473E-01
    0.16546148734989930135E-01
    0.16546161912948473965E-01
    0.16546046431563349310E-01
    0.16546045984386675148E-01
    0.16545922185277103789E-01
    0.16545872241223918975E-01
    0.16545757570039797829E-01
    0.16545743888645440128E-01
    0.16545845404604915541E-01
    0.16545859233128418914E-01
    0.16545937807208747905E-01
    0.16545945630147908950E-01
    0.16546045984541270235E-01
    0.16546046431682802369E-01
    0.16546161913060505877E-01
    0.16546148735072770120E-01
    0.16546020006040201150E-01
    0.16545983819553394117E-01
    0.16545859233154013024E-01
    0.16545845404663857975E-01
    0.16545743888712351882E-01
    0.16545757570130312231E-01
    0.16545872241333116348E-01
    0.16545922185421901157E-01
    0.16545945630243735075E-01
    0.16545937807289166216E-01
    0.16546346148560247408E-01
    0.16546369751758261551E-01
    0.16546515880360202627E-01
    0.16546515880343459076E-01
    0.16546369751726665298E-01
    0.16546346148486535538E-01
    0.16546197292219188418E-01
    0.16546160793093279279E-01
    0.16546031029944834045E-01
    0.16546031029958819386E-01
    0.16546160793122707128E-01
    0.16546197292288889608E-01
    0.16546260680578659535E-01
    0.16546260680569697954E-01
    0.16545937129554988410E-01
    0.16546023799718447694E-01
    0.16546147735377318699E-01
    0.16546202351145251203E-01
    0.16546133905482315191E-01
    0.16546196562274868153E-01
    0.16546101182289534720E-01
    0.16545998360287483137E-01
    0.16545886848619226206E-01
    0.16545829673296905821E-01
    0.16545886254099303331E-01
    0.16545838073545451191E-01
    0.16545989999195875875E-01
    0.16546022636098639547E-01
    0.16546392676874060318E-01
    0.16546499631147050524E-01
    0.16546648450010241482E-01
    0.16546715018589765178E-01
    0.16546634044703831951E-01
    0.16546709567105546274E-01
    0.16546595880496988568E-01
    0.16546472098354393643E-01
    0.16546337570716988796E-01
    0.16546267495628413230E-01
    0.16546334906557363248E-01
    0.16546273859553366214E-01
    0.16546460631113261291E-01
    0.16546500519607296870E-01
    0.16546099185368434020E-01
    0.16546170578491777720E-01
    0.16546310543814616439E-01
    0.16546349874197334440E-01
    0.16546249730206248618E-01
    0.16546285579318229658E-01
    0.16546165217383855539E-01
    0.16546079446595449852E-01
    0.16545953926397377609E-01
    0.16545912747694239281E-01
    0.16545998822517001686E-01
    0.16545976064074759820E-01
    0.16546108551434016848E-01
    0.16546132017121767399E-01
    0.16546570425713412467E-01
    0.16546662805211911212E-01
    0.16546832197674471443E-01
    0.16546883170610104247E-01
    0.16546765136166353971E-01
    0.16546811461253693037E-01
    0.16546668214779684108E-01
    0.16546562284458370823E-01
    0.16546411104457012936E-01
    0.16546357882246023885E-01
    0.16546458137766398983E-01
    0.16546423758484224420E-01
    0.16546592098780173868E-01
    0.16546622417898542573E-01
    0.16546941788410617080E-01
    0.16547069428954553488E-01
    0.16547246618009832375E-01
    0.16547325021440947856E-01
    0.16547228168810365623E-01
    0.16547316514979992091E-01
    0.16547182343173160585E-01
    0.16547036372014566064E-01
    0.16546877322278708694E-01
    0.16546794061296967587E-01
    0.16546873795672285140E-01
    0.16546800567325575804E-01
    0.16547022987162637864E-01
    0.16547070164936662079E-01
    0.16547596645577585667E-01
    0.16547746522007442810E-01
    0.16547959873968585975E-01
    0.16548050093332239419E-01
    0.16547930508946092493E-01
    0.16548031858095408470E-01
    0.16547872712018192598E-01
    0.16547701381597595266E-01
    0.16547513693425081049E-01
    0.16547416061379896512E-01
    0.16547511526535923360E-01
    0.16547426618726407410E-01
    0.16547688191370285571E-01
    0.16547743067562740299E-01
    0.16547150025264786843E-01
    0.16547264560862858657E-01
    0.16547471633768715688E-01
    0.16547533961879988540E-01
    0.16547389199596848619E-01
    0.16547443605444040610E-01
    0.16547270868659934989E-01
    0.16547144319546788077E-01
    0.16546963333880424646E-01
    0.16546898602121551392E-01
    0.16547017640925972687E-01
    0.16546973369811705107E-01
    0.16547179641233037556E-01
    0.16547216541560657438E-01
    0.16547865249181194919E-01
    0.16548004988021666056E-01
    0.16548266627413873303E-01
    0.16548339436909663414E-01
    0.16548150546198448635E-01
    0.16548208365058002939E-01
    0.16547992936319245311E-01
    0.16547844295585558555E-01
    0.16547624337659914279E-01
    0.16547548418311231605E-01
    0.16547696071702658327E-01
    0.16547644751324881024E-01
    0.16547894558589033159E-01
    0.16547937683014036364E-01
    0.16546372208049477115E-01
    0.16546430606841661115E-01
    0.16546589174508533060E-01
    0.16546614939741206146E-01
    0.16546481947497675841E-01
    0.16546492986717523110E-01
    0.16546345459694425384E-01
    0.16546274273361884916E-01
    0.16546132645833384889E-01
    0.16546106181037162353E-01
    0.16546222353872732519E-01
    0.16546223558826143873E-01
    0.16546340100834416864E-01
    0.16546355261407904441E-01
    0.16546870625566142271E-01
    0.16546952365917619310E-01
    0.16547147336476882712E-01
    0.16547185985235895317E-01
    0.16547028339382673090E-01
    0.16547049037904125457E-01
    0.16546871761211483925E-01
    0.16546779200098258450E-01
    0.16546607147548748895E-01
    0.16546568570803173170E-01
    0.16546703188673392293E-01
    0.16546693149263259209E-01
    0.16546849310580914044E-01
    0.16546871624160498782E-01
    0.16546758364221661464E-01
    0.16546805491643789415E-01
    0.16546986335786734862E-01
    0.16546999560385990818E-01
    0.16546831316607005929E-01
    0.16546818959644889191E-01
    0.16546641614704024614E-01
    0.16546582637886782241E-01
    0.16546422296216750647E-01
    0.16546409294725960420E-01
    0.16546556944896019525E-01
    0.16546581242377622623E-01
    0.16546685215874525066E-01
    0.16546692778530686097E-01
    0.16547296787893347320E-01
    0.16547370809028835725E-01
    0.16547596886630367569E-01
    0.16547625477772193170E-01
    0.16547424826817286325E-01
    0.16547422968694852630E-01
    0.16547206845911849316E-01
    0.16547123225725431789E-01
    0.16546925765809239461E-01
    0.16546899831017404525E-01
    0.16547071146849463147E-01
    0.16547084157462456366E-01
    0.16547233458145512580E-01
    0.16547249027851478054E-01
    0.16547502278243461649E-01
    0.16547611578499678980E-01
    0.16547858310519216601E-01
    0.16547911138315905821E-01
    0.16547713382369946822E-01
    0.16547740859985983486E-01
    0.16547520334275488824E-01
    0.16547404395017697304E-01
    0.16547193050944195014E-01
    0.16547142599613744868E-01
    0.16547304195761509960E-01
    0.16547284562313101242E-01
    0.16547486682799227020E-01
    0.16547516331145421808E-01
    0.16548321243241875811E-01
    0.16548467015533634139E-01
    0.16548797378693202303E-01
    0.16548866215133791607E-01
    0.16548596733649691831E-01
    0.16548624372515859798E-01
    0.16548333575901946063E-01
    0.16548190224608985005E-01
    0.16547920793833107572E-01
    0.16547858450956295234E-01
    0.16548065119773823495E-01
    0.16548038728355633775E-01
    0.16548301143267062779E-01
    0.16548338535045420405E-01
    0.16548001416774590216E-01
    0.16548112177101521186E-01
    0.16548408382546991174E-01
    0.16548457692374132777E-01
    0.16548201696246368081E-01
    0.16548209339343290802E-01
    0.16547931624203562201E-01
    0.16547817320130445845E-01
    0.16547566892052972820E-01
    0.16547526713446877866E-01
    0.16547734591054838460E-01
    0.16547736090064161379E-01
    0.16547945284572894431E-01
    0.16547970555263004366E-01
    0.16548965266284083875E-01
    0.16549133172270222986E-01
    0.16549552274064748686E-01
    0.16549631938420558686E-01
    0.16549271716118238440E-01
    0.16549284875253891108E-01
    0.16548898705234828255E-01
    0.16548741658569687124E-01
    0.16548404763958177166E-01
    0.16548347380597995537E-01
    0.16548619818236839918E-01
    0.16548609448984261810E-01
    0.16548909368806395681E-01
    0.16548947560853337346E-01
    0.16546196562632418947E-01
    0.16546133905814469633E-01
    0.16546202351488174809E-01
    0.16546147735695699438E-01
    0.16546023800005159321E-01
    0.16545937129806818217E-01
    0.16545838073778296184E-01
    0.16545886254355875872E-01
    0.16545829673543135940E-01
    0.16545886848884385628E-01
    0.16545998360585137399E-01
    0.16546101182620103626E-01
    0.16546022636398326905E-01
    0.16545989999482854649E-01
    0.16546285579653409459E-01
    0.16546249730508947456E-01
    0.16546349874503228639E-01
    0.16546310544091582390E-01
    0.16546170578740294205E-01
    0.16546099185577329421E-01
    0.16545976064270533773E-01
    0.16545998822743605144E-01
    0.16545912747918129632E-01
    0.16545953926644693666E-01
    0.16546079446871891916E-01
    0.16546165217697837019E-01
    0.16546132017393019170E-01
    0.16546108551689992644E-01
    0.16546709567618618497E-01
    0.16546634045187306322E-01
    0.16546715019086936926E-01
    0.16546648450478936010E-01
    0.16546499631577206435E-01
    0.16546392677262867360E-01
    0.16546273859917758758E-01
    0.16546334906949851373E-01
    0.16546267496007561332E-01
    0.16546337571119125454E-01
    0.16546472098795943217E-01
    0.16546595880977840037E-01
    0.16546500520051816291E-01
    0.16546460631542740660E-01
    0.16546811461744435900E-01
    0.16546765136620431719E-01
    0.16546883171070315977E-01
    0.16546832198101830980E-01
    0.16546662805603927493E-01
    0.16546570426059347553E-01
    0.16546423758811597965E-01
    0.16546458138128956189E-01
    0.16546357882602853034E-01
    0.16546411104841313167E-01
    0.16546562284878735954E-01
    0.16546668215243982847E-01
    0.16546622418314674979E-01
    0.16546592099178705770E-01
    0.16546492987001022029E-01
    0.16546481947741612656E-01
    0.16546614939980785336E-01
    0.16546589174714795151E-01
    0.16546430607022707265E-01
    0.16546372208186249653E-01
    0.16546223558955571592E-01
    0.16546222354040036190E-01
    0.16546106181209309371E-01
    0.16546132646033356872E-01
    0.16546274273587766729E-01
    0.16546345459962613633E-01
    0.16546355261621410737E-01
    0.16546340101030076325E-01
    0.16546818959847539587E-01
    0.16546831316763117165E-01
    0.16546999560530337159E-01
    0.16546986335893468928E-01
    0.16546805491728457799E-01
    0.16546758364257452278E-01
    0.16546581242411758511E-01
    0.16546556944974973730E-01
    0.16546409294817227692E-01
    0.16546422296340210917E-01
    0.16546582638032932694E-01
    0.16546641614897158318E-01
    0.16546692778657369483E-01
    0.16546685215980835859E-01
    0.16547049038343305399E-01
    0.16547028339778103306E-01
    0.16547185985629941224E-01
    0.16547147336833684106E-01
    0.16546952366242279747E-01
    0.16546870625840041230E-01
    0.16546693149524338562E-01
    0.16546703188976712162E-01
    0.16546568571108314499E-01
    0.16546607147885784850E-01
    0.16546779200468150067E-01
    0.16546871761630086578E-01
    0.16546871624518975918E-01
    0.16546849310919212878E-01
    0.16547422969053360992E-01
    0.16547424827125043617E-01
    0.16547625478071151944E-01
    0.16547596886887776246E-01
    0.16547370809257212071E-01
    0.16547296788066347822E-01
    0.16547084157628309808E-01
    0.16547071147064506408E-01
    0.16546899831241732026E-01
    0.16546925766069846969E-01
    0.16547123226015703068E-01
    0.16547206846255546608E-01
    0.16547249028123239833E-01
    0.16547233458394563360E-01
    0.16547316515673943932E-01
    0.16547228169470750564E-01
    0.16547325022117788385E-01
    0.16547246618654493783E-01
    0.16547069429554157188E-01
    0.16546941788962755276E-01
    0.16546800567848116148E-01
    0.16546873796227060116E-01
    0.16546794061835533307E-01
    0.16546877322844138342E-01
    0.16547036372625990169E-01
    0.16547182343829961587E-01
    0.16547070165551947679E-01
    0.16547022987760676843E-01
    0.16547443606115749826E-01
    0.16547389200227951428E-01
    0.16547533962520066808E-01
    0.16547471634372236393E-01
    0.16547264561424464974E-01
    0.16547150025774160637E-01
    0.16546973370297299311E-01
    0.16547017641450886133E-01
    0.16546898602637846731E-01
    0.16546963334428062969E-01
    0.16547144320137086720E-01
    0.16547270869300217955E-01
    0.16547216542147646229E-01
    0.16547179641800205396E-01
    0.16548031858994036863E-01
    0.16547930509807479843E-01
    0.16548050094212729544E-01
    0.16547959874813424064E-01
    0.16547746522801071861E-01
    0.16547596646317979524E-01
    0.16547426619432301087E-01
    0.16547511527277954796E-01
    0.16547416062103033341E-01
    0.16547513694178707377E-01
    0.16547701382403409015E-01
    0.16547872712875073137E-01
    0.16547743068373258618E-01
    0.16547688192161479070E-01
    0.16548208365934600345E-01
    0.16548150547030821000E-01
    0.16548339437753759040E-01
    0.16548266628217966207E-01
    0.16548004988777603036E-01
    0.16547865249879129684E-01
    0.16547644751994036727E-01
    0.16547696072415012114E-01
    0.16547548419012195198E-01
    0.16547624338395842958E-01
    0.16547844296370389089E-01
    0.16547992937159732713E-01
    0.16547937683796479919E-01
    0.16547894559349598381E-01
    0.16547740860606403868E-01
    0.16547713382942686594E-01
    0.16547911138890147864E-01
    0.16547858311052487945E-01
    0.16547611578994175785E-01
    0.16547502278681031768E-01
    0.16547284562732564317E-01
    0.16547304196227363010E-01
    0.16547142600078491165E-01
    0.16547193051444693962E-01
    0.16547404395557716722E-01
    0.16547520334870304687E-01
    0.16547516331674980844E-01
    0.16547486683306397715E-01
    0.16548209339883421243E-01
    0.16548201696731778404E-01
    0.16548457692853676265E-01
    0.16548408382981213277E-01
    0.16548112177500021863E-01
    0.16548001417111487393E-01
    0.16547736090388592833E-01
    0.16547734591432640416E-01
    0.16547526713831011563E-01
    0.16547566892477272305E-01
    0.16547817320591122481E-01
    0.16547931624723791894E-01