# vtk DataFile Version 3.0
LAPLACIEN  2D
ASCII
DATASET UNSTRUCTURED_GRID
FIELD FieldData 1
TIME 1 1 double
0.1000
 POINTS        7297  float
   1.5625000000000000E-002  0.96875000000000000        0.0000000000000000     
   3.1250000000000000E-002  0.96875000000000000        0.0000000000000000     
   3.1250000000000000E-002  0.98437500000000000        0.0000000000000000     
   9.3749999999999997E-003  0.97812500000000002        0.0000000000000000     
   2.0312500000000001E-002  0.97968750000000004        0.0000000000000000     
   2.1874999999999999E-002  0.99062499999999998        0.0000000000000000     
   1.0937499999999999E-002  0.98906249999999996        0.0000000000000000     
   4.6875000000000000E-002  0.96875000000000000        0.0000000000000000     
   6.2500000000000000E-002  0.96875000000000000        0.0000000000000000     
   6.2500000000000000E-002  0.98437500000000000        0.0000000000000000     
   4.0625000000000001E-002  0.97812500000000002        0.0000000000000000     
   5.1562499999999997E-002  0.97968750000000004        0.0000000000000000     
   5.3124999999999999E-002  0.99062499999999998        0.0000000000000000     
   4.2187500000000003E-002  0.98906249999999996        0.0000000000000000     
   1.5625000000000000E-002  0.93750000000000000        0.0000000000000000     
   3.1250000000000000E-002  0.93750000000000000        0.0000000000000000     
   3.1250000000000000E-002  0.95312500000000000        0.0000000000000000     
   9.3749999999999997E-003  0.94687500000000002        0.0000000000000000     
   2.0312500000000001E-002  0.94843750000000004        0.0000000000000000     
   2.1874999999999999E-002  0.95937499999999998        0.0000000000000000     
   1.0937499999999999E-002  0.95781249999999996        0.0000000000000000     
   4.6875000000000000E-002  0.93750000000000000        0.0000000000000000     
   6.2500000000000000E-002  0.93750000000000000        0.0000000000000000     
   6.2500000000000000E-002  0.95312500000000000        0.0000000000000000     
   4.0625000000000001E-002  0.94687500000000002        0.0000000000000000     
   5.1562499999999997E-002  0.94843750000000004        0.0000000000000000     
   5.3124999999999999E-002  0.95937499999999998        0.0000000000000000     
   4.2187500000000003E-002  0.95781249999999996        0.0000000000000000     
   7.8125000000000000E-002  0.96875000000000000        0.0000000000000000     
   9.3750000000000000E-002  0.96875000000000000        0.0000000000000000     
   9.3750000000000000E-002  0.98437500000000000        0.0000000000000000     
   7.1874999999999994E-002  0.97812500000000002        0.0000000000000000     
   8.2812499999999997E-002  0.97968750000000004        0.0000000000000000     
   8.4375000000000006E-002  0.99062499999999998        0.0000000000000000     
   7.3437500000000003E-002  0.98906249999999996        0.0000000000000000     
  0.10937500000000000       0.96875000000000000        0.0000000000000000     
  0.12500000000000000       0.96875000000000000        0.0000000000000000     
  0.12500000000000000       0.98437500000000000        0.0000000000000000     
  0.10312499999999999       0.97812500000000002        0.0000000000000000     
  0.11406250000000000       0.97968750000000004        0.0000000000000000     
  0.11562500000000001       0.99062499999999998        0.0000000000000000     
  0.10468750000000000       0.98906249999999996        0.0000000000000000     
   7.8125000000000000E-002  0.93750000000000000        0.0000000000000000     
   9.3750000000000000E-002  0.93750000000000000        0.0000000000000000     
   9.3750000000000000E-002  0.95312500000000000        0.0000000000000000     
   7.1874999999999994E-002  0.94687500000000002        0.0000000000000000     
   8.2812499999999997E-002  0.94843750000000004        0.0000000000000000     
   8.4375000000000006E-002  0.95937499999999998        0.0000000000000000     
   7.3437500000000003E-002  0.95781249999999996        0.0000000000000000     
  0.10937500000000000       0.93750000000000000        0.0000000000000000     
  0.12500000000000000       0.93750000000000000        0.0000000000000000     
  0.12500000000000000       0.95312500000000000        0.0000000000000000     
  0.10312499999999999       0.94687500000000002        0.0000000000000000     
  0.11406250000000000       0.94843750000000004        0.0000000000000000     
  0.11562500000000001       0.95937499999999998        0.0000000000000000     
  0.10468750000000000       0.95781249999999996        0.0000000000000000     
   1.5625000000000000E-002  0.90625000000000000        0.0000000000000000     
   3.1250000000000000E-002  0.90625000000000000        0.0000000000000000     
   3.1250000000000000E-002  0.92187500000000000        0.0000000000000000     
   9.3749999999999997E-003  0.91562500000000002        0.0000000000000000     
   2.0312500000000001E-002  0.91718750000000004        0.0000000000000000     
   2.1874999999999999E-002  0.92812499999999998        0.0000000000000000     
   1.0937499999999999E-002  0.92656249999999996        0.0000000000000000     
   4.6875000000000000E-002  0.90625000000000000        0.0000000000000000     
   6.2500000000000000E-002  0.90625000000000000        0.0000000000000000     
   6.2500000000000000E-002  0.92187500000000000        0.0000000000000000     
   4.0625000000000001E-002  0.91562500000000002        0.0000000000000000     
   5.1562499999999997E-002  0.91718750000000004        0.0000000000000000     
   5.3124999999999999E-002  0.92812499999999998        0.0000000000000000     
   4.2187500000000003E-002  0.92656249999999996        0.0000000000000000     
   1.5625000000000000E-002  0.87500000000000000        0.0000000000000000     
   3.1250000000000000E-002  0.87500000000000000        0.0000000000000000     
   3.1250000000000000E-002  0.89062500000000000        0.0000000000000000     
   9.3749999999999997E-003  0.88437500000000002        0.0000000000000000     
   2.0312500000000001E-002  0.88593750000000004        0.0000000000000000     
   2.1874999999999999E-002  0.89687499999999998        0.0000000000000000     
   1.0937499999999999E-002  0.89531249999999996        0.0000000000000000     
   4.6875000000000000E-002  0.87500000000000000        0.0000000000000000     
   6.2500000000000000E-002  0.87500000000000000        0.0000000000000000     
   6.2500000000000000E-002  0.89062500000000000        0.0000000000000000     
   4.0625000000000001E-002  0.88437500000000002        0.0000000000000000     
   5.1562499999999997E-002  0.88593750000000004        0.0000000000000000     
   5.3124999999999999E-002  0.89687499999999998        0.0000000000000000     
   4.2187500000000003E-002  0.89531249999999996        0.0000000000000000     
   7.8125000000000000E-002  0.90625000000000000        0.0000000000000000     
   9.3750000000000000E-002  0.90625000000000000        0.0000000000000000     
   9.3750000000000000E-002  0.92187500000000000        0.0000000000000000     
   7.1874999999999994E-002  0.91562500000000002        0.0000000000000000     
   8.2812499999999997E-002  0.91718750000000004        0.0000000000000000     
   8.4375000000000006E-002  0.92812499999999998        0.0000000000000000     
   7.3437500000000003E-002  0.92656249999999996        0.0000000000000000     
  0.10937500000000000       0.90625000000000000        0.0000000000000000     
  0.12500000000000000       0.90625000000000000        0.0000000000000000     
  0.12500000000000000       0.92187500000000000        0.0000000000000000     
  0.10312499999999999       0.91562500000000002        0.0000000000000000     
  0.11406250000000000       0.91718750000000004        0.0000000000000000     
  0.11562500000000001       0.92812499999999998        0.0000000000000000     
  0.10468750000000000       0.92656249999999996        0.0000000000000000     
   7.8125000000000000E-002  0.87500000000000000        0.0000000000000000     
   9.3750000000000000E-002  0.87500000000000000        0.0000000000000000     
   9.3750000000000000E-002  0.89062500000000000        0.0000000000000000     
   7.1874999999999994E-002  0.88437500000000002        0.0000000000000000     
   8.2812499999999997E-002  0.88593750000000004        0.0000000000000000     
   8.4375000000000006E-002  0.89687499999999998        0.0000000000000000     
   7.3437500000000003E-002  0.89531249999999996        0.0000000000000000     
  0.10937500000000000       0.87500000000000000        0.0000000000000000     
  0.12500000000000000       0.87500000000000000        0.0000000000000000     
  0.12500000000000000       0.89062500000000000        0.0000000000000000     
  0.10312499999999999       0.88437500000000002        0.0000000000000000     
  0.11406250000000000       0.88593750000000004        0.0000000000000000     
  0.11562500000000001       0.89687499999999998        0.0000000000000000     
  0.10468750000000000       0.89531249999999996        0.0000000000000000     
  0.14062500000000000       0.96875000000000000        0.0000000000000000     
  0.15625000000000000       0.96875000000000000        0.0000000000000000     
  0.15625000000000000       0.98437500000000000        0.0000000000000000     
  0.13437499999999999       0.97812500000000002        0.0000000000000000     
  0.14531250000000001       0.97968750000000004        0.0000000000000000     
  0.14687500000000001       0.99062499999999998        0.0000000000000000     
  0.13593749999999999       0.98906249999999996        0.0000000000000000     
  0.17187500000000000       0.96875000000000000        0.0000000000000000     
  0.18750000000000000       0.96875000000000000        0.0000000000000000     
  0.18750000000000000       0.98437500000000000        0.0000000000000000     
  0.16562499999999999       0.97812500000000002        0.0000000000000000     
  0.17656250000000001       0.97968750000000004        0.0000000000000000     
[...]
 CELL_DATA       14336
 SCALARS Tumor_cells float
 LOOKUP_TABLE default
    0.57357071842527519275E-09
    0.56753984926035922957E-09
    0.74653277121538230539E-09
    0.74653277119326070407E-09
    0.56753984911605767510E-09
    0.57357071803245849358E-09
    0.45941481911836116049E-09
    0.40084952151873746557E-09
    0.33716611363277213607E-09
    0.33716611369081328000E-09
    0.40084952178709553580E-09
    0.45941481988840716736E-09
    0.45678221143034470907E-09
    0.45678221137072597662E-09
    0.12818869609471320466E-08
    0.14426400724439526780E-08
    0.20722166884986974266E-08
    0.21268008938545030130E-08
    0.15798649617727085721E-08
    0.16346795780518498381E-08
    0.12631630073390865046E-08
    0.10205824003068293569E-08
    0.74548904401960523363E-09
    0.66350402666867256119E-09
    0.86334854301187155597E-09
    0.87319465108475296551E-09
    0.11395708711386910134E-08
    0.11821243222049959820E-08
    0.16346795785181052864E-08
    0.15798649614526473709E-08
    0.21268008923743021843E-08
    0.20722166875784337662E-08
    0.14426400721048206210E-08
    0.12818869608344735627E-08
    0.87319465109013346521E-09
    0.86334854311748938870E-09
    0.66350402700848724901E-09
    0.74548904445455644525E-09
    0.10205824009820519278E-08
    0.12631630090533484273E-08
    0.11821243222743941607E-08
    0.11395708711230163544E-08
    0.37052074562932706287E-08
    0.40777215361819056141E-08
    0.59921444620944208609E-08
    0.59921444636799259174E-08
    0.40777215370881737922E-08
    0.37052074573881128254E-08
    0.24306463386477415839E-08
    0.22298024223527050649E-08
    0.14825940388362593979E-08
    0.14825940387494345917E-08
    0.22298024220173503281E-08
    0.24306463378275758766E-08
    0.29946154662515979960E-08
    0.29946154664314630436E-08
    0.37702812804378174408E-08
    0.42311470812996265086E-08
    0.60499735292730866580E-08
    0.61506166213697224230E-08
    0.45769640000462256601E-08
    0.46888102217764069799E-08
    0.36553926200106125376E-08
    0.29739112634398185308E-08
    0.21714667443692681916E-08
    0.19201497300889232279E-08
    0.25177528895828484406E-08
    0.25320647490874203366E-08
    0.33348530520644422773E-08
    0.34508018223427168974E-08
    0.10710974401323127539E-07
    0.11795117445912003223E-07
    0.16617293407425540861E-07
    0.16676449269140322454E-07
    0.12465258110133224556E-07
    0.12601774009353260443E-07
    0.99574478226887650437E-08
    0.82327464266651631983E-08
    0.61162340685325971205E-08
    0.54622338453339556971E-08
    0.71259607979004992992E-08
    0.72573706111569218547E-08
    0.92956678510697713375E-08
    0.95526797322936622135E-08
    0.11048138656125561378E-07
    0.12121054681855300970E-07
    0.17721352816498458408E-07
    0.17554408868148556074E-07
    0.11970118513727919593E-07
    0.10756751676813537055E-07
    0.71075978640318045773E-08
    0.65797289369343476928E-08
    0.43686088303902760472E-08
    0.43483463361692910291E-08
    0.65953259800387688105E-08
    0.71514220829522496510E-08
    0.88846126478103300900E-08
    0.88603765636765576144E-08
    0.31770452331572176558E-07
    0.34201963099267955702E-07
    0.49256093520809663417E-07
    0.48170242825274614643E-07
    0.32999739404263067860E-07
    0.29236053157190466768E-07
    0.19548150555117106286E-07
    0.18424302969476228774E-07
    0.12433940929839784610E-07
    0.12518280278512309384E-07
    0.18901222157257612036E-07
    0.20758833022612620362E-07
    0.25074690579000069833E-07
    0.24830850759547491053E-07
    0.46888102217060527872E-08
    0.45769639992375465963E-08
    0.61506166192366502708E-08
    0.60499735271142618917E-08
    0.42311470798711360488E-08
    0.37702812787671367694E-08
    0.25320647466546391416E-08
    0.25177528887033155670E-08
    0.19201497303160388999E-08
    0.21714667449231057300E-08
    0.29739112646530406129E-08
    0.36553926237733156962E-08
    0.34508018220819407647E-08
    0.33348530514110779540E-08
    0.10756751672120678396E-07
    0.11970118512431654781E-07
    0.17554408869486811882E-07
    0.17721352822258179879E-07
    0.12121054683378158675E-07
    0.11048138655595092106E-07
    0.71514220787800077167E-08
    0.65953259781484584516E-08
    0.43483463348235864594E-08
    0.43686088288854004208E-08
    0.65797289353381306473E-08
    0.71075978614334201694E-08
    0.88603765627193938404E-08
    0.88846126472193558644E-08
    0.12601774025902158378E-07
    0.12465258123472767593E-07
    0.16676449284876838038E-07
    0.16617293421512989176E-07
    0.11795117454039037852E-07
    0.10710974404621065208E-07
    0.72573706083829021873E-08
    0.71259608003038518895E-08
    0.54622338474594368129E-08
    0.61162340738283099725E-08
    0.82327464382313534253E-08
    0.99574478446851783625E-08
    0.95526797417865176176E-08
    0.92956678584806098312E-08
    0.29236053181421948572E-07
    0.32999739439082812229E-07
    0.48170242885679075210E-07
    0.49256093590226190584E-07
    0.34201963135612458637E-07
    0.31770452351819400667E-07
    0.20758833021990901488E-07
    0.18901222164841495059E-07
    0.12518280279190306319E-07
    0.12433940934228707332E-07
    0.18424302983547646328E-07
    0.19548150571278064785E-07
    0.24830850782164154173E-07
    0.25074690600899087597E-07
    0.32455936767246773783E-07
    0.35996425949663045807E-07
    0.52496785741067058727E-07
    0.52496785741102237064E-07
    0.35996425950503481162E-07
    0.32455936770439843148E-07
    0.21174487194454288027E-07
    0.19707084894930753957E-07
    0.12984637013626880996E-07
    0.12984637013939454351E-07
    0.19707084898433622314E-07
    0.21174487205331994323E-07
    0.26605281593927011440E-07
    0.26605281593540919926E-07
    0.94321522202446435344E-07
    0.10264643580216133168E-06
    0.14742067539286835262E-06
    0.14555090833909287310E-06
    0.10030672202011043841E-06
    0.89187196889937005127E-07
    0.58909627701706630639E-07
    0.55814927380606883414E-07
    0.37397189550781563918E-07
    0.37820743425825418393E-07
    0.57107712976400294338E-07
    0.62142286558493086248E-07
    0.75907999379870285480E-07
    0.75380608050732309726E-07
    0.89187196984314752834E-07
    0.10030672212552112113E-06
    0.14555090849826918390E-06
    0.14742067554400282674E-06
    0.10264643589498626948E-06
    0.94321522271431022030E-07
    0.62142286558733220089E-07
    0.57107713002719315310E-07
    0.37820743437256637559E-07
    0.37397189575310850595E-07
    0.55814927441372431480E-07
    0.58909627794410919175E-07
    0.75380608122746415627E-07
    0.75907999445059913099E-07
    0.26175347673498412777E-06
    0.28884225140059485933E-06
    0.41266833146242867364E-06
    0.41266833143646330216E-06
    0.28884225135601604471E-06
    0.26175347663423024691E-06
    0.17464907918242867522E-06
    0.16338769310404074431E-06
    0.11006966515705910699E-06
    0.11006966519120333596E-06
    0.16338769317413370008E-06
    0.17464907935881976600E-06
    0.21721919885471313859E-06
    0.21721919883805771799E-06
    0.28382312748887748371E-07
    0.30620886903109999303E-07
    0.42446556027043360135E-07
    0.42035271643052553319E-07
    0.31576618042080328266E-07
    0.31490778472669401080E-07
    0.25236364911621798907E-07
    0.21228566090506395201E-07
    0.16077038347108557526E-07
    0.14524617974235319100E-07
    0.18827022070282797859E-07
    0.19450172431379593664E-07
    0.24138282620659707553E-07
    0.24623940679257802883E-07
    0.69847691501395086854E-07
    0.73805463290394529169E-07
    0.10060551823400413401E-06
    0.98309634388636789095E-07
    0.74239780010263065845E-07
    0.73030569516022409751E-07
    0.59374750688364201432E-07
    0.50836055743879971690E-07
    0.39265991308715308501E-07
    0.35896120659879083105E-07
    0.46215984519071309186E-07
    0.48441262328016024376E-07
    0.58206436851484123821E-07
    0.58937144239539256359E-07
    0.85150024463082017060E-07
    0.89807237495071544779E-07
    0.12723050227829879228E-06
    0.12279715009416441372E-06
    0.84557917933508776096E-07
    0.73833987132867987348E-07
    0.49993453126664504767E-07
    0.48022417972265122807E-07
    0.33006630953479399266E-07
    0.33662257906657872615E-07
    0.50524724447527325339E-07
    0.56296410378247653052E-07
    0.65876295904354669602E-07
    0.64750431004611547658E-07
    0.21180156722834136569E-06
    0.21878401259298735757E-06
    0.30472312308268385353E-06
    0.29023352949897637788E-06
    0.20094908824112448188E-06
    0.17292810522909764524E-06
    0.11862332768276069882E-06
    0.11616860109156501073E-06
    0.81365249313097911399E-07
    0.84076450223560922051E-07
    0.12539617803249864629E-06
    0.14177484777128444332E-06
    0.16060107428043648910E-06
    0.15666856464620754155E-06
    0.15938638343238939021E-06
    0.16492700469727640354E-06
    0.22095789555574334790E-06
    0.21305110029086861123E-06
    0.16178716617376376472E-06
    0.15698145544555039865E-06
    0.12951053900692160525E-06
    0.11289951969458733298E-06
    0.88969769818904628591E-07
    0.82312628705439456704E-07
    0.10524062120424309330E-06
    0.11191623247314328920E-06
    0.13015170001297798408E-06
    0.13080202019992632672E-06
    0.33682547291358206782E-06
    0.34128316138392189321E-06
    0.44916192065522239905E-06
    0.42735397631224693881E-06
    0.32643769609938100946E-06
    0.31242187535756141923E-06
    0.26160983810610736002E-06
    0.23226474211765527132E-06
    0.18679466240174332385E-06
    0.17491547664056420070E-06
    0.22203785269774218450E-06
    0.23955579255299413282E-06
    0.26954624867408885378E-06
    0.26886363263147749462E-06
    0.48814010219324148941E-06
    0.49376056763413220957E-06
    0.67575203878729958210E-06
    0.63513042333647578758E-06
    0.44229020668867826313E-06
    0.37512149445454255572E-06
    0.26078671094126004027E-06
    0.26043146692708797083E-06
    0.18596367466233070841E-06
    0.19470877591155621580E-06
    0.28848119655331622316E-06
    0.33096202091327813905E-06
    0.36277993489874774526E-06
    0.35121844942030397176E-06
    0.10410313371718787920E-05
    0.10310382682205132390E-05
    0.13858262689879882597E-05
    0.12853446886231586512E-05
    0.90054171649334811337E-06
    0.75279603031532211255E-06
    0.53058402825738443808E-06
    0.54042225312185657983E-06
    0.39357266615645813502E-06
    0.41755712964873713729E-06
    0.61439524563591528458E-06
    0.71522158732573319790E-06
    0.75836210539022319039E-06
    0.72861823667632931456E-06
    0.25531473648982560296E-06
    0.27221212994443720391E-06
    0.38449859637795634261E-06
    0.37467305029198142083E-06
    0.25963258251326533054E-06
    0.22757542165718672802E-06
    0.15229528655624982538E-06
    0.14704490786276749511E-06
    0.10038049271281467487E-06
    0.10281887471656808406E-06
    0.15424885989480119668E-06
    0.17026246447626103846E-06
    0.20147457066065274176E-06
    0.19860027365480059592E-06
    0.64101721178189542509E-06
    0.66934499593944513940E-06
    0.92928222616766926727E-06
    0.89364411805513301328E-06
    0.62286437948877788380E-06
    0.53817075396515972469E-06
    0.36503236010000258070E-06
    0.35929382491980211477E-06
    0.25004107616744022216E-06
    0.25945585691000320078E-06
    0.38658366324273752491E-06
    0.43294401932039596113E-06
    0.49591157761394636930E-06
    0.48518601780522829441E-06
    0.71512624772178140779E-06
    0.77309103415240435005E-06
    0.10860955741590712024E-05
    0.10719316069143902179E-05
    0.75456846895984102120E-06
    0.67413101153193275024E-06
    0.45584850772391001760E-06
    0.43457346846824578219E-06
    0.29835423926438417488E-06
    0.30217165467444726091E-06
    0.44553121486767826662E-06
    0.48309321945573585704E-06
    0.58197324928919181441E-06
    0.57768664211256170708E-06
    0.18112264641659737611E-05
    0.19175272997491797719E-05
    0.26473451582296981402E-05
    0.25784579724394389697E-05
    0.18259647429275931620E-05
    0.16080803098070277332E-05
    0.11024484240709493086E-05
    0.10714127916953396659E-05
    0.75006416347345567795E-06
    0.76956156825831988986E-06
    0.11266590217706693807E-05
    0.12394982006910820951E-05
    0.14451638190949207236E-05
    0.14238004657872369973E-05
    0.14902483654856805842E-05
    0.15237033307982907819E-05
    0.20781473824290461063E-05
    0.19721124035976252906E-05
    0.13829583577128751702E-05
    0.11778400986425153091E-05
    0.81003563795443002311E-06
    0.81300641548822192027E-06
    0.57704529503778563815E-06
    0.60664006923421056235E-06
    0.89748194967632832231E-06
    0.10198294339889426256E-05
    0.11302280796565111992E-05
    0.10974607923183089954E-05
    0.32036826456475668169E-05
    0.32069620155085343571E-05
    0.42946405107473347587E-05
    0.40217392447799941239E-05
    0.28383554943385217195E-05
    0.23828779649104280558E-05
    0.16621665511137502213E-05
    0.17015012678611531714E-05
    0.12321824395578581948E-05
    0.13124683378643509083E-05
    0.19274676564040086243E-05
    0.22223024998550320618E-05
    0.23820075589969255011E-05
    0.22954487291674288991E-05
    0.42452829353221226794E-05
    0.44004569100371502489E-05
    0.59670772571234076076E-05
    0.57350017809758440409E-05
    0.40868799958004666298E-05
    0.35477739819457479661E-05
    0.24668169284831740988E-05
    0.24446698928095344991E-05
    0.17459405756981654214E-05
    0.18148732579501075998E-05
    0.26375908023579119125E-05
    0.29443793461281763761E-05
    0.33207997411378510626E-05
    0.32470416626334969314E-05
    0.91952509993581091108E-05
    0.93305467704925385458E-05
    0.12420516575049154605E-04
    0.11779333593612262751E-04
    0.84495032464506726404E-05
    0.72300414512352887433E-05
    0.51003524474266779081E-05
    0.51555684779183346214E-05
    0.37577579715596168264E-05
    0.39577554566057300146E-05
    0.57084002861852781152E-05
    0.64661266125363533233E-05
    0.70516395091541892432E-05
    0.68426940339271220256E-05
    0.31490778562219113927E-07
    0.31576618122940356577E-07
    0.42035271745158867865E-07
    0.42446556124327602139E-07
    0.30620886967480996048E-07
    0.28382312795981082864E-07
    0.19450172450160798956E-07
    0.18827022102665555646E-07
    0.14524617999697574518E-07
    0.16077038383439547639E-07
    0.21228566150812249222E-07
    0.25236365004333680961E-07
    0.24623940739368187508E-07
    0.24138282674333981812E-07
    0.73833987299421491900E-07
    0.84557918137875154902E-07
    0.12279715041244583162E-06
    0.12723050262140113427E-06
    0.89807237704575721041E-07
    0.85150024621434707435E-07
    0.56296410445859404471E-07
    0.50524724532041566281E-07
    0.33662257951788198326E-07
    0.33006631009083247665E-07
    0.48022418074283716503E-07
    0.49993453239202056528E-07
    0.64750431149714750149E-07
    0.65876296047672167822E-07
    0.73030569843531404576E-07
    0.74239780318974612860E-07
    0.98309634783335507791E-07
    0.10060551861968608110E-06
    0.73805463557888870636E-07
    0.69847691720226022307E-07
    0.48441262447712301560E-07
    0.46215984669014371910E-07
    0.35896120777763636225E-07
    0.39265991457918057813E-07
    0.50836055967526825461E-07
    0.59374751000370733082E-07
    0.58937144475506680804E-07
    0.58206437070788927886E-07
    0.17292810588114501093E-06
    0.20094908901702921382E-06
    0.29023353066191365095E-06
    0.30472312431956477355E-06
    0.21878401339978425459E-06
    0.21180156790164888779E-06
    0.14177484813404739939E-06
    0.12539617841570611898E-06
    0.84076450455681420635E-07
    0.81365249568155797497E-07
    0.11616860150760361280E-06
    0.11862332812984443484E-06
    0.15666856521966160527E-06
    0.16060107485364128691E-06
    0.22757542219168818172E-06
    0.25963258310873367468E-06
    0.37467305116148318756E-06
    0.38449859723237700535E-06
    0.27221213051064087736E-06
    0.25531473696270710381E-06
    0.17026246467053887105E-06
    0.15424886014613008641E-06
    0.10281887486838448588E-06
    0.10038049289966843573E-06
    0.14704490820289137809E-06
    0.15229528698761869147E-06
    0.19860027408578538552E-06
    0.20147457107450054606E-06
    0.67413101261540869785E-06
    0.75456846997890233664E-06
    0.10719316082586003768E-05
    0.10860955753621334849E-05
    0.77309103492338167958E-06
    0.71512624824008033882E-06
    0.48309321951174315782E-06
    0.44553121518396936885E-06
    0.30217165492102866331E-06
    0.29835423969514082145E-06
    0.43457346916107013453E-06
    0.45584850872298056138E-06
    0.57768664283421959034E-06
    0.58197324992006025946E-06
    0.53817075595865758941E-06
    0.62286438172855915414E-06
    0.89364412127381713175E-06
    0.92928222939275356669E-06
    0.66934499815963517294E-06
    0.64101721373497838328E-06
    0.43294402035078925391E-06
    0.38658366435815852604E-06
    0.25945585762577224629E-06
    0.25004107695778845404E-06
    0.35929382621732365873E-06
    0.36503236161976026491E-06
    0.48518601947972719844E-06
    0.49591157925917742626E-06
    0.16080803144212979469E-05
    0.18259647476401310560E-05
    0.25784579788147976187E-05
    0.26473451643271889013E-05
    0.19175273039368932989E-05
    0.18112264675739076982E-05
    0.12394982023217998778E-05
    0.11266590239224521864E-05
    0.76956156981590453025E-06
    0.75006416545872514698E-06
    0.10714127947047020378E-05
    0.11024484278426900374E-05
    0.14238004692936118329E-05
    0.14451638224002421248E-05
    0.15698145642694206781E-06
    0.16178716712498356443E-06
    0.21305110151094895038E-06
    0.22095789676935492290E-06
    0.16492700556439035792E-06
    0.15938638418271703587E-06
    0.11191623292946988844E-06
    0.10524062171762497160E-06
    0.82312629111016116616E-07
    0.88969770304281877120E-07
    0.11289952038078018496E-06
    0.12951053990858171897E-06
    0.13080202094340727272E-06
    0.13015170071919450965E-06
    0.37512149648110371626E-06
    0.44229020908146661215E-06
    0.63513042684518631653E-06
    0.67575204251394544151E-06
    0.49376057016747953520E-06
    0.48814010442698637945E-06
    0.33096202223525018901E-06
    0.28848119785905885714E-06
    0.19470877674330770931E-06
    0.18596367553309458070E-06
    0.26043146826573926418E-06
    0.26078671234970928370E-06
    0.35121845123851948535E-06
    0.36277993673271230125E-06
    0.31242187787248286658E-06
    0.32643769864197512907E-06
    0.42735397962539481853E-06
    0.44916192395290017490E-06
    0.34128316379231587137E-06
    0.33682547507702422909E-06
    0.23955579394642818202E-06
    0.22203785417521704277E-06
    0.17491547781254889737E-06
    0.18679466375338744087E-06
    0.23226474394657590493E-06
    0.26160984039132146594E-06
    0.26886363465393917451E-06
    0.26954625062610200935E-06
    0.75279603563875509709E-06
    0.90054172291588236818E-06
    0.12853446980093755323E-05
    0.13858262788557152074E-05
    0.10310382751382207314E-05
    0.10410313435065929885E-05
    0.71522159128707981678E-06
    0.61439524939761295554E-06
    0.41755713211561926985E-06
    0.39357266866153372432E-06
    0.54042225681708132854E-06
    0.53058403205626791421E-06
    0.72861824166201892281E-06
    0.75836211045788684733E-06
    0.11778401047074228303E-05
    0.13829583645945767742E-05
    0.19721124133749659878E-05
    0.20781473923727555093E-05
    0.15237033378323433317E-05
    0.14902483718876210328E-05
    0.10198294377353111178E-05
    0.89748195344969196628E-06
    0.60664007172660966832E-06
    0.57704529765450631089E-06
    0.81300641954303714257E-06
    0.81003564247797676127E-06
    0.10974607975908637813E-05
    0.11302280849104750942E-05
    0.35477739968156697002E-05
    0.40868800115726326128E-05
    0.57350018023976672660E-05
    0.59670772782149811568E-05
    0.44004569250176106296E-05
    0.42452829483334533805E-05
    0.29443793536157007197E-05
    0.26375908106558341814E-05
    0.18148732638922360013E-05
    0.17459405825058306284E-05
    0.24446699027687835685E-05
    0.24668169401088796003E-05