# vtk DataFile Version 3.0
LAPLACIEN  2D
ASCII
DATASET UNSTRUCTURED_GRID
FIELD FieldData 1
TIME 1 1 double
13.3000
 POINTS        7297  float
   1.5625000000000000E-002  0.96875000000000000        0.0000000000000000     
   3.1250000000000000E-002  0.96875000000000000        0.0000000000000000     
   3.1250000000000000E-002  0.98437500000000000        0.0000000000000000     
   9.3749999999999997E-003  0.97812500000000002        0.0000000000000000     
   2.0312500000000001E-002  0.97968750000000004        0.0000000000000000     
   2.1874999999999999E-002  0.99062499999999998        0.0000000000000000     
   1.0937499999999999E-002  0.98906249999999996        0.0000000000000000     
   4.6875000000000000E-002  0.96875000000000000        0.0000000000000000     
   6.2500000000000000E-002  0.96875000000000000        0.0000000000000000     
   6.2500000000000000E-002  0.98437500000000000        0.0000000000000000     
   4.0625000000000001E-002  0.97812500000000002        0.0000000000000000     
   5.1562499999999997E-002  0.97968750000000004        0.0000000000000000     
   5.3124999999999999E-002  0.99062499999999998        0.0000000000000000     
   4.2187500000000003E-002  0.98906249999999996        0.0000000000000000     
   1.5625000000000000E-002  0.93750000000000000        0.0000000000000000     
   3.1250000000000000E-002  0.93750000000000000        0.0000000000000000     
   3.1250000000000000E-002  0.95312500000000000        0.0000000000000000     
   9.3749999999999997E-003  0.94687500000000002        0.0000000000000000     
   2.0312500000000001E-002  0.94843750000000004        0.0000000000000000     
   2.1874999999999999E-002  0.95937499999999998        0.0000000000000000     
   1.0937499999999999E-002  0.95781249999999996        0.0000000000000000     
   4.6875000000000000E-002  0.93750000000000000        0.0000000000000000     
   6.2500000000000000E-002  0.93750000000000000        0.0000000000000000     
   6.2500000000000000E-002  0.95312500000000000        0.0000000000000000     
   4.0625000000000001E-002  0.94687500000000002        0.0000000000000000     
   5.1562499999999997E-002  0.94843750000000004        0.0000000000000000     
   5.3124999999999999E-002  0.95937499999999998        0.0000000000000000     
   4.2187500000000003E-002  0.95781249999999996        0.0000000000000000     
   7.8125000000000000E-002  0.96875000000000000        0.0000000000000000     
   9.3750000000000000E-002  0.96875000000000000        0.0000000000000000     
   9.3750000000000000E-002  0.98437500000000000        0.0000000000000000     
   7.1874999999999994E-002  0.97812500000000002        0.0000000000000000     
   8.2812499999999997E-002  0.97968750000000004        0.0000000000000000     
   8.4375000000000006E-002  0.99062499999999998        0.0000000000000000     
   7.3437500000000003E-002  0.98906249999999996        0.0000000000000000     
  0.10937500000000000       0.96875000000000000        0.0000000000000000     
  0.12500000000000000       0.96875000000000000        0.0000000000000000     
  0.12500000000000000       0.98437500000000000        0.0000000000000000     
  0.10312499999999999       0.97812500000000002        0.0000000000000000     
  0.11406250000000000       0.97968750000000004        0.0000000000000000     
  0.11562500000000001       0.99062499999999998        0.0000000000000000     
  0.10468750000000000       0.98906249999999996        0.0000000000000000     
   7.8125000000000000E-002  0.93750000000000000        0.0000000000000000     
   9.3750000000000000E-002  0.93750000000000000        0.0000000000000000     
   9.3750000000000000E-002  0.95312500000000000        0.0000000000000000     
   7.1874999999999994E-002  0.94687500000000002        0.0000000000000000     
   8.2812499999999997E-002  0.94843750000000004        0.0000000000000000     
   8.4375000000000006E-002  0.95937499999999998        0.0000000000000000     
   7.3437500000000003E-002  0.95781249999999996        0.0000000000000000     
  0.10937500000000000       0.93750000000000000        0.0000000000000000     
  0.12500000000000000       0.93750000000000000        0.0000000000000000     
  0.12500000000000000       0.95312500000000000        0.0000000000000000     
  0.10312499999999999       0.94687500000000002        0.0000000000000000     
  0.11406250000000000       0.94843750000000004        0.0000000000000000     
  0.11562500000000001       0.95937499999999998        0.0000000000000000     
  0.10468750000000000       0.95781249999999996        0.0000000000000000     
   1.5625000000000000E-002  0.90625000000000000        0.0000000000000000     
   3.1250000000000000E-002  0.90625000000000000        0.0000000000000000     
   3.1250000000000000E-002  0.92187500000000000        0.0000000000000000     
   9.3749999999999997E-003  0.91562500000000002        0.0000000000000000     
   2.0312500000000001E-002  0.91718750000000004        0.0000000000000000     
   2.1874999999999999E-002  0.92812499999999998        0.0000000000000000     
   1.0937499999999999E-002  0.92656249999999996        0.0000000000000000     
   4.6875000000000000E-002  0.90625000000000000        0.0000000000000000     
   6.2500000000000000E-002  0.90625000000000000        0.0000000000000000     
   6.2500000000000000E-002  0.92187500000000000        0.0000000000000000     
   4.0625000000000001E-002  0.91562500000000002        0.0000000000000000     
   5.1562499999999997E-002  0.91718750000000004        0.0000000000000000     
   5.3124999999999999E-002  0.92812499999999998        0.0000000000000000     
   4.2187500000000003E-002  0.92656249999999996        0.0000000000000000     
   1.5625000000000000E-002  0.87500000000000000        0.0000000000000000     
   3.1250000000000000E-002  0.87500000000000000        0.0000000000000000     
   3.1250000000000000E-002  0.89062500000000000        0.0000000000000000     
   9.3749999999999997E-003  0.88437500000000002        0.0000000000000000     
   2.0312500000000001E-002  0.88593750000000004        0.0000000000000000     
   2.1874999999999999E-002  0.89687499999999998        0.0000000000000000     
   1.0937499999999999E-002  0.89531249999999996        0.0000000000000000     
   4.6875000000000000E-002  0.87500000000000000        0.0000000000000000     
   6.2500000000000000E-002  0.87500000000000000        0.0000000000000000     
   6.2500000000000000E-002  0.89062500000000000        0.0000000000000000     
   4.0625000000000001E-002  0.88437500000000002        0.0000000000000000     
   5.1562499999999997E-002  0.88593750000000004        0.0000000000000000     
   5.3124999999999999E-002  0.89687499999999998        0.0000000000000000     
   4.2187500000000003E-002  0.89531249999999996        0.0000000000000000     
   7.8125000000000000E-002  0.90625000000000000        0.0000000000000000     
   9.3750000000000000E-002  0.90625000000000000        0.0000000000000000     
   9.3750000000000000E-002  0.92187500000000000        0.0000000000000000     
   7.1874999999999994E-002  0.91562500000000002        0.0000000000000000     
   8.2812499999999997E-002  0.91718750000000004        0.0000000000000000     
   8.4375000000000006E-002  0.92812499999999998        0.0000000000000000     
   7.3437500000000003E-002  0.92656249999999996        0.0000000000000000     
  0.10937500000000000       0.90625000000000000        0.0000000000000000     
  0.12500000000000000       0.90625000000000000        0.0000000000000000     
  0.12500000000000000       0.92187500000000000        0.0000000000000000     
  0.10312499999999999       0.91562500000000002        0.0000000000000000     
  0.11406250000000000       0.91718750000000004        0.0000000000000000     
  0.11562500000000001       0.92812499999999998        0.0000000000000000     
  0.10468750000000000       0.92656249999999996        0.0000000000000000     
   7.8125000000000000E-002  0.87500000000000000        0.0000000000000000     
   9.3750000000000000E-002  0.87500000000000000        0.0000000000000000     
   9.3750000000000000E-002  0.89062500000000000        0.0000000000000000     
   7.1874999999999994E-002  0.88437500000000002        0.0000000000000000     
   8.2812499999999997E-002  0.88593750000000004        0.0000000000000000     
   8.4375000000000006E-002  0.89687499999999998        0.0000000000000000     
   7.3437500000000003E-002  0.89531249999999996        0.0000000000000000     
  0.10937500000000000       0.87500000000000000        0.0000000000000000     
  0.12500000000000000       0.87500000000000000        0.0000000000000000     
  0.12500000000000000       0.89062500000000000        0.0000000000000000     
  0.10312499999999999       0.88437500000000002        0.0000000000000000     
  0.11406250000000000       0.88593750000000004        0.0000000000000000     
  0.11562500000000001       0.89687499999999998        0.0000000000000000     
  0.10468750000000000       0.89531249999999996        0.0000000000000000     
  0.14062500000000000       0.96875000000000000        0.0000000000000000     
  0.15625000000000000       0.96875000000000000        0.0000000000000000     
  0.15625000000000000       0.98437500000000000        0.0000000000000000     
  0.13437499999999999       0.97812500000000002        0.0000000000000000     
  0.14531250000000001       0.97968750000000004        0.0000000000000000     
  0.14687500000000001       0.99062499999999998        0.0000000000000000     
  0.13593749999999999       0.98906249999999996        0.0000000000000000     
  0.17187500000000000       0.96875000000000000        0.0000000000000000     
  0.18750000000000000       0.96875000000000000        0.0000000000000000     
  0.18750000000000000       0.98437500000000000        0.0000000000000000     
  0.16562499999999999       0.97812500000000002        0.0000000000000000     
  0.17656250000000001       0.97968750000000004        0.0000000000000000     
[...]
 CELL_DATA       14336
 SCALARS Tumor_cells float
 LOOKUP_TABLE default
    0.37544356768917520883E-01
    0.37544356473036048782E-01
    0.37544358803164673555E-01
    0.37544358803164187832E-01
    0.37544356473037325539E-01
    0.37544356768915848610E-01
    0.37544354923125411450E-01
    0.37544353830025599394E-01
    0.37544352649887695328E-01
    0.37544352649879361716E-01
    0.37544353830029998653E-01
    0.37544354923123898771E-01
    0.37544354751907579870E-01
    0.37544354751906178214E-01
    0.37544364434041674339E-01
    0.37544366476951175626E-01
    0.37544372022610968120E-01
    0.37544373559935291518E-01
    0.37544369400486304889E-01
    0.37544371391973203889E-01
    0.37544367033811039402E-01
    0.37544363410210314369E-01
    0.37544359584527030316E-01
    0.37544358219189041814E-01
    0.37544360598060252943E-01
    0.37544360305501921216E-01
    0.37544364039600416905E-01
    0.37544364857638984345E-01
    0.37544371391975243923E-01
    0.37544369400487512256E-01
    0.37544373559936859708E-01
    0.37544372022611974260E-01
    0.37544366476952306666E-01
    0.37544364434041549439E-01
    0.37544360305503080011E-01
    0.37544360598059961509E-01
    0.37544358219190727965E-01
    0.37544359584526711127E-01
    0.37544363410211945009E-01
    0.37544367033812330037E-01
    0.37544364857640309674E-01
    0.37544364039601159366E-01
    0.37544381692245491766E-01
    0.37544382586533371626E-01
    0.37544391268715754384E-01
    0.37544391268715442134E-01
    0.37544382586532996926E-01
    0.37544381692244270521E-01
    0.37544374000108821088E-01
    0.37544371807895854376E-01
    0.37544366091613892711E-01
    0.37544366091613622094E-01
    0.37544371807896513571E-01
    0.37544374000109584366E-01
    0.37544376526219960799E-01
    0.37544376526219759571E-01
    0.37544384942474952338E-01
    0.37544390475173820831E-01
    0.37544401314083680754E-01
    0.37544405355064744412E-01
    0.37544398183696071902E-01
    0.37544403038778817461E-01
    0.37544394473566042314E-01
    0.37544386527541016851E-01
    0.37544378312645350360E-01
    0.37544374843861229307E-01
    0.37544379223585652716E-01
    0.37544377116728928911E-01
    0.37544386692685408069E-01
    0.37544388876643505770E-01
    0.37544426043502047985E-01
    0.37544437215796824803E-01
    0.37544456401303341608E-01
    0.37544464207134066458E-01
    0.37544452095107504197E-01
    0.37544461085832855907E-01
    0.37544445916489616044E-01
    0.37544431496546334937E-01
    0.37544416510189797254E-01
    0.37544409703411177337E-01
    0.37544417398447327283E-01
    0.37544412311737156152E-01
    0.37544431204122853674E-01
    0.37544435446398481682E-01
    0.37544408612357499377E-01
    0.37544412938947724356E-01
    0.37544428186607595177E-01
    0.37544430222309889411E-01
    0.37544416665839436265E-01
    0.37544417445374796138E-01
    0.37544404077269465103E-01
    0.37544398175634499659E-01
    0.37544387246195444485E-01
    0.37544385599885307658E-01
    0.37544394751368968810E-01
    0.37544395775375383195E-01
    0.37544404152485430504E-01
    0.37544405198510939770E-01
    0.37544459656668159597E-01
    0.37544469629722930504E-01
    0.37544495916071951580E-01
    0.37544501363943959260E-01
    0.37544479634259220191E-01
    0.37544483111673694620E-01
    0.37544460515327567063E-01
    0.37544448618566712839E-01
    0.37544429310589981508E-01
    0.37544424938423394400E-01
    0.37544439453499611759E-01
    0.37544438632533282119E-01
    0.37544456446258714366E-01
    0.37544459249962081060E-01
    0.37544403038783161208E-01
    0.37544398183699777272E-01
    0.37544405355068664887E-01
    0.37544401314087018362E-01
    0.37544390475176651900E-01
    0.37544384942476888289E-01
    0.37544377116730906496E-01
    0.37544379223587776018E-01
    0.37544374843863553837E-01
    0.37544378312647688767E-01
    0.37544386527544208743E-01
    0.37544394473569775439E-01
    0.37544388876646649089E-01
    0.37544386692688232199E-01
    0.37544417445378376608E-01
    0.37544416665842184067E-01
    0.37544430222312540069E-01
    0.37544428186609545006E-01
    0.37544412938949243974E-01
    0.37544408612358089183E-01
    0.37544395775376014635E-01
    0.37544394751370190055E-01
    0.37544385599886820337E-01
    0.37544387246197255537E-01
    0.37544398175636949089E-01
    0.37544404077272636178E-01
    0.37544405198513118582E-01
    0.37544404152487241555E-01
    0.37544461085840634407E-01
    0.37544452095114547174E-01
    0.37544464207141393930E-01
    0.37544456401309961313E-01
    0.37544437215802625718E-01
    0.37544426043506856638E-01
    0.37544412311741541532E-01
    0.37544417398452316348E-01
    0.37544409703415958235E-01
    0.37544416510195036119E-01
    0.37544431496552482797E-01
    0.37544445916496665960E-01
    0.37544435446404664236E-01
    0.37544431204128682344E-01
    0.37544483111680709841E-01
    0.37544479634265270906E-01
    0.37544501363950065487E-01
    0.37544495916077204323E-01
    0.37544469629727461601E-01
    0.37544459656671524961E-01
    0.37544438632536383804E-01
    0.37544439453503608561E-01
    0.37544424938427439775E-01
    0.37544429310594644444E-01
    0.37544448618572145993E-01
    0.37544460515334041051E-01
    0.37544459249967312986E-01
    0.37544456446263502203E-01
    0.37544455004392553177E-01
    0.37544458366330087096E-01
    0.37544480999925446130E-01
    0.37544480999925022857E-01
    0.37544458366329323817E-01
    0.37544455004390742126E-01
    0.37544434381648450483E-01
    0.37544429603016238328E-01
    0.37544413784669175560E-01
    0.37544413784669466994E-01
    0.37544429603016959973E-01
    0.37544434381650108878E-01
    0.37544442672235715797E-01
    0.37544442672235493752E-01
    0.37544524960534404745E-01
    0.37544534939770189685E-01
    0.37544573088640238734E-01
    0.37544576654362393775E-01
    0.37544541145257709358E-01
    0.37544539271028382066E-01
    0.37544505077379504432E-01
    0.37544494025755298372E-01
    0.37544466985989614904E-01
    0.37544464570670205150E-01
    0.37544488699428356371E-01
    0.37544492345220045748E-01
    0.37544511829942575631E-01
    0.37544513518073384384E-01
    0.37544539271033711136E-01
    0.37544541145261851878E-01
    0.37544576654366342006E-01
    0.37544573088643166947E-01
    0.37544534939772458704E-01
    0.37544524960535362312E-01
    0.37544492345220906171E-01
    0.37544488699430354772E-01
    0.37544464570672481107E-01
    0.37544466985992681896E-01
    0.37544494025759052314E-01
    0.37544505077384486558E-01
    0.37544513518076680358E-01
    0.37544511829945344250E-01
    0.37544641646018360459E-01
    0.37544651112942022120E-01
    0.37544708668821327735E-01
    0.37544708668820737929E-01
    0.37544651112940932713E-01
    0.37544641646015758374E-01
    0.37544589365592018204E-01
    0.37544578113798354746E-01
    0.37544538244804977201E-01
    0.37544538244805469862E-01
    0.37544578113799402519E-01
    0.37544589365594495389E-01
    0.37544611465772467773E-01
    0.37544611465772155523E-01
    0.37544499953064379427E-01
    0.37544520075114079516E-01
    0.37544553369382734076E-01
    0.37544567365338524234E-01
    0.37544546645862000855E-01
    0.37544562540820024255E-01
    0.37544536317049202745E-01
    0.37544511070847025325E-01
    0.37544484941540043343E-01
    0.37544472860888765398E-01
    0.37544486004060802220E-01
    0.37544476519535761871E-01
    0.37544510113881900126E-01
    0.37544517673800723023E-01
    0.37544629580315701245E-01
    0.37544664796886124958E-01
    0.37544722808984402895E-01
    0.37544746987341823252E-01
    0.37544710763791885877E-01
    0.37544737838019252851E-01
    0.37544692651592888322E-01
    0.37544649142754710214E-01
    0.37544603901097782506E-01
    0.37544582966913056521E-01
    0.37544605637997281733E-01
    0.37544588900062715597E-01
    0.37544647522341226265E-01
    0.37544660628504568367E-01
    0.37544551711306675679E-01
    0.37544571284985624182E-01
    0.37544616981440070980E-01
    0.37544628215288144979E-01
    0.37544591630022813855E-01
    0.37544599143985231404E-01
    0.37544560124648379551E-01
    0.37544538515208052132E-01
    0.37544505045855526559E-01
    0.37544496439883230654E-01
    0.37544520218534299660E-01
    0.37544516433280508694E-01
    0.37544550145185241752E-01
    0.37544555800555830249E-01
    0.37544715801815300993E-01
    0.37544751992314870370E-01
    0.37544832355248261568E-01
    0.37544853074553061201E-01
    0.37544789231352369840E-01
    0.37544802668766523446E-01
    0.37544734609281808779E-01
    0.37544696553260592520E-01
    0.37544638218699549759E-01
    0.37544622618748281495E-01
    0.37544663273381441437E-01
    0.37544654978730773731E-01
    0.37544715902012276709E-01
    0.37544726222487202760E-01
    0.37544854897546546535E-01
    0.37544914815612069614E-01
    0.37545014710053885298E-01
    0.37545054467177985114E-01
    0.37544991248961136210E-01
    0.37545035495438507100E-01
    0.37544959018361440117E-01
    0.37544885646599183981E-01
    0.37544808627208117735E-01
    0.37544772935616713139E-01
    0.37544812318430542675E-01
    0.37544784181115620214E-01
    0.37544884037842195246E-01
    0.37544905969494384024E-01
    0.37545239938418371872E-01
    0.37545337462807880369E-01
    0.37545506584056836941E-01
    0.37545567938879836900E-01
    0.37545458283237027886E-01
    0.37545526600148232399E-01
    0.37545400937006305486E-01
    0.37545281135462474364E-01
    0.37545153127467902066E-01
    0.37545094270284337656E-01
    0.37545162122580959252E-01
    0.37545117451332855885E-01
    0.37545282070170944710E-01
    0.37545317193252963905E-01
    0.37545007935532039023E-01
    0.37545072016394523406E-01
    0.37545214623563943901E-01
    0.37545249851633426263E-01
    0.37545135267931163681E-01
    0.37545155475212324547E-01
    0.37545036372559091598E-01
    0.37544971957604818258E-01
    0.37544870329810492438E-01
    0.37544843625389061337E-01
    0.37544915134854028871E-01
    0.37544900471674920450E-01
    0.37545007593664116163E-01
    0.37545025178732725768E-01
    0.37545525081117858690E-01
    0.37545633226678719330E-01
    0.37545885287102141736E-01
    0.37545939171543953050E-01
    0.37545731359652605164E-01
    0.37545754641477128988E-01
    0.37545547563576295302E-01
    0.37545443941612598182E-01
    0.37545268777973074548E-01
    0.37545225851691302332E-01
    0.37545354012567783153E-01
    0.37545332965263508718E-01
    0.37545514392854792418E-01
    0.37545541933242540522E-01
    0.37544650208280058723E-01
    0.37544671883188850126E-01
    0.37544737220919721654E-01
    0.37544747289181203131E-01
    0.37544689033691798496E-01
    0.37544689842899776899E-01
    0.37544631499703211286E-01
    0.37544609488552573018E-01
    0.37544562899141417645E-01
    0.37544556416690320899E-01
    0.37544595112754902688E-01
    0.37544596909496900927E-01
    0.37544635745974649921E-01
    0.37544640353618659312E-01
    0.37544873988090976535E-01
    0.37544917413664440076E-01
    0.37545032689952829996E-01
    0.37545054939018523976E-01
    0.37544954604681643473E-01
    0.37544959523314401506E-01
    0.37544857106860812790E-01
    0.37544816007078388176E-01
    0.37544734117484344915E-01
    0.37544720505712413094E-01
    0.37544785432987337614E-01
    0.37544783567271602931E-01
    0.37544857836560627251E-01
    0.37544867755071785476E-01
    0.37544819311576500820E-01
    0.37544843342573762379E-01
    0.37544938782128889354E-01
    0.37544946670843487579E-01
    0.37544856264085782471E-01
    0.37544848937938656019E-01
    0.37544762068504093644E-01
    0.37544737159696389694E-01
    0.37544669796783128324E-01
    0.37544665258806543540E-01
    0.37544726788084445412E-01
    0.37544737125294533331E-01
    0.37544784307243311838E-01
    0.37544787714951365076E-01
    0.37545130951980747180E-01
    0.37545184493085560773E-01
    0.37545349199948542529E-01
    0.37545374682326916604E-01
    0.37545225206568853815E-01
    0.37545223793987753114E-01
    0.37545073082690429145E-01
    0.37545021956625311554E-01
    0.37544904636920874152E-01
    0.37544891185696427360E-01
    0.37544990397581815000E-01
    0.37544996999319242559E-01
    0.37545092086901203643E-01
    0.37545102664308535600E-01
    0.37545280209312754949E-01
    0.37545363316874108550E-01
    0.37545571626349166783E-01
    0.37545614532591642387E-01
    0.37545434172163792697E-01
    0.37545442977534822238E-01
    0.37545259420987825427E-01
    0.37545185958648655267E-01
    0.37545040026513105957E-01
    0.37545014531464547536E-01
    0.37545128263368400534E-01
    0.37545120711632531951E-01
    0.37545258699313438511E-01
    0.37545277516551234243E-01
    0.37546024403670892611E-01
    0.37546176164985969881E-01
    0.37546557449490404468E-01
    0.37546631057456925085E-01
    0.37546297128127140152E-01
    0.37546301858971176113E-01
    0.37545970042618073692E-01
    0.37545845775202681127E-01
    0.37545584528774843258E-01
    0.37545541297808737724E-01
    0.37545747683416688667E-01
    0.37545734425447022109E-01
    0.37545983298632810976E-01
    0.37546015375374768019E-01
    0.37545697151901091804E-01
    0.37545810413238733805E-01
    0.37546108320648162449E-01
    0.37546168724409086093E-01
    0.37545905880019242451E-01
    0.37545914261953639013E-01
    0.37545642291716453676E-01
    0.37545542857876396114E-01
    0.37545331585892988135E-01
    0.37545301091949513650E-01
    0.37545470095291084978E-01
    0.37545466855803275030E-01
    0.37545656093482204785E-01
    0.37545680728935569570E-01
    0.37546758487853840180E-01
    0.37546985540054152175E-01
    0.37547542237372208418E-01
    0.37547664649251015490E-01
    0.37547177175025467366E-01
    0.37547193126682566755E-01
    0.37546689435105889965E-01
    0.37546505735189687758E-01
    0.37546117118194659301E-01
    0.37546057307668287417E-01
    0.37546361595890691276E-01
    0.37546341526148198364E-01
    0.37546708106074827560E-01
    0.37546757295395555287E-01
    0.37544562540832361608E-01
    0.37544546645873436153E-01
    0.37544567365350355048E-01
    0.37544553369393697528E-01
    0.37544520075123918867E-01
    0.37544499953072983656E-01
    0.37544476519543693027E-01
    0.37544486004069566043E-01
    0.37544472860897161459E-01
    0.37544484941549105539E-01
    0.37544511070857260193E-01
    0.37544536317060624164E-01
    0.37544517673811006464E-01
    0.37544510113891732539E-01
    0.37544599143996840174E-01
    0.37544591630033319340E-01
    0.37544628215298851692E-01
    0.37544616981449757676E-01
    0.37544571284994249227E-01
    0.37544551711313906006E-01
    0.37544516433287218604E-01
    0.37544520218542071222E-01
    0.37544496439890877315E-01
    0.37544505045863992010E-01
    0.37544538515217558416E-01
    0.37544560124659204225E-01
    0.37544555800565204695E-01
    0.37544550145194088842E-01
    0.37544737838037300914E-01
    0.37544710763808865350E-01
    0.37544746987359337020E-01
    0.37544722809000875829E-01
    0.37544664796901161541E-01
    0.37544629580329225149E-01
    0.37544588900075302751E-01
    0.37544605638010888904E-01
    0.37544582966926191847E-01
    0.37544603901111757438E-01
    0.37544649142770149253E-01
    0.37544692651609805345E-01
    0.37544660628520090673E-01
    0.37544647522356193459E-01
    0.37544802668783933131E-01
    0.37544789231368523585E-01
    0.37544853074569603524E-01
    0.37544832355263672852E-01
    0.37544751992328845303E-01
    0.37544715801827596713E-01
    0.37544654978742250662E-01
    0.37544663273394139613E-01
    0.37544622618760702115E-01
    0.37544638218712941824E-01
    0.37544696553275351547E-01
    0.37544734609298163752E-01
    0.37544726222501906276E-01
    0.37544715902026355725E-01
    0.37544689842909817479E-01
    0.37544689033700492931E-01
    0.37544747289189848993E-01
    0.37544737220927194843E-01
    0.37544671883195324114E-01
    0.37544650208284971460E-01
    0.37544596909501459781E-01
    0.37544595112760759115E-01
    0.37544556416696295287E-01
    0.37544562899148363477E-01
    0.37544609488560511112E-01
    0.37544631499712648182E-01
    0.37544640353626229645E-01
    0.37544635745981581876E-01
    0.37544848937946087575E-01
    0.37544856264091541753E-01
    0.37544946670848906856E-01
    0.37544938782132927790E-01
    0.37544843342576933454E-01
    0.37544819311577874721E-01
    0.37544737125295754576E-01
    0.37544726788087304237E-01
    0.37544665258809804820E-01
    0.37544669796787569216E-01
    0.37544737159701718765E-01
    0.37544762068511136621E-01
    0.37544787714956007196E-01
    0.37544784307247211497E-01
    0.37544959523330534434E-01
    0.37544954604696242906E-01
    0.37545054939033359331E-01
    0.37545032689966291450E-01
    0.37544917413676492934E-01
    0.37544873988101128137E-01
    0.37544783567281039827E-01
    0.37544785432998294128E-01
    0.37544720505723286341E-01
    0.37544734117496370018E-01
    0.37544816007091773302E-01
    0.37544857106876022845E-01
    0.37544867755084872230E-01
    0.37544857836572999299E-01
    0.37545223794001644779E-01
    0.37545225206580871979E-01
    0.37545374682338872319E-01
    0.37545349199958902298E-01
    0.37545184493094539702E-01
    0.37545130951987547296E-01
    0.37544996999325494502E-01
    0.37544990397589940445E-01
    0.37544891185704733216E-01
    0.37544904636930574726E-01
    0.37545021956636337457E-01
    0.37545073082703564471E-01
    0.37545102664318985575E-01
    0.37545092086910786255E-01
    0.37545035495463681408E-01
    0.37544991248984999066E-01
    0.37545054467202576554E-01
    0.37545014710077241615E-01
    0.37544914815633601002E-01
    0.37544854897566246055E-01
    0.37544784181134077672E-01
    0.37544812318450235256E-01
    0.37544772935635746525E-01
    0.37544808627228205833E-01
    0.37544885646621110886E-01
    0.37544959018385233585E-01
    0.37544905969516470523E-01
    0.37544884037863601733E-01
    0.37545155475237013132E-01
    0.37545135267954443670E-01
    0.37545249851657434836E-01
    0.37545214623586654901E-01
    0.37545072016415305394E-01
    0.37545007935550787914E-01
    0.37544900471692448096E-01
    0.37544915134872992868E-01
    0.37544843625407484100E-01
    0.37544870329830073996E-01
    0.37544971957626196990E-01
    0.37545036372582357709E-01
    0.37545025178754166950E-01
    0.37545007593684821823E-01
    0.37545526600182260735E-01
    0.37545458283269529665E-01
    0.37545567938913379513E-01
    0.37545506584088880753E-01
    0.37545337462837544140E-01
    0.37545239938445801320E-01
    0.37545117451358599181E-01
    0.37545162122608208288E-01
    0.37545094270310740148E-01
    0.37545153127495602130E-01
    0.37545281135492498958E-01
    0.37545400937038668487E-01
    0.37545317193283210544E-01
    0.37545282070200365621E-01
    0.37545754641511074057E-01
    0.37545731359685100004E-01
    0.37545939171577773219E-01
    0.37545885287134435349E-01
    0.37545633226708272079E-01
    0.37545525081144948132E-01
    0.37545332965288745475E-01
    0.37545354012594664428E-01
    0.37545225851717281551E-01
    0.37545268778000441545E-01
    0.37545443941642345220E-01
    0.37545547563608311359E-01
    0.37545541933272585933E-01
    0.37545514392883998223E-01
    0.37545442977558809994E-01
    0.37545434172186149813E-01
    0.37545614532614686454E-01
    0.37545571626370663476E-01
    0.37545363316893523575E-01
    0.37545280209329907894E-01
    0.37545120711648422018E-01
    0.37545128263386004508E-01
    0.37545014531481762932E-01
    0.37545040026531653621E-01
    0.37545185958669090309E-01
    0.37545259421010439282E-01
    0.37545277516571599896E-01
    0.37545258699332950680E-01
    0.37545914261976245929E-01
    0.37545905880039753821E-01
    0.37546168724430097063E-01
    0.37546108320667244407E-01
    0.37545810413255685523E-01
    0.37545697151915372047E-01
    0.37545466855816375662E-01
    0.37545470095306336666E-01
    0.37545301091964605744E-01
    0.37545331585909731686E-01
    0.37545542857895075617E-01
    0.37545642291737728324E-01