# vtk DataFile Version 3.0
LAPLACIEN  2D
ASCII
DATASET UNSTRUCTURED_GRID
FIELD FieldData 1
TIME 1 1 double
16.6000
 POINTS        7297  float
   1.5625000000000000E-002  0.96875000000000000        0.0000000000000000     
   3.1250000000000000E-002  0.96875000000000000        0.0000000000000000     
   3.1250000000000000E-002  0.98437500000000000        0.0000000000000000     
   9.3749999999999997E-003  0.97812500000000002        0.0000000000000000     
   2.0312500000000001E-002  0.97968750000000004        0.0000000000000000     
   2.1874999999999999E-002  0.99062499999999998        0.0000000000000000     
   1.0937499999999999E-002  0.98906249999999996        0.0000000000000000     
   4.6875000000000000E-002  0.96875000000000000        0.0000000000000000     
   6.2500000000000000E-002  0.96875000000000000        0.0000000000000000     
   6.2500000000000000E-002  0.98437500000000000        0.0000000000000000     
   4.0625000000000001E-002  0.97812500000000002        0.0000000000000000     
   5.1562499999999997E-002  0.97968750000000004        0.0000000000000000     
   5.3124999999999999E-002  0.99062499999999998        0.0000000000000000     
   4.2187500000000003E-002  0.98906249999999996        0.0000000000000000     
   1.5625000000000000E-002  0.93750000000000000        0.0000000000000000     
   3.1250000000000000E-002  0.93750000000000000        0.0000000000000000     
   3.1250000000000000E-002  0.95312500000000000        0.0000000000000000     
   9.3749999999999997E-003  0.94687500000000002        0.0000000000000000     
   2.0312500000000001E-002  0.94843750000000004        0.0000000000000000     
   2.1874999999999999E-002  0.95937499999999998        0.0000000000000000     
   1.0937499999999999E-002  0.95781249999999996        0.0000000000000000     
   4.6875000000000000E-002  0.93750000000000000        0.0000000000000000     
   6.2500000000000000E-002  0.93750000000000000        0.0000000000000000     
   6.2500000000000000E-002  0.95312500000000000        0.0000000000000000     
   4.0625000000000001E-002  0.94687500000000002        0.0000000000000000     
   5.1562499999999997E-002  0.94843750000000004        0.0000000000000000     
   5.3124999999999999E-002  0.95937499999999998        0.0000000000000000     
   4.2187500000000003E-002  0.95781249999999996        0.0000000000000000     
   7.8125000000000000E-002  0.96875000000000000        0.0000000000000000     
   9.3750000000000000E-002  0.96875000000000000        0.0000000000000000     
   9.3750000000000000E-002  0.98437500000000000        0.0000000000000000     
   7.1874999999999994E-002  0.97812500000000002        0.0000000000000000     
   8.2812499999999997E-002  0.97968750000000004        0.0000000000000000     
   8.4375000000000006E-002  0.99062499999999998        0.0000000000000000     
   7.3437500000000003E-002  0.98906249999999996        0.0000000000000000     
  0.10937500000000000       0.96875000000000000        0.0000000000000000     
  0.12500000000000000       0.96875000000000000        0.0000000000000000     
  0.12500000000000000       0.98437500000000000        0.0000000000000000     
  0.10312499999999999       0.97812500000000002        0.0000000000000000     
  0.11406250000000000       0.97968750000000004        0.0000000000000000     
  0.11562500000000001       0.99062499999999998        0.0000000000000000     
  0.10468750000000000       0.98906249999999996        0.0000000000000000     
   7.8125000000000000E-002  0.93750000000000000        0.0000000000000000     
   9.3750000000000000E-002  0.93750000000000000        0.0000000000000000     
   9.3750000000000000E-002  0.95312500000000000        0.0000000000000000     
   7.1874999999999994E-002  0.94687500000000002        0.0000000000000000     
   8.2812499999999997E-002  0.94843750000000004        0.0000000000000000     
   8.4375000000000006E-002  0.95937499999999998        0.0000000000000000     
   7.3437500000000003E-002  0.95781249999999996        0.0000000000000000     
  0.10937500000000000       0.93750000000000000        0.0000000000000000     
  0.12500000000000000       0.93750000000000000        0.0000000000000000     
  0.12500000000000000       0.95312500000000000        0.0000000000000000     
  0.10312499999999999       0.94687500000000002        0.0000000000000000     
  0.11406250000000000       0.94843750000000004        0.0000000000000000     
  0.11562500000000001       0.95937499999999998        0.0000000000000000     
  0.10468750000000000       0.95781249999999996        0.0000000000000000     
   1.5625000000000000E-002  0.90625000000000000        0.0000000000000000     
   3.1250000000000000E-002  0.90625000000000000        0.0000000000000000     
   3.1250000000000000E-002  0.92187500000000000        0.0000000000000000     
   9.3749999999999997E-003  0.91562500000000002        0.0000000000000000     
   2.0312500000000001E-002  0.91718750000000004        0.0000000000000000     
   2.1874999999999999E-002  0.92812499999999998        0.0000000000000000     
   1.0937499999999999E-002  0.92656249999999996        0.0000000000000000     
   4.6875000000000000E-002  0.90625000000000000        0.0000000000000000     
   6.2500000000000000E-002  0.90625000000000000        0.0000000000000000     
   6.2500000000000000E-002  0.92187500000000000        0.0000000000000000     
   4.0625000000000001E-002  0.91562500000000002        0.0000000000000000     
   5.1562499999999997E-002  0.91718750000000004        0.0000000000000000     
   5.3124999999999999E-002  0.92812499999999998        0.0000000000000000     
   4.2187500000000003E-002  0.92656249999999996        0.0000000000000000     
   1.5625000000000000E-002  0.87500000000000000        0.0000000000000000     
   3.1250000000000000E-002  0.87500000000000000        0.0000000000000000     
   3.1250000000000000E-002  0.89062500000000000        0.0000000000000000     
   9.3749999999999997E-003  0.88437500000000002        0.0000000000000000     
   2.0312500000000001E-002  0.88593750000000004        0.0000000000000000     
   2.1874999999999999E-002  0.89687499999999998        0.0000000000000000     
   1.0937499999999999E-002  0.89531249999999996        0.0000000000000000     
   4.6875000000000000E-002  0.87500000000000000        0.0000000000000000     
   6.2500000000000000E-002  0.87500000000000000        0.0000000000000000     
   6.2500000000000000E-002  0.89062500000000000        0.0000000000000000     
   4.0625000000000001E-002  0.88437500000000002        0.0000000000000000     
   5.1562499999999997E-002  0.88593750000000004        0.0000000000000000     
   5.3124999999999999E-002  0.89687499999999998        0.0000000000000000     
   4.2187500000000003E-002  0.89531249999999996        0.0000000000000000     
   7.8125000000000000E-002  0.90625000000000000        0.0000000000000000     
   9.3750000000000000E-002  0.90625000000000000        0.0000000000000000     
   9.3750000000000000E-002  0.92187500000000000        0.0000000000000000     
   7.1874999999999994E-002  0.91562500000000002        0.0000000000000000     
   8.2812499999999997E-002  0.91718750000000004        0.0000000000000000     
   8.4375000000000006E-002  0.92812499999999998        0.0000000000000000     
   7.3437500000000003E-002  0.92656249999999996        0.0000000000000000     
  0.10937500000000000       0.90625000000000000        0.0000000000000000     
  0.12500000000000000       0.90625000000000000        0.0000000000000000     
  0.12500000000000000       0.92187500000000000        0.0000000000000000     
  0.10312499999999999       0.91562500000000002        0.0000000000000000     
  0.11406250000000000       0.91718750000000004        0.0000000000000000     
  0.11562500000000001       0.92812499999999998        0.0000000000000000     
  0.10468750000000000       0.92656249999999996        0.0000000000000000     
   7.8125000000000000E-002  0.87500000000000000        0.0000000000000000     
   9.3750000000000000E-002  0.87500000000000000        0.0000000000000000     
   9.3750000000000000E-002  0.89062500000000000        0.0000000000000000     
   7.1874999999999994E-002  0.88437500000000002        0.0000000000000000     
   8.2812499999999997E-002  0.88593750000000004        0.0000000000000000     
   8.4375000000000006E-002  0.89687499999999998        0.0000000000000000     
   7.3437500000000003E-002  0.89531249999999996        0.0000000000000000     
  0.10937500000000000       0.87500000000000000        0.0000000000000000     
  0.12500000000000000       0.87500000000000000        0.0000000000000000     
  0.12500000000000000       0.89062500000000000        0.0000000000000000     
  0.10312499999999999       0.88437500000000002        0.0000000000000000     
  0.11406250000000000       0.88593750000000004        0.0000000000000000     
  0.11562500000000001       0.89687499999999998        0.0000000000000000     
  0.10468750000000000       0.89531249999999996        0.0000000000000000     
  0.14062500000000000       0.96875000000000000        0.0000000000000000     
  0.15625000000000000       0.96875000000000000        0.0000000000000000     
  0.15625000000000000       0.98437500000000000        0.0000000000000000     
  0.13437499999999999       0.97812500000000002        0.0000000000000000     
  0.14531250000000001       0.97968750000000004        0.0000000000000000     
  0.14687500000000001       0.99062499999999998        0.0000000000000000     
  0.13593749999999999       0.98906249999999996        0.0000000000000000     
  0.17187500000000000       0.96875000000000000        0.0000000000000000     
  0.18750000000000000       0.96875000000000000        0.0000000000000000     
  0.18750000000000000       0.98437500000000000        0.0000000000000000     
  0.16562499999999999       0.97812500000000002        0.0000000000000000     
  0.17656250000000001       0.97968750000000004        0.0000000000000000     
[...]
 CELL_DATA       14336
 SCALARS Tumor_cells float
 LOOKUP_TABLE default
    0.53862986642932549064E-01
    0.53862986206905827391E-01
    0.53862989669243258040E-01
    0.53862989669242487822E-01
    0.53862986206908936015E-01
    0.53862986642929787384E-01
    0.53862983902098288125E-01
    0.53862982277944226883E-01
    0.53862980523531035770E-01
    0.53862980523512966891E-01
    0.53862982277953525001E-01
    0.53862983902094450916E-01
    0.53862983648772323753E-01
    0.53862983648769367784E-01
    0.53862998042110976638E-01
    0.53863001079760081113E-01
    0.53863009327604190191E-01
    0.53863011613696519519E-01
    0.53863005426447979618E-01
    0.53863008386907544611E-01
    0.53863001904870262682E-01
    0.53862996518271671897E-01
    0.53862990829227366807E-01
    0.53862988803102064550E-01
    0.53862992336898375678E-01
    0.53862991903528459336E-01
    0.53862997455655564627E-01
    0.53862998670232531406E-01
    0.53863008386908522995E-01
    0.53863005426447854718E-01
    0.53863011613697185653E-01
    0.53863009327604204068E-01
    0.53863001079761080314E-01
    0.53862998042110039887E-01
    0.53862991903530471616E-01
    0.53862992336896585444E-01
    0.53862988803104611124E-01
    0.53862990829225181055E-01
    0.53862996518273122126E-01
    0.53863001904870214109E-01
    0.53862998670233350196E-01
    0.53862997455655509116E-01
    0.53863023715515628842E-01
    0.53863025048131625561E-01
    0.53863037970212766792E-01
    0.53863037970212759853E-01
    0.53863025048131667194E-01
    0.53863023715515163936E-01
    0.53863012270080376509E-01
    0.53863009010250109676E-01
    0.53863000507636940584E-01
    0.53863000507636121794E-01
    0.53863009010250754993E-01
    0.53863012270080320998E-01
    0.53863016030637610176E-01
    0.53863016030637374254E-01
    0.53863028550710088938E-01
    0.53863036784340630192E-01
    0.53863052918334902719E-01
    0.53863058933521466842E-01
    0.53863048257591694679E-01
    0.53863055483354765895E-01
    0.53863042733519918281E-01
    0.53863030907518129331E-01
    0.53863018682824309602E-01
    0.53863013521256108973E-01
    0.53863020039131410954E-01
    0.53863016904783948824E-01
    0.53863031153662796480E-01
    0.53863034404312025438E-01
    0.53863089740880332190E-01
    0.53863106379878705754E-01
    0.53863134958078144610E-01
    0.53863146586930574222E-01
    0.53863128542675657584E-01
    0.53863141933913775972E-01
    0.53863119336766421275E-01
    0.53863097859851896687E-01
    0.53863075541525924639E-01
    0.53863065406178543826E-01
    0.53863076865559619821E-01
    0.53863069291486799506E-01
    0.53863097425110771643E-01
    0.53863103743458942696E-01
    0.53863063790790283170E-01
    0.53863070233229823347E-01
    0.53863092939505918810E-01
    0.53863095970648929012E-01
    0.53863075780601177289E-01
    0.53863076938430093366E-01
    0.53863057033070031732E-01
    0.53863048249054808203E-01
    0.53863031979902532831E-01
    0.53863029530239824039E-01
    0.53863043153745120140E-01
    0.53863044678773910889E-01
    0.53863057149449035388E-01
    0.53863058706316892243E-01
    0.53863139817080366023E-01
    0.53863154675696647833E-01
    0.53863193842750706208E-01
    0.53863201961015474972E-01
    0.53863169579439776347E-01
    0.53863174757244225432E-01
    0.53863141089154062402E-01
    0.53863123368116855305E-01
    0.53863094607776981770E-01
    0.53863088096608238708E-01
    0.53863109718894512656E-01
    0.53863108497376903372E-01
    0.53863135032330651530E-01
    0.53863139208862223506E-01
    0.53863055483356105102E-01
    0.53863048257592735513E-01
    0.53863058933522570126E-01
    0.53863052918335950492E-01
    0.53863036784341560004E-01
    0.53863028550710539966E-01
    0.53863016904784809247E-01
    0.53863020039131792593E-01
    0.53863013521257101235E-01
    0.53863018682824712058E-01
    0.53863030907519204860E-01
    0.53863042733520979932E-01
    0.53863034404313045456E-01
    0.53863031153663573636E-01
    0.53863076938431300733E-01
    0.53863075780601864240E-01
    0.53863095970649914335E-01
    0.53863092939506321266E-01
    0.53863070233230413153E-01
    0.53863063790790220720E-01
    0.53863044678774348040E-01
    0.53863043153745238101E-01
    0.53863029530240559561E-01
    0.53863031979902817326E-01
    0.53863048249055675565E-01
    0.53863057033070795010E-01
    0.53863058706317537561E-01
    0.53863057149449555805E-01
    0.53863141933916169890E-01
    0.53863128542677739252E-01
    0.53863146586932891813E-01
    0.53863134958080066683E-01
    0.53863106379880509866E-01
    0.53863089740881615886E-01
    0.53863069291488242796E-01
    0.53863076865561014539E-01
    0.53863065406180021810E-01
    0.53863075541527465073E-01
    0.53863097859853770188E-01
    0.53863119336768544576E-01
    0.53863103743460760686E-01
    0.53863097425112506367E-01
    0.53863174757246251589E-01
    0.53863169579441677604E-01
    0.53863201961017181940E-01
    0.53863193842752545015E-01
    0.53863154675697959284E-01
    0.53863139817081559513E-01
    0.53863108497377687467E-01
    0.53863109718895761657E-01
    0.53863088096609355870E-01
    0.53863094607778452816E-01
    0.53863123368118444312E-01
    0.53863141089156130192E-01
    0.53863139208863826390E-01
    0.53863135032332074004E-01
    0.53863132887237034907E-01
    0.53863137897196884663E-01
    0.53863171618145730402E-01
    0.53863171618145813668E-01
    0.53863137897196572412E-01
    0.53863132887236681023E-01
    0.53863102167372958751E-01
    0.53863095050835432809E-01
    0.53863071492550977648E-01
    0.53863071492551158059E-01
    0.53863095050835585464E-01
    0.53863102167373624884E-01
    0.53863114517961392658E-01
    0.53863114517961288574E-01
    0.53863237130664980146E-01
    0.53863252005009722156E-01
    0.53863308867881230790E-01
    0.53863314184454648414E-01
    0.53863261254504905817E-01
    0.53863258459858412430E-01
    0.53863207497510209865E-01
    0.53863191028991369569E-01
    0.53863150737469840668E-01
    0.53863147138698004579E-01
    0.53863183092135329122E-01
    0.53863188524453237127E-01
    0.53863217562028421759E-01
    0.53863220078374886290E-01
    0.53863258459860355321E-01
    0.53863261254506154818E-01
    0.53863314184456237421E-01
    0.53863308867881987130E-01
    0.53863252005010638090E-01
    0.53863237130665070351E-01
    0.53863188524453750605E-01
    0.53863183092135828722E-01
    0.53863147138698906635E-01
    0.53863150737470569251E-01
    0.53863191028992687959E-01
    0.53863207497511597643E-01
    0.53863220078375968758E-01
    0.53863217562029365448E-01
    0.53863411075843928288E-01
    0.53863425191842340123E-01
    0.53863511007713027468E-01
    0.53863511007713089918E-01
    0.53863425191841798889E-01
    0.53863411075843269094E-01
    0.53863333133647314788E-01
    0.53863316361032725910E-01
    0.53863256930596861705E-01
    0.53863256930597264160E-01
    0.53863316361032954893E-01
    0.53863333133648452766E-01
    0.53863366081590716150E-01
    0.53863366081590605128E-01
    0.53863199850528689638E-01
    0.53863229838316643849E-01
    0.53863279461529786629E-01
    0.53863300325147280001E-01
    0.53863269439161691465E-01
    0.53863293129458471309E-01
    0.53863254041352101598E-01
    0.53863216415425504979E-01
    0.53863177477618366662E-01
    0.53863159477094038619E-01
    0.53863179063040701744E-01
    0.53863164930659117313E-01
    0.53863214990651629710E-01
    0.53863226257579790990E-01
    0.53863393077910180773E-01
    0.53863445584529927312E-01
    0.53863532087826578032E-01
    0.53863568144352488853E-01
    0.53863514124120444315E-01
    0.53863554494146967389E-01
    0.53863487113690176888E-01
    0.53863422239271679937E-01
    0.53863354786641996774E-01
    0.53863323577680907728E-01
    0.53863357379165470451E-01
    0.53863332425582680085E-01
    0.53863419824935962477E-01
    0.53863439366906767924E-01
    0.53863277001411226375E-01
    0.53863306178479439246E-01
    0.53863374301457982163E-01
    0.53863391051788292452E-01
    0.53863336504669769023E-01
    0.53863347702987299237E-01
    0.53863289534937797143E-01
    0.53863257325253252605E-01
    0.53863207441533826614E-01
    0.53863194617002820019E-01
    0.53863230058826823410E-01
    0.53863224418310727548E-01
    0.53863274664134624947E-01
    0.53863283094009076213E-01
    0.53863521651312966376E-01
    0.53863575621111541014E-01
    0.53863695468511850473E-01
    0.53863726370758091555E-01
    0.53863631152896218612E-01
    0.53863651188647297674E-01
    0.53863549689259757058E-01
    0.53863492942075499870E-01
    0.53863405959063248574E-01
    0.53863382700431408634E-01
    0.53863443322063456198E-01
    0.53863430954283537944E-01
    0.53863521798306113197E-01
    0.53863537188399916722E-01
    0.53863729079198251204E-01
    0.53863818443922656387E-01
    0.53863967443866428431E-01
    0.53864026743445973799E-01
    0.53863932444826706503E-01
    0.53863998438757665355E-01
    0.53863884366880207533E-01
    0.53863774932890171043E-01
    0.53863660063339847961E-01
    0.53863606833778332472E-01
    0.53863665571612727445E-01
    0.53863623609221672472E-01
    0.53863772535309613343E-01
    0.53863805245881121730E-01
    0.53864303412775496605E-01
    0.53864448892458262341E-01
    0.53864701186834361424E-01
    0.53864792713415869663E-01
    0.53864629127391157326E-01
    0.53864731039347295283E-01
    0.53864543575292980759E-01
    0.53864364858321737983E-01
    0.53864173906085631438E-01
    0.53864086109709843897E-01
    0.53864187327233060965E-01
    0.53864120693545604335E-01
    0.53864366255910588188E-01
    0.53864418649881937173E-01
    0.53863957352132674217E-01
    0.53864052936121925574E-01
    0.53864265661115094674E-01
    0.53864318209572298324E-01
    0.53864147283775240527E-01
    0.53864177422046431720E-01
    0.53863999759394459721E-01
    0.53863903680249985984E-01
    0.53863752098428890891E-01
    0.53863712271009230037E-01
    0.53863818931052603878E-01
    0.53863797061172329073E-01
    0.53863956839710340485E-01
    0.53863983068980138269E-01
    0.53864728792494882825E-01
    0.53864890127029024791E-01
    0.53865266163942333855E-01
    0.53865346549774172080E-01
    0.53865036524709537791E-01
    0.53865071252807192326E-01
    0.53864762324063869547E-01
    0.53864607743095503645E-01
    0.53864346435799105584E-01
    0.53864282402231851432E-01
    0.53864473592118794487E-01
    0.53864442196064010737E-01
    0.53864712847551406150E-01
    0.53864753931647482710E-01
    0.53863423842308175149E-01
    0.53863456162637088354E-01
    0.53863553586761252212E-01
    0.53863568604546649410E-01
    0.53863481736490220753E-01
    0.53863482942640240891E-01
    0.53863395950346552865E-01
    0.53863363134084983608E-01
    0.53863293679350228438E-01
    0.53863284015882827160E-01
    0.53863341702794484411E-01
    0.53863344379583968924E-01
    0.53863402281563783902E-01
    0.53863409152440110128E-01
    0.53863757555071022087E-01
    0.53863822326956883879E-01
    0.53863994264017445168E-01
    0.53864027455817774237E-01
    0.53863877802705448228E-01
    0.53863885140524814243E-01
    0.53863732387089614806E-01
    0.53863671088981809887E-01
    0.53863548964764848548E-01
    0.53863528665538083773E-01
    0.53863625490937476481E-01
    0.53863622704282548836E-01
    0.53863733472748205611E-01
    0.53863748267391445279E-01
    0.53863675999540547301E-01
    0.53863711839273284432E-01
    0.53863854175031776472E-01
    0.53863865944396432939E-01
    0.53863731112687308900E-01
    0.53863720189402497507E-01
    0.53863590641838043904E-01
    0.53863553495046366526E-01
    0.53863453048443692139E-01
    0.53863446281569360430E-01
    0.53863538028260944668E-01
    0.53863553440887612656E-01
    0.53863623801495744137E-01
    0.53863628884362725613E-01
    0.53864140804657255346E-01
    0.53864220675490660784E-01
    0.53864466359152332608E-01
    0.53864504380284936036E-01
    0.53864281415714233836E-01
    0.53864279316264467024E-01
    0.53864054512025576205E-01
    0.53863978248789565195E-01
    0.53863803263529311249E-01
    0.53863783198339051927E-01
    0.53863931170133161341E-01
    0.53863941008761219431E-01
    0.53864082846023293716E-01
    0.53864098626362599820E-01
    0.53864363481912549969E-01
    0.53864487464705616826E-01
    0.53864798213288510309E-01
    0.53864862226421249269E-01
    0.53864593171472893718E-01
    0.53864606309091220271E-01
    0.53864332486286470303E-01
    0.53864222902161799922E-01
    0.53864005218945736064E-01
    0.53863967188699374278E-01
    0.53864136835847363505E-01
    0.53864125564516439348E-01
    0.53864331407144507013E-01
    0.53864359479072823622E-01
    0.53865473684279616129E-01
    0.53865700099827461267E-01
    0.53866268926945556905E-01
    0.53866378747261051130E-01
    0.53865880572118142455E-01
    0.53865887633062971285E-01
    0.53865392606508522011E-01
    0.53865207215818701469E-01
    0.53864817477946427826E-01
    0.53864752983022810839E-01
    0.53865060872833943340E-01
    0.53865041087325801761E-01
    0.53865412376180664411E-01
    0.53865460232588355249E-01
    0.53864985422356188860E-01
    0.53865154398211448350E-01
    0.53865598821073709668E-01
    0.53865688944756878742E-01
    0.53865296836156616178E-01
    0.53865309353270121595E-01
    0.53864903627532281782E-01
    0.53864755284503518240E-01
    0.53864440118111554801E-01
    0.53864394622531418244E-01
    0.53864646724687881285E-01
    0.53864641880328530121E-01
    0.53864924194133287361E-01
    0.53864960950844004151E-01
    0.53866568782192550402E-01
    0.53866907528226780355E-01
    0.53867738046469215707E-01
    0.53867920680934225364E-01
    0.53867193449847181053E-01
    0.53867217262548387768E-01
    0.53866465825532082456E-01
    0.53866191756920714373E-01
    0.53865611993786720324E-01
    0.53865522756840915342E-01
    0.53865976700314462111E-01
    0.53865946740655860914E-01
    0.53866493649493626950E-01
    0.53866567040084495366E-01
    0.53863293129462426478E-01
    0.53863269439165389896E-01
    0.53863300325151013126E-01
    0.53863279461533408732E-01
    0.53863229838319703902E-01
    0.53863199850531444379E-01
    0.53863164930661441843E-01
    0.53863179063043421790E-01
    0.53863159477096585193E-01
    0.53863177477621163036E-01
    0.53863216415428731565E-01
    0.53863254041355779211E-01
    0.53863226257583080026E-01
    0.53863214990654696701E-01
    0.53863347702991261345E-01
    0.53863336504673176020E-01
    0.53863391051792143538E-01
    0.53863374301461132421E-01
    0.53863306178482422970E-01
    0.53863277001413384371E-01
    0.53863224418313010444E-01
    0.53863230058829175695E-01
    0.53863194617005331899E-01
    0.53863207441536345432E-01
    0.53863257325256375108E-01
    0.53863289534941176384E-01
    0.53863283094012101571E-01
    0.53863274664137518466E-01
    0.53863554494153365049E-01
    0.53863514124126335436E-01
    0.53863568144358754675E-01
    0.53863532087832212414E-01
    0.53863445584535110666E-01
    0.53863393077914607787E-01
    0.53863332425586898933E-01
    0.53863357379169939099E-01
    0.53863323577685230659E-01
    0.53863354786646611139E-01
    0.53863422239276960435E-01
    0.53863487113696130459E-01
    0.53863439366912069239E-01
    0.53863419824941076441E-01
    0.53863651188653445534E-01
    0.53863631152902193000E-01
    0.53863726370764135332E-01
    0.53863695468517908127E-01
    0.53863575621116530079E-01
    0.53863521651317601557E-01
    0.53863430954287305763E-01
    0.53863443322067945662E-01
    0.53863382700435447070E-01
    0.53863405959067883755E-01
    0.53863492942080586079E-01
    0.53863549689265620424E-01
    0.53863537188405169465E-01
    0.53863521798311095323E-01
    0.53863482942643599316E-01
    0.53863481736493475094E-01
    0.53863568604549681706E-01
    0.53863553586764353898E-01
    0.53863456162639357372E-01
    0.53863423842310284573E-01
    0.53863344379585280375E-01
    0.53863341702796621591E-01
    0.53863284015884596578E-01
    0.53863293679352733379E-01
    0.53863363134087627326E-01
    0.53863395950350070884E-01
    0.53863409152442795480E-01
    0.53863402281566226393E-01
    0.53863720189405744909E-01
    0.53863731112689522407E-01
    0.53863865944399041963E-01
    0.53863854175033261396E-01
    0.53863711839274790172E-01
    0.53863675999540859551E-01
    0.53863553440888334300E-01
    0.53863538028261888357E-01
    0.53863446281570831475E-01
    0.53863453048445121552E-01
    0.53863553495048586972E-01
    0.53863590641840548845E-01
    0.53863628884364585236E-01
    0.53863623801497333143E-01
    0.53863885140531482520E-01
    0.53863877802711256082E-01
    0.53864027455824366186E-01
    0.53863994264022975467E-01
    0.53863822326961990905E-01
    0.53863757555074949501E-01
    0.53863622704286420739E-01
    0.53863625490941507978E-01
    0.53863528665542288743E-01
    0.53863548964769032701E-01
    0.53863671088987055691E-01
    0.53863732387095311638E-01
    0.53863748267396586999E-01
    0.53863733472753083653E-01
    0.53864279316270573250E-01
    0.53864281415720000057E-01
    0.53864504380290563479E-01
    0.53864466359157786579E-01
    0.53864220675494796364E-01
    0.53864140804660814998E-01
    0.53863941008763641105E-01
    0.53863931170136825077E-01
    0.53863783198342216063E-01
    0.53863803263533613364E-01
    0.53863978248794248949E-01
    0.53864054512031668553E-01
    0.53864098626367359901E-01
    0.53864082846027651341E-01
    0.53863998438767463073E-01
    0.53863932444835935232E-01
    0.53864026743455480084E-01
    0.53863967443875580832E-01
    0.53863818443930712443E-01
    0.53863729079205627248E-01
    0.53863623609228118705E-01
    0.53863665571619916139E-01
    0.53863606833785167283E-01
    0.53863660063347196250E-01
    0.53863774932898414449E-01
    0.53863884366889457078E-01
    0.53863805245889476159E-01
    0.53863772535317593071E-01
    0.53864177422056562505E-01
    0.53864147283784705178E-01
    0.53864318209582776054E-01
    0.53864265661124663409E-01
    0.53864052936130557558E-01
    0.53863957352140029444E-01
    0.53863797061179219394E-01
    0.53863818931059744000E-01
    0.53863712271016155053E-01
    0.53863752098436044891E-01
    0.53863903680258326534E-01
    0.53863999759403445589E-01
    0.53863983068988631475E-01
    0.53863956839718576952E-01
    0.53864731039362220844E-01
    0.53864629127405236342E-01
    0.53864792713430906246E-01
    0.53864701186848350234E-01
    0.53864448892470856434E-01
    0.53864303412786730674E-01
    0.53864120693555901653E-01
    0.53864187327244031356E-01
    0.53864086109720328566E-01
    0.53864173906096823874E-01
    0.53864364858334345953E-01
    0.53864543575307052836E-01
    0.53864418649894649227E-01
    0.53864366255922876969E-01
    0.53865071252822756265E-01
    0.53865036524724886624E-01
    0.53865346549790797670E-01
    0.53865266163958633316E-01
    0.53864890127042847068E-01
    0.53864728792507615696E-01
    0.53864442196074766023E-01
    0.53864473592130555912E-01
    0.53864282402242495695E-01
    0.53864346435810665781E-01
    0.53864607743108479376E-01
    0.53864762324078205302E-01
    0.53864753931661110697E-01
    0.53864712847564603926E-01
    0.53864606309102010251E-01
    0.53864593171483468592E-01
    0.53864862226432441705E-01
    0.53864798213299515395E-01
    0.53864487464714672083E-01
    0.53864363481920862764E-01
    0.53864125564523065992E-01
    0.53864136835855065677E-01
    0.53863967188706188272E-01
    0.53864005218953563137E-01
    0.53864222902170556806E-01
    0.53864332486296684355E-01
    0.53864359479081976023E-01
    0.53864331407153270836E-01
    0.53865309353282563032E-01
    0.53865296836167725347E-01
    0.53865688944769403446E-01
    0.53865598821084645365E-01
    0.53865154398220982390E-01
    0.53864985422363766132E-01
    0.53864641880335399626E-01
    0.53864646724695361413E-01
    0.53864394622538822044E-01
    0.53864440118119270851E-01
    0.53864755284513121669E-01
    0.53864903627543002373E-01