# vtk DataFile Version 3.0
LAPLACIEN  2D
ASCII
DATASET UNSTRUCTURED_GRID
FIELD FieldData 1
TIME 1 1 double
9.9000
 POINTS        7297  float
   1.5625000000000000E-002  0.96875000000000000        0.0000000000000000     
   3.1250000000000000E-002  0.96875000000000000        0.0000000000000000     
   3.1250000000000000E-002  0.98437500000000000        0.0000000000000000     
   9.3749999999999997E-003  0.97812500000000002        0.0000000000000000     
   2.0312500000000001E-002  0.97968750000000004        0.0000000000000000     
   2.1874999999999999E-002  0.99062499999999998        0.0000000000000000     
   1.0937499999999999E-002  0.98906249999999996        0.0000000000000000     
   4.6875000000000000E-002  0.96875000000000000        0.0000000000000000     
   6.2500000000000000E-002  0.96875000000000000        0.0000000000000000     
   6.2500000000000000E-002  0.98437500000000000        0.0000000000000000     
   4.0625000000000001E-002  0.97812500000000002        0.0000000000000000     
   5.1562499999999997E-002  0.97968750000000004        0.0000000000000000     
   5.3124999999999999E-002  0.99062499999999998        0.0000000000000000     
   4.2187500000000003E-002  0.98906249999999996        0.0000000000000000     
   1.5625000000000000E-002  0.93750000000000000        0.0000000000000000     
   3.1250000000000000E-002  0.93750000000000000        0.0000000000000000     
   3.1250000000000000E-002  0.95312500000000000        0.0000000000000000     
   9.3749999999999997E-003  0.94687500000000002        0.0000000000000000     
   2.0312500000000001E-002  0.94843750000000004        0.0000000000000000     
   2.1874999999999999E-002  0.95937499999999998        0.0000000000000000     
   1.0937499999999999E-002  0.95781249999999996        0.0000000000000000     
   4.6875000000000000E-002  0.93750000000000000        0.0000000000000000     
   6.2500000000000000E-002  0.93750000000000000        0.0000000000000000     
   6.2500000000000000E-002  0.95312500000000000        0.0000000000000000     
   4.0625000000000001E-002  0.94687500000000002        0.0000000000000000     
   5.1562499999999997E-002  0.94843750000000004        0.0000000000000000     
   5.3124999999999999E-002  0.95937499999999998        0.0000000000000000     
   4.2187500000000003E-002  0.95781249999999996        0.0000000000000000     
   7.8125000000000000E-002  0.96875000000000000        0.0000000000000000     
   9.3750000000000000E-002  0.96875000000000000        0.0000000000000000     
   9.3750000000000000E-002  0.98437500000000000        0.0000000000000000     
   7.1874999999999994E-002  0.97812500000000002        0.0000000000000000     
   8.2812499999999997E-002  0.97968750000000004        0.0000000000000000     
   8.4375000000000006E-002  0.99062499999999998        0.0000000000000000     
   7.3437500000000003E-002  0.98906249999999996        0.0000000000000000     
  0.10937500000000000       0.96875000000000000        0.0000000000000000     
  0.12500000000000000       0.96875000000000000        0.0000000000000000     
  0.12500000000000000       0.98437500000000000        0.0000000000000000     
  0.10312499999999999       0.97812500000000002        0.0000000000000000     
  0.11406250000000000       0.97968750000000004        0.0000000000000000     
  0.11562500000000001       0.99062499999999998        0.0000000000000000     
  0.10468750000000000       0.98906249999999996        0.0000000000000000     
   7.8125000000000000E-002  0.93750000000000000        0.0000000000000000     
   9.3750000000000000E-002  0.93750000000000000        0.0000000000000000     
   9.3750000000000000E-002  0.95312500000000000        0.0000000000000000     
   7.1874999999999994E-002  0.94687500000000002        0.0000000000000000     
   8.2812499999999997E-002  0.94843750000000004        0.0000000000000000     
   8.4375000000000006E-002  0.95937499999999998        0.0000000000000000     
   7.3437500000000003E-002  0.95781249999999996        0.0000000000000000     
  0.10937500000000000       0.93750000000000000        0.0000000000000000     
  0.12500000000000000       0.93750000000000000        0.0000000000000000     
  0.12500000000000000       0.95312500000000000        0.0000000000000000     
  0.10312499999999999       0.94687500000000002        0.0000000000000000     
  0.11406250000000000       0.94843750000000004        0.0000000000000000     
  0.11562500000000001       0.95937499999999998        0.0000000000000000     
  0.10468750000000000       0.95781249999999996        0.0000000000000000     
   1.5625000000000000E-002  0.90625000000000000        0.0000000000000000     
   3.1250000000000000E-002  0.90625000000000000        0.0000000000000000     
   3.1250000000000000E-002  0.92187500000000000        0.0000000000000000     
   9.3749999999999997E-003  0.91562500000000002        0.0000000000000000     
   2.0312500000000001E-002  0.91718750000000004        0.0000000000000000     
   2.1874999999999999E-002  0.92812499999999998        0.0000000000000000     
   1.0937499999999999E-002  0.92656249999999996        0.0000000000000000     
   4.6875000000000000E-002  0.90625000000000000        0.0000000000000000     
   6.2500000000000000E-002  0.90625000000000000        0.0000000000000000     
   6.2500000000000000E-002  0.92187500000000000        0.0000000000000000     
   4.0625000000000001E-002  0.91562500000000002        0.0000000000000000     
   5.1562499999999997E-002  0.91718750000000004        0.0000000000000000     
   5.3124999999999999E-002  0.92812499999999998        0.0000000000000000     
   4.2187500000000003E-002  0.92656249999999996        0.0000000000000000     
   1.5625000000000000E-002  0.87500000000000000        0.0000000000000000     
   3.1250000000000000E-002  0.87500000000000000        0.0000000000000000     
   3.1250000000000000E-002  0.89062500000000000        0.0000000000000000     
   9.3749999999999997E-003  0.88437500000000002        0.0000000000000000     
   2.0312500000000001E-002  0.88593750000000004        0.0000000000000000     
   2.1874999999999999E-002  0.89687499999999998        0.0000000000000000     
   1.0937499999999999E-002  0.89531249999999996        0.0000000000000000     
   4.6875000000000000E-002  0.87500000000000000        0.0000000000000000     
   6.2500000000000000E-002  0.87500000000000000        0.0000000000000000     
   6.2500000000000000E-002  0.89062500000000000        0.0000000000000000     
   4.0625000000000001E-002  0.88437500000000002        0.0000000000000000     
   5.1562499999999997E-002  0.88593750000000004        0.0000000000000000     
   5.3124999999999999E-002  0.89687499999999998        0.0000000000000000     
   4.2187500000000003E-002  0.89531249999999996        0.0000000000000000     
   7.8125000000000000E-002  0.90625000000000000        0.0000000000000000     
   9.3750000000000000E-002  0.90625000000000000        0.0000000000000000     
   9.3750000000000000E-002  0.92187500000000000        0.0000000000000000     
   7.1874999999999994E-002  0.91562500000000002        0.0000000000000000     
   8.2812499999999997E-002  0.91718750000000004        0.0000000000000000     
   8.4375000000000006E-002  0.92812499999999998        0.0000000000000000     
   7.3437500000000003E-002  0.92656249999999996        0.0000000000000000     
  0.10937500000000000       0.90625000000000000        0.0000000000000000     
  0.12500000000000000       0.90625000000000000        0.0000000000000000     
  0.12500000000000000       0.92187500000000000        0.0000000000000000     
  0.10312499999999999       0.91562500000000002        0.0000000000000000     
  0.11406250000000000       0.91718750000000004        0.0000000000000000     
  0.11562500000000001       0.92812499999999998        0.0000000000000000     
  0.10468750000000000       0.92656249999999996        0.0000000000000000     
   7.8125000000000000E-002  0.87500000000000000        0.0000000000000000     
   9.3750000000000000E-002  0.87500000000000000        0.0000000000000000     
   9.3750000000000000E-002  0.89062500000000000        0.0000000000000000     
   7.1874999999999994E-002  0.88437500000000002        0.0000000000000000     
   8.2812499999999997E-002  0.88593750000000004        0.0000000000000000     
   8.4375000000000006E-002  0.89687499999999998        0.0000000000000000     
   7.3437500000000003E-002  0.89531249999999996        0.0000000000000000     
  0.10937500000000000       0.87500000000000000        0.0000000000000000     
  0.12500000000000000       0.87500000000000000        0.0000000000000000     
  0.12500000000000000       0.89062500000000000        0.0000000000000000     
  0.10312499999999999       0.88437500000000002        0.0000000000000000     
  0.11406250000000000       0.88593750000000004        0.0000000000000000     
  0.11562500000000001       0.89687499999999998        0.0000000000000000     
  0.10468750000000000       0.89531249999999996        0.0000000000000000     
  0.14062500000000000       0.96875000000000000        0.0000000000000000     
  0.15625000000000000       0.96875000000000000        0.0000000000000000     
  0.15625000000000000       0.98437500000000000        0.0000000000000000     
  0.13437499999999999       0.97812500000000002        0.0000000000000000     
  0.14531250000000001       0.97968750000000004        0.0000000000000000     
  0.14687500000000001       0.99062499999999998        0.0000000000000000     
  0.13593749999999999       0.98906249999999996        0.0000000000000000     
  0.17187500000000000       0.96875000000000000        0.0000000000000000     
  0.18750000000000000       0.96875000000000000        0.0000000000000000     
  0.18750000000000000       0.98437500000000000        0.0000000000000000     
  0.16562499999999999       0.97812500000000002        0.0000000000000000     
  0.17656250000000001       0.97968750000000004        0.0000000000000000     
[...]
 CELL_DATA       14336
 SCALARS Tumor_cells float
 LOOKUP_TABLE default
    0.26520251438810937133E-01
    0.26520251228542009864E-01
    0.26520252854239811935E-01
    0.26520252854239166618E-01
    0.26520251228542013333E-01
    0.26520251438808737504E-01
    0.26520250148520982392E-01
    0.26520249386781363093E-01
    0.26520248564082443687E-01
    0.26520248564078481579E-01
    0.26520249386783864565E-01
    0.26520250148521169742E-01
    0.26520250029293042371E-01
    0.26520250029292220112E-01
    0.26520256778373781092E-01
    0.26520258201769203454E-01
    0.26520262066732476491E-01
    0.26520263136958276834E-01
    0.26520260239078552456E-01
    0.26520261629108209805E-01
    0.26520258590749096889E-01
    0.26520256064747761704E-01
    0.26520253400001338184E-01
    0.26520252443273904797E-01
    0.26520254106017101398E-01
    0.26520253899946433923E-01
    0.26520256502195391907E-01
    0.26520257074894512672E-01
    0.26520261629115311763E-01
    0.26520260239083975201E-01
    0.26520263136964039585E-01
    0.26520262066736653706E-01
    0.26520258201772381468E-01
    0.26520256778374787232E-01
    0.26520253899947887621E-01
    0.26520254106018926327E-01
    0.26520252443276600557E-01
    0.26520253400003718225E-01
    0.26520256064752216474E-01
    0.26520258590754734740E-01
    0.26520257074898714172E-01
    0.26520256502198739923E-01
    0.26520268801388323376E-01
    0.26520269423553198551E-01
    0.26520275469843375415E-01
    0.26520275469842344990E-01
    0.26520269423551432603E-01
    0.26520268801384087182E-01
    0.26520263442791493225E-01
    0.26520261915785280776E-01
    0.26520257932631807057E-01
    0.26520257932632261555E-01
    0.26520261915786942641E-01
    0.26520263442795073694E-01
    0.26520265202248243658E-01
    0.26520265202247712832E-01
    0.26520271065985086961E-01
    0.26520274919318357482E-01
    0.26520282467109364266E-01
    0.26520285280843370473E-01
    0.26520280287484591930E-01
    0.26520283669030801643E-01
    0.26520277704571479371E-01
    0.26520272170413149854E-01
    0.26520266449596416325E-01
    0.26520264030927064719E-01
    0.26520267083596105878E-01
    0.26520265615389893021E-01
    0.26520272284923204070E-01
    0.26520273806971216002E-01
    0.26520299683175929673E-01
    0.26520307460080307094E-01
    0.26520320812878070416E-01
    0.26520326245332220133E-01
    0.26520317816527153032E-01
    0.26520324074185853275E-01
    0.26520313517174626261E-01
    0.26520303480002241359E-01
    0.26520293047938899716E-01
    0.26520288308890156009E-01
    0.26520293665749726519E-01
    0.26520290124325957698E-01
    0.26520303276107232843E-01
    0.26520306229047784646E-01
    0.26520287545495586229E-01
    0.26520290557603295317E-01
    0.26520301171734907142E-01
    0.26520302589142858568E-01
    0.26520293153109081308E-01
    0.26520293696916729526E-01
    0.26520284390304807443E-01
    0.26520280280634585257E-01
    0.26520272669566521268E-01
    0.26520271523317491547E-01
    0.26520277895158230613E-01
    0.26520278607990294822E-01
    0.26520284441200473596E-01
    0.26520285169390027391E-01
    0.26520323074073304942E-01
    0.26520330014259185791E-01
    0.26520348304943024836E-01
    0.26520352095600770864E-01
    0.26520336977243104404E-01
    0.26520339398458308428E-01
    0.26520323675131629582E-01
    0.26520315394946630122E-01
    0.26520301956658168946E-01
    0.26520298913229174015E-01
    0.26520309014860233426E-01
    0.26520308442770312851E-01
    0.26520320841097368841E-01
    0.26520322792400876505E-01
    0.26520283669046965797E-01
    0.26520280287498639721E-01
    0.26520285280858032356E-01
    0.26520282467121961828E-01
    0.26520274919328835211E-01
    0.26520271065992803011E-01
    0.26520265615396818037E-01
    0.26520267083604675412E-01
    0.26520264030935276900E-01
    0.26520266449605780362E-01
    0.26520272170424886993E-01
    0.26520277704585603490E-01
    0.26520273806982939263E-01
    0.26520272284933921192E-01
    0.26520293696930038324E-01
    0.26520293153119416790E-01
    0.26520302589152829759E-01
    0.26520301171742269308E-01
    0.26520290557608933169E-01
    0.26520287545497907289E-01
    0.26520278607992445880E-01
    0.26520277895163049675E-01
    0.26520271523322855312E-01
    0.26520272669573668328E-01
    0.26520280280643633575E-01
    0.26520284390316839485E-01
    0.26520285169398149366E-01
    0.26520284441207273712E-01
    0.26520324074214802340E-01
    0.26520317816553423684E-01
    0.26520326245359472639E-01
    0.26520320812902745122E-01
    0.26520307460101880115E-01
    0.26520299683193925694E-01
    0.26520290124342288385E-01
    0.26520293665768458063E-01
    0.26520288308907985497E-01
    0.26520293047958578420E-01
    0.26520303480025129300E-01
    0.26520313517200844872E-01
    0.26520306229070814835E-01
    0.26520303276128951581E-01
    0.26520339398484412546E-01
    0.26520336977265655809E-01
    0.26520352095623350025E-01
    0.26520348304962467617E-01
    0.26520330014275932812E-01
    0.26520323074085885157E-01
    0.26520308442781949376E-01
    0.26520309014875176334E-01
    0.26520298913244189781E-01
    0.26520301956675589039E-01
    0.26520315394966836181E-01
    0.26520323675155731830E-01
    0.26520322792420322755E-01
    0.26520320841115184451E-01
    0.26520319835961217447E-01
    0.26520322174997296855E-01
    0.26520337925001760682E-01
    0.26520337925000189022E-01
    0.26520322174994396397E-01
    0.26520319835954441617E-01
    0.26520305483399845420E-01
    0.26520302156945035899E-01
    0.26520291146270670579E-01
    0.26520291146271867538E-01
    0.26520302156947672678E-01
    0.26520305483406097363E-01
    0.26520311252950012904E-01
    0.26520311252949201053E-01
    0.26520368509742226620E-01
    0.26520375451804731326E-01
    0.26520401989218164718E-01
    0.26520404469180879070E-01
    0.26520379768912284713E-01
    0.26520378465784980732E-01
    0.26520354677879363209E-01
    0.26520346988222913420E-01
    0.26520328174045086633E-01
    0.26520326493229412490E-01
    0.26520343281991497902E-01
    0.26520345818672269589E-01
    0.26520359374898560406E-01
    0.26520360549282348539E-01
    0.26520378465804562290E-01
    0.26520379768927428848E-01
    0.26520404469195107272E-01
    0.26520401989228701428E-01
    0.26520375451812957385E-01
    0.26520368509745696067E-01
    0.26520345818675499644E-01
    0.26520343281998950274E-01
    0.26520326493237877941E-01
    0.26520328174056542747E-01
    0.26520346988236746105E-01
    0.26520354677897699236E-01
    0.26520360549294484664E-01
    0.26520359374908743233E-01
    0.26520449672469748048E-01
    0.26520456255937602252E-01
    0.26520496284076669480E-01
    0.26520496284074542709E-01
    0.26520456255933581163E-01
    0.26520449672460363194E-01
    0.26520413310312046518E-01
    0.26520405483612931319E-01
    0.26520377750947701084E-01
    0.26520377750949480911E-01
    0.26520405483616678322E-01
    0.26520413310320924832E-01
    0.26520428681352459233E-01
    0.26520428681351314315E-01
    0.26520351117902751098E-01
    0.26520365117751142775E-01
    0.26520388280046800628E-01
    0.26520398015822146259E-01
    0.26520383603538769113E-01
    0.26520394661411400561E-01
    0.26520376419162151188E-01
    0.26520358854913477636E-01
    0.26520340674642834539E-01
    0.26520332268880706522E-01
    0.26520341413108390605E-01
    0.26520334813429566334E-01
    0.26520358188569136820E-01
    0.26520363447997106349E-01
    0.26520441288928695706E-01
    0.26520465782505133617E-01
    0.26520506126624383836E-01
    0.26520522940340240936E-01
    0.26520497751537447373E-01
    0.26520516580511320492E-01
    0.26520485156622454481E-01
    0.26520454897500374963E-01
    0.26520423431240836010E-01
    0.26520408870552972247E-01
    0.26520424638069303030E-01
    0.26520412995849756976E-01
    0.26520453769783215725E-01
    0.26520462884673360465E-01
    0.26520387120749795012E-01
    0.26520400736868263852E-01
    0.26520432521562414818E-01
    0.26520440334532744547E-01
    0.26520414890147423620E-01
    0.26520420118221175315E-01
    0.26520392977611741830E-01
    0.26520377944691121697E-01
    0.26520354660552108994E-01
    0.26520348672541466106E-01
    0.26520365214195467524E-01
    0.26520362580032652566E-01
    0.26520386033160734535E-01
    0.26520389967373287493E-01
    0.26520501246415129765E-01
    0.26520526413466746080E-01
    0.26520582295197905193E-01
    0.26520596702189151023E-01
    0.26520552310784480804E-01
    0.26520561656817528973E-01
    0.26520514330775311895E-01
    0.26520487864794353022E-01
    0.26520447296127756809E-01
    0.26520436445895623906E-01
    0.26520464718159671158E-01
    0.26520458948885158174E-01
    0.26520501318255278178E-01
    0.26520508495477667504E-01
    0.26520597976035096416E-01
    0.26520639639274094096E-01
    0.26520709094133277511E-01
    0.26520736737512571463E-01
    0.26520692784738890413E-01
    0.26520723549711189282E-01
    0.26520670376819908270E-01
    0.26520619360422714728E-01
    0.26520565805987203478E-01
    0.26520540987812542266E-01
    0.26520568371284039544E-01
    0.26520548805173144863E-01
    0.26520618240953402339E-01
    0.26520633490440117391E-01
    0.26520865683113556410E-01
    0.26520933485335126262E-01
    0.26521051058597661793E-01
    0.26521093713952430954E-01
    0.26521017482417114097E-01
    0.26521064977580437183E-01
    0.26520977616653697989E-01
    0.26520894329237279519E-01
    0.26520805334019067340E-01
    0.26520764414028306921E-01
    0.26520811586277989735E-01
    0.26520780527769613477E-01
    0.26520894977584068969E-01
    0.26520919396192759593E-01
    0.26520704375390950075E-01
    0.26520748929561396845E-01
    0.26520848075544580652E-01
    0.26520872568642824690E-01
    0.26520792907413843348E-01
    0.26520806958935976699E-01
    0.26520724153896411968E-01
    0.26520679366413918432E-01
    0.26520608705184328668E-01
    0.26520590136040789880E-01
    0.26520639855231748633E-01
    0.26520629658792531369E-01
    0.26520704140429975787E-01
    0.26520716367477891601E-01
    0.26521063908630477385E-01
    0.26521139091164266238E-01
    0.26521314317641254271E-01
    0.26521351778579321107E-01
    0.26521207313716224641E-01
    0.26521223501657222726E-01
    0.26521079545721679138E-01
    0.26521007506118118857E-01
    0.26520885731949984249E-01
    0.26520855887550605356E-01
    0.26520944984276005607E-01
    0.26520930350083377069E-01
    0.26521056480482477907E-01
    0.26521075627288236837E-01
    0.26520455627721987307E-01
    0.26520470701395206653E-01
    0.26520516140182009285E-01
    0.26520523140662947276E-01
    0.26520482629204329000E-01
    0.26520483192818338630E-01
    0.26520442617523995454E-01
    0.26520427307971165126E-01
    0.26520394902478205967E-01
    0.26520390393141878016E-01
    0.26520417308127236522E-01
    0.26520418558048007573E-01
    0.26520445569577319467E-01
    0.26520448773979393015E-01
    0.26520611241456746449E-01
    0.26520641435198669816E-01
    0.26520721585823570782E-01
    0.26520737053796039628E-01
    0.26520667293793702413E-01
    0.26520670714253367917E-01
    0.26520599503932151819E-01
    0.26520570925563053538E-01
    0.26520513982460785368E-01
    0.26520504516665002748E-01
    0.26520549664888891372E-01
    0.26520548368205457135E-01
    0.26520600010252231432E-01
    0.26520606906571469324E-01
    0.26520573224203539825E-01
    0.26520589933934215349E-01
    0.26520656296642658445E-01
    0.26520661780782953110E-01
    0.26520598918585932408E-01
    0.26520593824144081396E-01
    0.26520533417970663936E-01
    0.26520516096885916879E-01
    0.26520469250847451825E-01
    0.26520466094840274007E-01
    0.26520508884070797401E-01
    0.26520516073016548592E-01
    0.26520548882705902854E-01
    0.26520551252146491034E-01
    0.26520789908389803824E-01
    0.26520827131021201123E-01
    0.26520941642562648188E-01
    0.26520959356172744276E-01
    0.26520855435009840079E-01
    0.26520854451606571539E-01
    0.26520749669396239540E-01
    0.26520714123614470142E-01
    0.26520632552568271234E-01
    0.26520623200297702149E-01
    0.26520692182210106602E-01
    0.26520696774263580187E-01
    0.26520762884394907810E-01
    0.26520770237814444287E-01
    0.26520893671353594490E-01
    0.26520951447475855922E-01
    0.26521096265430078170E-01
    0.26521126092820174192E-01
    0.26521000706297929300E-01
    0.26521006828759342150E-01
    0.26520879219211163785E-01
    0.26520828144704192836E-01
    0.26520726686696471930E-01
    0.26520708960612503213E-01
    0.26520788031990441547E-01
    0.26520782782698103935E-01
    0.26520878715375510032E-01
    0.26520891797529491662E-01
    0.26521411027170586905E-01
    0.26521516525720999907E-01
    0.26521781581463028249E-01
    0.26521832750377002247E-01
    0.26521600614445233618E-01
    0.26521603904155480885E-01
    0.26521373236800212247E-01
    0.26521286848298814692E-01
    0.26521105235027292446E-01
    0.26521075180979836877E-01
    0.26521218656400613600E-01
    0.26521209440108724220E-01
    0.26521382450380544954E-01
    0.26521404749199763151E-01
    0.26521183539383624828E-01
    0.26521262274486350624E-01
    0.26521469374506442124E-01
    0.26521511363310996956E-01
    0.26521328637600798811E-01
    0.26521334462196025084E-01
    0.26521145392013893011E-01
    0.26521076267498791545E-01
    0.26520929389759761302E-01
    0.26520908191229913137E-01
    0.26521025685661451382E-01
    0.26521023436002731655E-01
    0.26521154991048925126E-01
    0.26521172116174510092E-01
    0.26521921348647697902E-01
    0.26522079184160194526E-01
    0.26522466178746227639E-01
    0.26522551272718533633E-01
    0.26522212395957873998E-01
    0.26522223482743939593E-01
    0.26521873334314379628E-01
    0.26521745634713135564E-01
    0.26521475481065245883E-01
    0.26521433903818301958E-01
    0.26521645437734078093E-01
    0.26521631489835561374E-01
    0.26521886318978060704E-01
    0.26521920512394749070E-01
    0.26520394661456687252E-01
    0.26520383603580832688E-01
    0.26520398015865569857E-01
    0.26520388280087115601E-01
    0.26520365117787440129E-01
    0.26520351117934621438E-01
    0.26520334813459021939E-01
    0.26520341413140857689E-01
    0.26520332268911876034E-01
    0.26520340674676387560E-01
    0.26520358854951162769E-01
    0.26520376419204023943E-01
    0.26520363448035048221E-01
    0.26520358188605461930E-01
    0.26520420118263644815E-01
    0.26520414890185795703E-01
    0.26520440334571564189E-01
    0.26520432521597577663E-01
    0.26520400736899773370E-01
    0.26520387120776266893E-01
    0.26520362580057427887E-01
    0.26520365214224152911E-01
    0.26520348672569801080E-01
    0.26520354660583410344E-01
    0.26520377944726121477E-01
    0.26520392977651501693E-01
    0.26520389967407648896E-01
    0.26520386033193163455E-01
    0.26520516580576511401E-01
    0.26520497751598849645E-01
    0.26520522940403405687E-01
    0.26520506126683909137E-01
    0.26520465782559718426E-01
    0.26520441288978000016E-01
    0.26520412995895921437E-01
    0.26520424638119047961E-01
    0.26520408870601020618E-01
    0.26520423431291826472E-01
    0.26520454897556413471E-01
    0.26520485156683554911E-01
    0.26520462884729773673E-01
    0.26520453769837703389E-01
    0.26520561656879968609E-01
    0.26520552310842278321E-01
    0.26520596702247829779E-01
    0.26520582295252420613E-01
    0.26520526413516647135E-01
    0.26520501246459143169E-01
    0.26520458948926715209E-01
    0.26520464718205696841E-01
    0.26520436445940875902E-01
    0.26520447296176502539E-01
    0.26520487864847744341E-01
    0.26520514330834306371E-01
    0.26520508495530580040E-01
    0.26520501318305949451E-01
    0.26520483192854407001E-01
    0.26520482629235390959E-01
    0.26520523140693523512E-01
    0.26520516140208366673E-01
    0.26520470701418292353E-01
    0.26520455627739421278E-01
    0.26520418558064452752E-01
    0.26520417308148490354E-01
    0.26520390393163704307E-01
    0.26520394902503550277E-01
    0.26520427307999857452E-01
    0.26520442617558072362E-01
    0.26520448774006555315E-01
    0.26520445569602216218E-01
    0.26520593824170036329E-01
    0.26520598918605964994E-01
    0.26520661780801521590E-01
    0.26520656296656407863E-01
    0.26520589933945099004E-01
    0.26520573224208157659E-01
    0.26520516073020899278E-01
    0.26520508884080879614E-01
    0.26520466094851914002E-01
    0.26520469250863206584E-01
    0.26520516096904613729E-01
    0.26520533417995376807E-01
    0.26520551252162734984E-01
    0.26520548882719530842E-01
    0.26520670714309562549E-01
    0.26520667293844359808E-01
    0.26520737053846686615E-01
    0.26520721585869471565E-01
    0.26520641435240313588E-01
    0.26520611241491878068E-01
    0.26520548368238798520E-01
    0.26520549664927610400E-01
    0.26520504516703857084E-01
    0.26520513982503702427E-01
    0.26520570925610258833E-01
    0.26520599503985609058E-01
    0.26520606906617307658E-01
    0.26520600010295495436E-01
    0.26520854451652912942E-01
    0.26520855435049690146E-01
    0.26520959356211640245E-01
    0.26520941642596176924E-01
    0.26520827131050819792E-01
    0.26520789908412244207E-01
    0.26520696774284920755E-01
    0.26520692182237785850E-01
    0.26520623200326481211E-01
    0.26520632552601723642E-01
    0.26520714123651860372E-01
    0.26520749669440551316E-01
    0.26520770237849544682E-01
    0.26520762884427069583E-01
    0.26520723549799771201E-01
    0.26520692784823142463E-01
    0.26520736737599009264E-01
    0.26520709094215572793E-01
    0.26520639639350519073E-01
    0.26520597976105411697E-01
    0.26520548805239567425E-01
    0.26520568371354611564E-01
    0.26520540987881018741E-01
    0.26520565806059145930E-01
    0.26520619360500624628E-01
    0.26520670376903737048E-01
    0.26520633490518519954E-01
    0.26520618241029577516E-01
    0.26520806959021946125E-01
    0.26520792907494667584E-01
    0.26520872568725050583E-01
    0.26520848075622150547E-01
    0.26520748929633363583E-01
    0.26520704375456154861E-01
    0.26520629658854485283E-01
    0.26520639855298726306E-01
    0.26520590136106549778E-01
    0.26520608705254102716E-01
    0.26520679366489278289E-01
    0.26520724153978190302E-01
    0.26520716367552939208E-01
    0.26520704140502490698E-01
    0.26521064977696049564E-01
    0.26521017482527865783E-01
    0.26521093714065843705E-01
    0.26521051058706383852E-01
    0.26520933485437003102E-01
    0.26520865683208445784E-01
    0.26520780527859822567E-01
    0.26520811586372931151E-01
    0.26520764414120726049E-01
    0.26520805334115500618E-01
    0.26520894329340634343E-01
    0.26520977616763866808E-01
    0.26520919396296770143E-01
    0.26520894977685532945E-01
    0.26521223501770465475E-01
    0.26521207313823926682E-01
    0.26521351778689087469E-01
    0.26521314317745861566E-01
    0.26521139091262111581E-01
    0.26521063908720689944E-01
    0.26520930350169415884E-01
    0.26520944984367599007E-01
    0.26520855887640446685E-01
    0.26520885732044374022E-01
    0.26521007506219107519E-01
    0.26521079545829929353E-01
    0.26521075627389173457E-01
    0.26521056480580583459E-01
    0.26521006828839500252E-01
    0.26521000706372064443E-01
    0.26521126092894878323E-01
    0.26521096265499522621E-01
    0.26520951447539933138E-01
    0.26520893671410264436E-01
    0.26520782782752071183E-01
    0.26520788032050355426E-01
    0.26520708960672056270E-01
    0.26520726686760625473E-01
    0.26520828144773675450E-01
    0.26520879219287779582E-01
    0.26520891797597836298E-01
    0.26520878715440964618E-01
    0.26521334462266898946E-01
    0.26521328637664615818E-01
    0.26521511363374515591E-01
    0.26521469374563996779E-01
    0.26521262274538812131E-01
    0.26521183539427947012E-01
    0.26521023436045013805E-01
    0.26521025685710662018E-01
    0.26520908191279692762E-01
    0.26520929389814783261E-01
    0.26521076267558861550E-01
    0.26521145392081835190E-01