# vtk DataFile Version 3.0
LAPLACIEN  2D
ASCII
DATASET UNSTRUCTURED_GRID
FIELD FieldData 1
TIME 1 1 double
13.8000
 POINTS        7297  float
   1.5625000000000000E-002  0.96875000000000000        0.0000000000000000     
   3.1250000000000000E-002  0.96875000000000000        0.0000000000000000     
   3.1250000000000000E-002  0.98437500000000000        0.0000000000000000     
   9.3749999999999997E-003  0.97812500000000002        0.0000000000000000     
   2.0312500000000001E-002  0.97968750000000004        0.0000000000000000     
   2.1874999999999999E-002  0.99062499999999998        0.0000000000000000     
   1.0937499999999999E-002  0.98906249999999996        0.0000000000000000     
   4.6875000000000000E-002  0.96875000000000000        0.0000000000000000     
   6.2500000000000000E-002  0.96875000000000000        0.0000000000000000     
   6.2500000000000000E-002  0.98437500000000000        0.0000000000000000     
   4.0625000000000001E-002  0.97812500000000002        0.0000000000000000     
   5.1562499999999997E-002  0.97968750000000004        0.0000000000000000     
   5.3124999999999999E-002  0.99062499999999998        0.0000000000000000     
   4.2187500000000003E-002  0.98906249999999996        0.0000000000000000     
   1.5625000000000000E-002  0.93750000000000000        0.0000000000000000     
   3.1250000000000000E-002  0.93750000000000000        0.0000000000000000     
   3.1250000000000000E-002  0.95312500000000000        0.0000000000000000     
   9.3749999999999997E-003  0.94687500000000002        0.0000000000000000     
   2.0312500000000001E-002  0.94843750000000004        0.0000000000000000     
   2.1874999999999999E-002  0.95937499999999998        0.0000000000000000     
   1.0937499999999999E-002  0.95781249999999996        0.0000000000000000     
   4.6875000000000000E-002  0.93750000000000000        0.0000000000000000     
   6.2500000000000000E-002  0.93750000000000000        0.0000000000000000     
   6.2500000000000000E-002  0.95312500000000000        0.0000000000000000     
   4.0625000000000001E-002  0.94687500000000002        0.0000000000000000     
   5.1562499999999997E-002  0.94843750000000004        0.0000000000000000     
   5.3124999999999999E-002  0.95937499999999998        0.0000000000000000     
   4.2187500000000003E-002  0.95781249999999996        0.0000000000000000     
   7.8125000000000000E-002  0.96875000000000000        0.0000000000000000     
   9.3750000000000000E-002  0.96875000000000000        0.0000000000000000     
   9.3750000000000000E-002  0.98437500000000000        0.0000000000000000     
   7.1874999999999994E-002  0.97812500000000002        0.0000000000000000     
   8.2812499999999997E-002  0.97968750000000004        0.0000000000000000     
   8.4375000000000006E-002  0.99062499999999998        0.0000000000000000     
   7.3437500000000003E-002  0.98906249999999996        0.0000000000000000     
  0.10937500000000000       0.96875000000000000        0.0000000000000000     
  0.12500000000000000       0.96875000000000000        0.0000000000000000     
  0.12500000000000000       0.98437500000000000        0.0000000000000000     
  0.10312499999999999       0.97812500000000002        0.0000000000000000     
  0.11406250000000000       0.97968750000000004        0.0000000000000000     
  0.11562500000000001       0.99062499999999998        0.0000000000000000     
  0.10468750000000000       0.98906249999999996        0.0000000000000000     
   7.8125000000000000E-002  0.93750000000000000        0.0000000000000000     
   9.3750000000000000E-002  0.93750000000000000        0.0000000000000000     
   9.3750000000000000E-002  0.95312500000000000        0.0000000000000000     
   7.1874999999999994E-002  0.94687500000000002        0.0000000000000000     
   8.2812499999999997E-002  0.94843750000000004        0.0000000000000000     
   8.4375000000000006E-002  0.95937499999999998        0.0000000000000000     
   7.3437500000000003E-002  0.95781249999999996        0.0000000000000000     
  0.10937500000000000       0.93750000000000000        0.0000000000000000     
  0.12500000000000000       0.93750000000000000        0.0000000000000000     
  0.12500000000000000       0.95312500000000000        0.0000000000000000     
  0.10312499999999999       0.94687500000000002        0.0000000000000000     
  0.11406250000000000       0.94843750000000004        0.0000000000000000     
  0.11562500000000001       0.95937499999999998        0.0000000000000000     
  0.10468750000000000       0.95781249999999996        0.0000000000000000     
   1.5625000000000000E-002  0.90625000000000000        0.0000000000000000     
   3.1250000000000000E-002  0.90625000000000000        0.0000000000000000     
   3.1250000000000000E-002  0.92187500000000000        0.0000000000000000     
   9.3749999999999997E-003  0.91562500000000002        0.0000000000000000     
   2.0312500000000001E-002  0.91718750000000004        0.0000000000000000     
   2.1874999999999999E-002  0.92812499999999998        0.0000000000000000     
   1.0937499999999999E-002  0.92656249999999996        0.0000000000000000     
   4.6875000000000000E-002  0.90625000000000000        0.0000000000000000     
   6.2500000000000000E-002  0.90625000000000000        0.0000000000000000     
   6.2500000000000000E-002  0.92187500000000000        0.0000000000000000     
   4.0625000000000001E-002  0.91562500000000002        0.0000000000000000     
   5.1562499999999997E-002  0.91718750000000004        0.0000000000000000     
   5.3124999999999999E-002  0.92812499999999998        0.0000000000000000     
   4.2187500000000003E-002  0.92656249999999996        0.0000000000000000     
   1.5625000000000000E-002  0.87500000000000000        0.0000000000000000     
   3.1250000000000000E-002  0.87500000000000000        0.0000000000000000     
   3.1250000000000000E-002  0.89062500000000000        0.0000000000000000     
   9.3749999999999997E-003  0.88437500000000002        0.0000000000000000     
   2.0312500000000001E-002  0.88593750000000004        0.0000000000000000     
   2.1874999999999999E-002  0.89687499999999998        0.0000000000000000     
   1.0937499999999999E-002  0.89531249999999996        0.0000000000000000     
   4.6875000000000000E-002  0.87500000000000000        0.0000000000000000     
   6.2500000000000000E-002  0.87500000000000000        0.0000000000000000     
   6.2500000000000000E-002  0.89062500000000000        0.0000000000000000     
   4.0625000000000001E-002  0.88437500000000002        0.0000000000000000     
   5.1562499999999997E-002  0.88593750000000004        0.0000000000000000     
   5.3124999999999999E-002  0.89687499999999998        0.0000000000000000     
   4.2187500000000003E-002  0.89531249999999996        0.0000000000000000     
   7.8125000000000000E-002  0.90625000000000000        0.0000000000000000     
   9.3750000000000000E-002  0.90625000000000000        0.0000000000000000     
   9.3750000000000000E-002  0.92187500000000000        0.0000000000000000     
   7.1874999999999994E-002  0.91562500000000002        0.0000000000000000     
   8.2812499999999997E-002  0.91718750000000004        0.0000000000000000     
   8.4375000000000006E-002  0.92812499999999998        0.0000000000000000     
   7.3437500000000003E-002  0.92656249999999996        0.0000000000000000     
  0.10937500000000000       0.90625000000000000        0.0000000000000000     
  0.12500000000000000       0.90625000000000000        0.0000000000000000     
  0.12500000000000000       0.92187500000000000        0.0000000000000000     
  0.10312499999999999       0.91562500000000002        0.0000000000000000     
  0.11406250000000000       0.91718750000000004        0.0000000000000000     
  0.11562500000000001       0.92812499999999998        0.0000000000000000     
  0.10468750000000000       0.92656249999999996        0.0000000000000000     
   7.8125000000000000E-002  0.87500000000000000        0.0000000000000000     
   9.3750000000000000E-002  0.87500000000000000        0.0000000000000000     
   9.3750000000000000E-002  0.89062500000000000        0.0000000000000000     
   7.1874999999999994E-002  0.88437500000000002        0.0000000000000000     
   8.2812499999999997E-002  0.88593750000000004        0.0000000000000000     
   8.4375000000000006E-002  0.89687499999999998        0.0000000000000000     
   7.3437500000000003E-002  0.89531249999999996        0.0000000000000000     
  0.10937500000000000       0.87500000000000000        0.0000000000000000     
  0.12500000000000000       0.87500000000000000        0.0000000000000000     
  0.12500000000000000       0.89062500000000000        0.0000000000000000     
  0.10312499999999999       0.88437500000000002        0.0000000000000000     
  0.11406250000000000       0.88593750000000004        0.0000000000000000     
  0.11562500000000001       0.89687499999999998        0.0000000000000000     
  0.10468750000000000       0.89531249999999996        0.0000000000000000     
  0.14062500000000000       0.96875000000000000        0.0000000000000000     
  0.15625000000000000       0.96875000000000000        0.0000000000000000     
  0.15625000000000000       0.98437500000000000        0.0000000000000000     
  0.13437499999999999       0.97812500000000002        0.0000000000000000     
  0.14531250000000001       0.97968750000000004        0.0000000000000000     
  0.14687500000000001       0.99062499999999998        0.0000000000000000     
  0.13593749999999999       0.98906249999999996        0.0000000000000000     
  0.17187500000000000       0.96875000000000000        0.0000000000000000     
  0.18750000000000000       0.96875000000000000        0.0000000000000000     
  0.18750000000000000       0.98437500000000000        0.0000000000000000     
  0.16562499999999999       0.97812500000000002        0.0000000000000000     
  0.17656250000000001       0.97968750000000004        0.0000000000000000     
[...]
 CELL_DATA       14336
 SCALARS Tumor_cells float
 LOOKUP_TABLE default
    0.40708240879809447221E-01
    0.40708240547594164160E-01
    0.40708243171149023631E-01
    0.40708243171148468520E-01
    0.40708240547595808678E-01
    0.40708240879807545964E-01
    0.40708238802125908118E-01
    0.40708237571220128037E-01
    0.40708236242269289773E-01
    0.40708236242259089599E-01
    0.40708237571225464047E-01
    0.40708238802123958289E-01
    0.40708238609399503838E-01
    0.40708238609397796870E-01
    0.40708249512359268030E-01
    0.40708251813089568749E-01
    0.40708258058455404349E-01
    0.40708259790041299853E-01
    0.40708255105598570300E-01
    0.40708257348055013058E-01
    0.40708252440046110987E-01
    0.40708248359454538012E-01
    0.40708244050810131476E-01
    0.40708242514401062062E-01
    0.40708245192264208567E-01
    0.40708244863251891177E-01
    0.40708249068494420375E-01
    0.40708249989192688001E-01
    0.40708257348056886560E-01
    0.40708255105599562562E-01
    0.40708259790042708448E-01
    0.40708258058456257833E-01
    0.40708251813090692850E-01
    0.40708249512359004352E-01
    0.40708244863253195689E-01
    0.40708245192263646517E-01
    0.40708242514402928625E-01
    0.40708244050809465342E-01
    0.40708248359456168652E-01
    0.40708252440047193454E-01
    0.40708249989193937002E-01
    0.40708249068495037937E-01
    0.40708268949184667207E-01
    0.40708269956532421030E-01
    0.40708279735423104351E-01
    0.40708279735422833734E-01
    0.40708269956532136535E-01
    0.40708268949183584740E-01
    0.40708260285832652270E-01
    0.40708257816875766111E-01
    0.40708251379222022692E-01
    0.40708251379221641053E-01
    0.40708257816876439183E-01
    0.40708260285833242076E-01
    0.40708263130965295640E-01
    0.40708263130965087473E-01
    0.40708272610079893061E-01
    0.40708278842061670910E-01
    0.40708291050850976822E-01
    0.40708295602975889949E-01
    0.40708287525256660333E-01
    0.40708292994136564824E-01
    0.40708283346162131566E-01
    0.40708274395887519836E-01
    0.40708265142906999157E-01
    0.40708261236254504600E-01
    0.40708266168886286795E-01
    0.40708263795841484467E-01
    0.40708274581778801371E-01
    0.40708277041679077901E-01
    0.40708318907895911509E-01
    0.40708331494272394224E-01
    0.40708353107748992961E-01
    0.40708361902369642749E-01
    0.40708348257546989046E-01
    0.40708358386691859132E-01
    0.40708341297056589714E-01
    0.40708325052091369478E-01
    0.40708308169556048361E-01
    0.40708300501711001951E-01
    0.40708309169960536777E-01
    0.40708303439424595171E-01
    0.40708324722291563957E-01
    0.40708329501586489052E-01
    0.40708299270909346912E-01
    0.40708304144702771310E-01
    0.40708321320294151013E-01
    0.40708323613757327331E-01
    0.40708308343163683574E-01
    0.40708309221530465660E-01
    0.40708294163286064260E-01
    0.40708287515465152451E-01
    0.40708275204876576137E-01
    0.40708273350355997366E-01
    0.40708283658269325822E-01
    0.40708284811531880720E-01
    0.40708294247595033788E-01
    0.40708295426002683026E-01
    0.40708356771851195166E-01
    0.40708368007971389158E-01
    0.40708397621539230138E-01
    0.40708403760248569603E-01
    0.40708379280279746726E-01
    0.40708383198888753451E-01
    0.40708357742275547153E-01
    0.40708344339154531322E-01
    0.40708322588098283523E-01
    0.40708317662318069252E-01
    0.40708334013473131130E-01
    0.40708333087963295693E-01
    0.40708353156610303791E-01
    0.40708356315568697270E-01
    0.40708292994140353460E-01
    0.40708287525259873041E-01
    0.40708295602979296945E-01
    0.40708291050853877280E-01
    0.40708278842064168912E-01
    0.40708272610081579213E-01
    0.40708263795843281641E-01
    0.40708266168888104786E-01
    0.40708261236256627902E-01
    0.40708265142909004497E-01
    0.40708274395890350905E-01
    0.40708283346165399785E-01
    0.40708277041681867336E-01
    0.40708274581781243862E-01
    0.40708309221533595101E-01
    0.40708308343166049736E-01
    0.40708323613759631043E-01
    0.40708321320295837165E-01
    0.40708304144704096639E-01
    0.40708299270909846512E-01
    0.40708284811532442771E-01
    0.40708283658270345839E-01
    0.40708273350357357390E-01
    0.40708275204878137388E-01
    0.40708287515467310447E-01
    0.40708294163288805123E-01
    0.40708295426004577344E-01
    0.40708294247596574222E-01
    0.40708358386698624554E-01
    0.40708348257553129967E-01
    0.40708361902376026531E-01
    0.40708353107754752243E-01
    0.40708331494277424922E-01
    0.40708318907900060968E-01
    0.40708303439428425441E-01
    0.40708309169964866647E-01
    0.40708300501715165287E-01
    0.40708308169560607215E-01
    0.40708325052096719365E-01
    0.40708341297062723696E-01
    0.40708329501591873634E-01
    0.40708324722296615472E-01
    0.40708383198894894373E-01
    0.40708379280285041102E-01
    0.40708403760253884796E-01
    0.40708397621543816747E-01
    0.40708368007975309633E-01
    0.40708356771854123379E-01
    0.40708333087965994923E-01
    0.40708334013476586699E-01
    0.40708317662321573394E-01
    0.40708322588102328898E-01
    0.40708344339159263647E-01
    0.40708357742281167657E-01
    0.40708356315573249185E-01
    0.40708353156614481005E-01
    0.40708351530025783938E-01
    0.40708355317103893378E-01
    0.40708380814190793517E-01
    0.40708380814190425756E-01
    0.40708355317103234183E-01
    0.40708351530024215748E-01
    0.40708328298716053850E-01
    0.40708322915590254565E-01
    0.40708305097010885620E-01
    0.40708305097011121543E-01
    0.40708322915590892943E-01
    0.40708328298717504079E-01
    0.40708337637696899447E-01
    0.40708337637696712097E-01
    0.40708430339120291186E-01
    0.40708441582430386629E-01
    0.40708484561859735462E-01
    0.40708488580280317859E-01
    0.40708448575272858372E-01
    0.40708446465179959350E-01
    0.40708407942330444851E-01
    0.40708395490582298393E-01
    0.40708365028305340538E-01
    0.40708362306749006077E-01
    0.40708389488792302846E-01
    0.40708393595430603096E-01
    0.40708415547424867120E-01
    0.40708417449767456131E-01
    0.40708446465184629226E-01
    0.40708448575276452719E-01
    0.40708488580283759550E-01
    0.40708484561862261220E-01
    0.40708441582432350336E-01
    0.40708430339121123853E-01
    0.40708393595431366374E-01
    0.40708389488794037570E-01
    0.40708362306750983661E-01
    0.40708365028307998135E-01
    0.40708395490585566612E-01
    0.40708407942334795537E-01
    0.40708417449770335772E-01
    0.40708415547427267978E-01
    0.40708561802016464404E-01
    0.40708572467544050510E-01
    0.40708637314110777961E-01
    0.40708637314110257543E-01
    0.40708572467543058249E-01
    0.40708561802014188447E-01
    0.40708502899948810494E-01
    0.40708490222725428331E-01
    0.40708445305140956993E-01
    0.40708445305141373327E-01
    0.40708490222726358143E-01
    0.40708502899950996246E-01
    0.40708527798419165411E-01
    0.40708527798418887855E-01
    0.40708402174492341885E-01
    0.40708424846482384185E-01
    0.40708462358675277792E-01
    0.40708478129458623707E-01
    0.40708454785049412450E-01
    0.40708472694864869523E-01
    0.40708443147907683035E-01
    0.40708414702769903093E-01
    0.40708385263614269012E-01
    0.40708371652701524912E-01
    0.40708386460272957819E-01
    0.40708375773723111390E-01
    0.40708413623940599424E-01
    0.40708422142012562484E-01
    0.40708548229506966165E-01
    0.40708587912051882873E-01
    0.40708653279237359823E-01
    0.40708680525337166689E-01
    0.40708639709253570393E-01
    0.40708670217637805966E-01
    0.40708619301325077444E-01
    0.40708570275295112573E-01
    0.40708519297979001150E-01
    0.40708495709757479275E-01
    0.40708521254325578942E-01
    0.40708502393308990119E-01
    0.40708568448426574182E-01
    0.40708583216878542477E-01
    0.40708460483568756350E-01
    0.40708482538687876251E-01
    0.40708534024769052473E-01
    0.40708546684509308577E-01
    0.40708505464412680919E-01
    0.40708513932616041675E-01
    0.40708469969548105594E-01
    0.40708445620713337720E-01
    0.40708407911785642053E-01
    0.40708398214887815680E-01
    0.40708425004366187439E-01
    0.40708420738007407291E-01
    0.40708458722146748099E-01
    0.40708465094863532929E-01
    0.40708645371853091621E-01
    0.40708686153701920118E-01
    0.40708776705438896870E-01
    0.40708800055294452891E-01
    0.40708728119097883913E-01
    0.40708743263656990696E-01
    0.40708666575054036629E-01
    0.40708623691715781212E-01
    0.40708557961956999549E-01
    0.40708540382927808909E-01
    0.40708586189349908746E-01
    0.40708576840182440770E-01
    0.40708645490206474271E-01
    0.40708657120530601647E-01
    0.40708802120081176434E-01
    0.40708869639948831731E-01
    0.40708982205441064661E-01
    0.40709027007544175414E-01
    0.40708955771393738610E-01
    0.40709005631959303828E-01
    0.40708919453448490222E-01
    0.40708836774010020987E-01
    0.40708749985427415685E-01
    0.40708709766365418214E-01
    0.40708754143606647180E-01
    0.40708722435790503646E-01
    0.40708834959718158408E-01
    0.40708859673979275184E-01
    0.40709236006700490196E-01
    0.40709345905961390188E-01
    0.40709536482834228488E-01
    0.40709605623614197878E-01
    0.40709482058122123393E-01
    0.40709559044008872264E-01
    0.40709417437971490150E-01
    0.40709282436097372904E-01
    0.40709138188060073338E-01
    0.40709071863232672295E-01
    0.40709148322604651882E-01
    0.40709097981973980940E-01
    0.40709283487714652272E-01
    0.40709323067569469501E-01
    0.40708974554333532403E-01
    0.40709046767107244513E-01
    0.40709207462236815522E-01
    0.40709247162723831426E-01
    0.40709118048490110231E-01
    0.40709140823503048301E-01
    0.40709006614345115416E-01
    0.40708934025743687135E-01
    0.40708819508327789838E-01
    0.40708789414790669259E-01
    0.40708869990852443455E-01
    0.40708853463541791462E-01
    0.40708974177139096995E-01
    0.40708993994465730859E-01
    0.40709557303817991980E-01
    0.40709679174263775636E-01
    0.40709963210431625302E-01
    0.40710023935449902999E-01
    0.40709789765350570812E-01
    0.40709816006231198948E-01
    0.40709582659391244097E-01
    0.40709465887894459579E-01
    0.40709268502980795745E-01
    0.40709220128142320494E-01
    0.40709364543607698406E-01
    0.40709340820612796574E-01
    0.40709545270582674081E-01
    0.40709576307010233998E-01
    0.40708571451217867576E-01
    0.40708595874748169929E-01
    0.40708669491654789208E-01
    0.40708680838831896864E-01
    0.40708615202653071485E-01
    0.40708616117709317539E-01
    0.40708550381836502985E-01
    0.40708525579341035827E-01
    0.40708473087663697709E-01
    0.40708465782590678994E-01
    0.40708509379104279580E-01
    0.40708511401209082625E-01
    0.40708555160575227161E-01
    0.40708560353264505727E-01
    0.40708823596929517852E-01
    0.40708872532495610219E-01
    0.40709002424483060889E-01
    0.40709027499615420276E-01
    0.40708914446827525191E-01
    0.40708919994913432550E-01
    0.40708804593720011866E-01
    0.40708758278723555790E-01
    0.40708666007578997448E-01
    0.40708650667605934814E-01
    0.40708723822521247770E-01
    0.40708721715696533083E-01
    0.40708805406000921068E-01
    0.40708816584208343259E-01
    0.40708761975955562451E-01
    0.40708789053585638096E-01
    0.40708896588650678172E-01
    0.40708905479617286949E-01
    0.40708803616227758060E-01
    0.40708795365116949572E-01
    0.40708697487048889352E-01
    0.40708669418971415999E-01
    0.40708593520482214134E-01
    0.40708588406329355991E-01
    0.40708657730431752064E-01
    0.40708669376103991111E-01
    0.40708722538462013829E-01
    0.40708726379010497232E-01
    0.40709113120279562248E-01
    0.40709173454355304655E-01
    0.40709359043708891190E-01
    0.40709387762940807409E-01
    0.40709219339018658246E-01
    0.40709217754900696440E-01
    0.40709047935870885937E-01
    0.40708990322161950348E-01
    0.40708858128643193863E-01
    0.40708842968887978819E-01
    0.40708954754670005627E-01
    0.40708962188271594074E-01
    0.40709069336919118109E-01
    0.40709081257909493501E-01
    0.40709281335606535557E-01
    0.40709374990864931332E-01
    0.40709609720133314859E-01
    0.40709658075324041404E-01
    0.40709454844687326114E-01
    0.40709464775101178446E-01
    0.40709257938486655137E-01
    0.40709175152939966469E-01
    0.40709010712403334575E-01
    0.40708981979834614473E-01
    0.40709110130892872670E-01
    0.40709101614054776785E-01
    0.40709257110970543947E-01
    0.40709278317948467685E-01
    0.40710119932705943202E-01
    0.40710290954354300119E-01
    0.40710720603298437836E-01
    0.40710803557198541047E-01
    0.40710427277281024949E-01
    0.40710432618713709996E-01
    0.40710058713469665648E-01
    0.40709918674750628087E-01
    0.40709624288956858251E-01
    0.40709575568424666292E-01
    0.40709808127211130624E-01
    0.40709793177551405197E-01
    0.40710073631899712510E-01
    0.40710109781766617987E-01
    0.40709751122240733778E-01
    0.40709878756404332956E-01
    0.40710214444588117833E-01
    0.40710282518363463677E-01
    0.40709986346776187716E-01
    0.40709995804043684620E-01
    0.40709689343173975640E-01
    0.40709577289527253130E-01
    0.40709339223692471432E-01
    0.40709304856538203188E-01
    0.40709495285713541424E-01
    0.40709491626149126031E-01
    0.40709704873985987084E-01
    0.40709732638225040735E-01
    0.40710947078209262784E-01
    0.40711202941979302006E-01
    0.40711830246950631018E-01
    0.40711968197916337253E-01
    0.40711418906920288086E-01
    0.40711436898601141565E-01
    0.40710869323503484640E-01
    0.40710662310314678358E-01
    0.40710224401090136515E-01
    0.40710156995526436408E-01
    0.40710499868904154175E-01
    0.40710477238985187665E-01
    0.40710890332312461848E-01
    0.40710945767004298734E-01
    0.40708472694875624809E-01
    0.40708454785059355885E-01
    0.40708478129468907147E-01
    0.40708462358684825710E-01
    0.40708424846490946780E-01
    0.40708402174499835890E-01
    0.40708375773730029468E-01
    0.40708386460280576724E-01
    0.40708371652708845445E-01
    0.40708385263622144656E-01
    0.40708414702778826511E-01
    0.40708443147917640348E-01
    0.40708422142021520596E-01
    0.40708413623949162019E-01
    0.40708513932626165521E-01
    0.40708505464421861075E-01
    0.40708546684518669145E-01
    0.40708534024777531801E-01
    0.40708482538695404951E-01
    0.40708460483575070743E-01
    0.40708420738013242901E-01
    0.40708425004372973677E-01
    0.40708398214894477019E-01
    0.40708407911793011158E-01
    0.40708445620721636637E-01
    0.40708469969557521673E-01
    0.40708465094871734702E-01
    0.40708458722154457210E-01
    0.40708670217653647461E-01
    0.40708639709268412687E-01
    0.40708680525352522461E-01
    0.40708653279251764967E-01
    0.40708587912065052894E-01
    0.40708548229518769224E-01
    0.40708502393319967450E-01
    0.40708521254337486084E-01
    0.40708495709768935389E-01
    0.40708519297991213604E-01
    0.40708570275308629538E-01
    0.40708619301339926677E-01
    0.40708583216892128831E-01
    0.40708568448439667875E-01
    0.40708743263672256263E-01
    0.40708728119112060073E-01
    0.40708800055309017629E-01
    0.40708776705452497102E-01
    0.40708686153714188083E-01
    0.40708645371863867723E-01
    0.40708576840192446655E-01
    0.40708586189361024854E-01
    0.40708540382938633584E-01
    0.40708557961968712402E-01
    0.40708623691728708371E-01
    0.40708666575068365445E-01
    0.40708657120543494112E-01
    0.40708645490218818563E-01
    0.40708616117718109118E-01
    0.40708615202660690391E-01
    0.40708680838839522709E-01
    0.40708669491661401973E-01
    0.40708595874753866761E-01
    0.40708571451222197446E-01
    0.40708511401213058611E-01
    0.40708509379109428239E-01
    0.40708465782595910920E-01
    0.40708473087669776180E-01
    0.40708525579347981660E-01
    0.40708550381844774146E-01
    0.40708560353271118493E-01
    0.40708555160581305632E-01
    0.40708795365123562338E-01
    0.40708803616232878964E-01
    0.40708905479622137236E-01
    0.40708896588654314153E-01
    0.40708789053588469165E-01
    0.40708761975956797574E-01
    0.40708669376105066640E-01
    0.40708657730434250066E-01
    0.40708588406332228693E-01
    0.40708593520486113793E-01
    0.40708669418976127508E-01
    0.40708697487055141295E-01
    0.40708726379014611996E-01
    0.40708722538465462459E-01
    0.40708919994927726671E-01
    0.40708914446840500923E-01
    0.40709027499628680502E-01
    0.40709002424495092931E-01
    0.40708872532506344688E-01
    0.40708823596938566169E-01
    0.40708721715704901389E-01
    0.40708723822530927527E-01
    0.40708650667615496610E-01
    0.40708666007589551505E-01
    0.40708758278735372726E-01
    0.40708804593733431687E-01
    0.40708816584219952028E-01
    0.40708805406011891459E-01
    0.40709217754913193388E-01
    0.40709219339029496798E-01
    0.40709387762951659839E-01
    0.40709359043718335025E-01
    0.40709173454363430100E-01
    0.40709113120285723986E-01
    0.40708962188277200700E-01
    0.40708954754677270649E-01
    0.40708842968895382619E-01
    0.40708858128651853603E-01
    0.40708990322171803578E-01
    0.40709047935882654301E-01
    0.40709081257918902641E-01
    0.40709069336927722338E-01
    0.40709005631981577678E-01
    0.40708955771414818969E-01
    0.40709027007565935785E-01
    0.40708982205461721748E-01
    0.40708869639967823484E-01
    0.40708802120098523669E-01
    0.40708722435806657391E-01
    0.40708754143623931965E-01
    0.40708709766382134010E-01
    0.40708749985445082109E-01
    0.40708836774029359684E-01
    0.40708919453469528948E-01
    0.40708859673998745721E-01
    0.40708834959736997505E-01
    0.40709140823524968267E-01
    0.40709118048510808952E-01
    0.40709247162745300364E-01
    0.40709207462257104848E-01
    0.40709046767125722788E-01
    0.40708974554350144115E-01
    0.40708853463557265195E-01
    0.40708869990869145372E-01
    0.40708789414806892393E-01
    0.40708819508345026050E-01
    0.40708934025762567865E-01
    0.40709006614365703114E-01
    0.40708993994484701795E-01
    0.40708974177157429553E-01
    0.40709559044039361764E-01
    0.40709482058151197359E-01
    0.40709605623644305739E-01
    0.40709536482862941631E-01
    0.40709345905987862069E-01
    0.40709236006724908163E-01
    0.40709097981996802962E-01
    0.40709148322628854744E-01
    0.40709071863256077184E-01
    0.40709138188084678656E-01
    0.40709282436124129279E-01
    0.40709417438000460032E-01
    0.40709323067596427104E-01
    0.40709283487740860474E-01
    0.40709816006261785593E-01
    0.40709789765379901516E-01
    0.40710023935480621482E-01
    0.40709963210460942129E-01
    0.40709679174290455683E-01
    0.40709557303842389131E-01
    0.40709340820635375735E-01
    0.40709364543631762490E-01
    0.40709220128165440888E-01
    0.40709268503005199835E-01
    0.40709465887921091054E-01
    0.40709582659419957240E-01
    0.40709576307037260989E-01
    0.40709545270608930856E-01
    0.40709464775122772284E-01
    0.40709454844707483601E-01
    0.40709658075344948291E-01
    0.40709609720152847845E-01
    0.40709374990882452039E-01
    0.40709281335622002351E-01
    0.40709101614068994579E-01
    0.40709110130908603142E-01
    0.40708981979849880040E-01
    0.40709010712419849143E-01
    0.40709175152958250454E-01
    0.40709257938506958341E-01
    0.40709278317966751670E-01
    0.40709257110988043837E-01
    0.40709995804064424973E-01
    0.40709986346795040690E-01
    0.40710282518382975847E-01
    0.40710214444605798134E-01
    0.40709878756419945467E-01
    0.40709751122253841349E-01
    0.40709491626161047051E-01
    0.40709495285727384517E-01
    0.40709304856551831175E-01
    0.40709339223707591282E-01
    0.40709577289544260359E-01
    0.40709689343193369848E-01