# vtk DataFile Version 3.0
LAPLACIEN  2D
ASCII
DATASET UNSTRUCTURED_GRID
FIELD FieldData 1
TIME 1 1 double
10.1000
 POINTS        7297  float
   1.5625000000000000E-002  0.96875000000000000        0.0000000000000000     
   3.1250000000000000E-002  0.96875000000000000        0.0000000000000000     
   3.1250000000000000E-002  0.98437500000000000        0.0000000000000000     
   9.3749999999999997E-003  0.97812500000000002        0.0000000000000000     
   2.0312500000000001E-002  0.97968750000000004        0.0000000000000000     
   2.1874999999999999E-002  0.99062499999999998        0.0000000000000000     
   1.0937499999999999E-002  0.98906249999999996        0.0000000000000000     
   4.6875000000000000E-002  0.96875000000000000        0.0000000000000000     
   6.2500000000000000E-002  0.96875000000000000        0.0000000000000000     
   6.2500000000000000E-002  0.98437500000000000        0.0000000000000000     
   4.0625000000000001E-002  0.97812500000000002        0.0000000000000000     
   5.1562499999999997E-002  0.97968750000000004        0.0000000000000000     
   5.3124999999999999E-002  0.99062499999999998        0.0000000000000000     
   4.2187500000000003E-002  0.98906249999999996        0.0000000000000000     
   1.5625000000000000E-002  0.93750000000000000        0.0000000000000000     
   3.1250000000000000E-002  0.93750000000000000        0.0000000000000000     
   3.1250000000000000E-002  0.95312500000000000        0.0000000000000000     
   9.3749999999999997E-003  0.94687500000000002        0.0000000000000000     
   2.0312500000000001E-002  0.94843750000000004        0.0000000000000000     
   2.1874999999999999E-002  0.95937499999999998        0.0000000000000000     
   1.0937499999999999E-002  0.95781249999999996        0.0000000000000000     
   4.6875000000000000E-002  0.93750000000000000        0.0000000000000000     
   6.2500000000000000E-002  0.93750000000000000        0.0000000000000000     
   6.2500000000000000E-002  0.95312500000000000        0.0000000000000000     
   4.0625000000000001E-002  0.94687500000000002        0.0000000000000000     
   5.1562499999999997E-002  0.94843750000000004        0.0000000000000000     
   5.3124999999999999E-002  0.95937499999999998        0.0000000000000000     
   4.2187500000000003E-002  0.95781249999999996        0.0000000000000000     
   7.8125000000000000E-002  0.96875000000000000        0.0000000000000000     
   9.3750000000000000E-002  0.96875000000000000        0.0000000000000000     
   9.3750000000000000E-002  0.98437500000000000        0.0000000000000000     
   7.1874999999999994E-002  0.97812500000000002        0.0000000000000000     
   8.2812499999999997E-002  0.97968750000000004        0.0000000000000000     
   8.4375000000000006E-002  0.99062499999999998        0.0000000000000000     
   7.3437500000000003E-002  0.98906249999999996        0.0000000000000000     
  0.10937500000000000       0.96875000000000000        0.0000000000000000     
  0.12500000000000000       0.96875000000000000        0.0000000000000000     
  0.12500000000000000       0.98437500000000000        0.0000000000000000     
  0.10312499999999999       0.97812500000000002        0.0000000000000000     
  0.11406250000000000       0.97968750000000004        0.0000000000000000     
  0.11562500000000001       0.99062499999999998        0.0000000000000000     
  0.10468750000000000       0.98906249999999996        0.0000000000000000     
   7.8125000000000000E-002  0.93750000000000000        0.0000000000000000     
   9.3750000000000000E-002  0.93750000000000000        0.0000000000000000     
   9.3750000000000000E-002  0.95312500000000000        0.0000000000000000     
   7.1874999999999994E-002  0.94687500000000002        0.0000000000000000     
   8.2812499999999997E-002  0.94843750000000004        0.0000000000000000     
   8.4375000000000006E-002  0.95937499999999998        0.0000000000000000     
   7.3437500000000003E-002  0.95781249999999996        0.0000000000000000     
  0.10937500000000000       0.93750000000000000        0.0000000000000000     
  0.12500000000000000       0.93750000000000000        0.0000000000000000     
  0.12500000000000000       0.95312500000000000        0.0000000000000000     
  0.10312499999999999       0.94687500000000002        0.0000000000000000     
  0.11406250000000000       0.94843750000000004        0.0000000000000000     
  0.11562500000000001       0.95937499999999998        0.0000000000000000     
  0.10468750000000000       0.95781249999999996        0.0000000000000000     
   1.5625000000000000E-002  0.90625000000000000        0.0000000000000000     
   3.1250000000000000E-002  0.90625000000000000        0.0000000000000000     
   3.1250000000000000E-002  0.92187500000000000        0.0000000000000000     
   9.3749999999999997E-003  0.91562500000000002        0.0000000000000000     
   2.0312500000000001E-002  0.91718750000000004        0.0000000000000000     
   2.1874999999999999E-002  0.92812499999999998        0.0000000000000000     
   1.0937499999999999E-002  0.92656249999999996        0.0000000000000000     
   4.6875000000000000E-002  0.90625000000000000        0.0000000000000000     
   6.2500000000000000E-002  0.90625000000000000        0.0000000000000000     
   6.2500000000000000E-002  0.92187500000000000        0.0000000000000000     
   4.0625000000000001E-002  0.91562500000000002        0.0000000000000000     
   5.1562499999999997E-002  0.91718750000000004        0.0000000000000000     
   5.3124999999999999E-002  0.92812499999999998        0.0000000000000000     
   4.2187500000000003E-002  0.92656249999999996        0.0000000000000000     
   1.5625000000000000E-002  0.87500000000000000        0.0000000000000000     
   3.1250000000000000E-002  0.87500000000000000        0.0000000000000000     
   3.1250000000000000E-002  0.89062500000000000        0.0000000000000000     
   9.3749999999999997E-003  0.88437500000000002        0.0000000000000000     
   2.0312500000000001E-002  0.88593750000000004        0.0000000000000000     
   2.1874999999999999E-002  0.89687499999999998        0.0000000000000000     
   1.0937499999999999E-002  0.89531249999999996        0.0000000000000000     
   4.6875000000000000E-002  0.87500000000000000        0.0000000000000000     
   6.2500000000000000E-002  0.87500000000000000        0.0000000000000000     
   6.2500000000000000E-002  0.89062500000000000        0.0000000000000000     
   4.0625000000000001E-002  0.88437500000000002        0.0000000000000000     
   5.1562499999999997E-002  0.88593750000000004        0.0000000000000000     
   5.3124999999999999E-002  0.89687499999999998        0.0000000000000000     
   4.2187500000000003E-002  0.89531249999999996        0.0000000000000000     
   7.8125000000000000E-002  0.90625000000000000        0.0000000000000000     
   9.3750000000000000E-002  0.90625000000000000        0.0000000000000000     
   9.3750000000000000E-002  0.92187500000000000        0.0000000000000000     
   7.1874999999999994E-002  0.91562500000000002        0.0000000000000000     
   8.2812499999999997E-002  0.91718750000000004        0.0000000000000000     
   8.4375000000000006E-002  0.92812499999999998        0.0000000000000000     
   7.3437500000000003E-002  0.92656249999999996        0.0000000000000000     
  0.10937500000000000       0.90625000000000000        0.0000000000000000     
  0.12500000000000000       0.90625000000000000        0.0000000000000000     
  0.12500000000000000       0.92187500000000000        0.0000000000000000     
  0.10312499999999999       0.91562500000000002        0.0000000000000000     
  0.11406250000000000       0.91718750000000004        0.0000000000000000     
  0.11562500000000001       0.92812499999999998        0.0000000000000000     
  0.10468750000000000       0.92656249999999996        0.0000000000000000     
   7.8125000000000000E-002  0.87500000000000000        0.0000000000000000     
   9.3750000000000000E-002  0.87500000000000000        0.0000000000000000     
   9.3750000000000000E-002  0.89062500000000000        0.0000000000000000     
   7.1874999999999994E-002  0.88437500000000002        0.0000000000000000     
   8.2812499999999997E-002  0.88593750000000004        0.0000000000000000     
   8.4375000000000006E-002  0.89687499999999998        0.0000000000000000     
   7.3437500000000003E-002  0.89531249999999996        0.0000000000000000     
  0.10937500000000000       0.87500000000000000        0.0000000000000000     
  0.12500000000000000       0.87500000000000000        0.0000000000000000     
  0.12500000000000000       0.89062500000000000        0.0000000000000000     
  0.10312499999999999       0.88437500000000002        0.0000000000000000     
  0.11406250000000000       0.88593750000000004        0.0000000000000000     
  0.11562500000000001       0.89687499999999998        0.0000000000000000     
  0.10468750000000000       0.89531249999999996        0.0000000000000000     
  0.14062500000000000       0.96875000000000000        0.0000000000000000     
  0.15625000000000000       0.96875000000000000        0.0000000000000000     
  0.15625000000000000       0.98437500000000000        0.0000000000000000     
  0.13437499999999999       0.97812500000000002        0.0000000000000000     
  0.14531250000000001       0.97968750000000004        0.0000000000000000     
  0.14687500000000001       0.99062499999999998        0.0000000000000000     
  0.13593749999999999       0.98906249999999996        0.0000000000000000     
  0.17187500000000000       0.96875000000000000        0.0000000000000000     
  0.18750000000000000       0.96875000000000000        0.0000000000000000     
  0.18750000000000000       0.98437500000000000        0.0000000000000000     
  0.16562499999999999       0.97812500000000002        0.0000000000000000     
  0.17656250000000001       0.97968750000000004        0.0000000000000000     
[...]
 CELL_DATA       14336
 SCALARS Tumor_cells float
 LOOKUP_TABLE default
    0.27545634900702258702E-01
    0.27545634677193581857E-01
    0.27545636409341555523E-01
    0.27545636409340913675E-01
    0.27545634677193692880E-01
    0.27545634900700079889E-01
    0.27545633526277552711E-01
    0.27545632714508744288E-01
    0.27545631837846622919E-01
    0.27545631837842213252E-01
    0.27545632714511443517E-01
    0.27545633526277590875E-01
    0.27545633399180244338E-01
    0.27545633399179356160E-01
    0.27545640591029558336E-01
    0.27545642107931481851E-01
    0.27545646226529399425E-01
    0.27545647367241458958E-01
    0.27545644279079743028E-01
    0.27545645760106728106E-01
    0.27545642522468504615E-01
    0.27545639830698701034E-01
    0.27545636990805699718E-01
    0.27545635972020122983E-01
    0.27545637743180334533E-01
    0.27545637523877553737E-01
    0.27545640296982695089E-01
    0.27545640906913752138E-01
    0.27545645760113510875E-01
    0.27545644279084881278E-01
    0.27545647367246933745E-01
    0.27545646226533361534E-01
    0.27545642107934534965E-01
    0.27545640591030495087E-01
    0.27545637523879010905E-01
    0.27545637743182003337E-01
    0.27545635972022766702E-01
    0.27545636990807885469E-01
    0.27545639830702996209E-01
    0.27545642522473868380E-01
    0.27545640906917780166E-01
    0.27545640296985873102E-01
    0.27545653403641023188E-01
    0.27545654066682575406E-01
    0.27545660510221812306E-01
    0.27545660510220813105E-01
    0.27545654066680896194E-01
    0.27545653403636953527E-01
    0.27545647693160174585E-01
    0.27545646065772658173E-01
    0.27545641821163691781E-01
    0.27545641821164087298E-01
    0.27545646065774271466E-01
    0.27545647693163571174E-01
    0.27545649568102157506E-01
    0.27545649568101644028E-01
    0.27545655817105857421E-01
    0.27545659923823007792E-01
    0.27545667967801012316E-01
    0.27545670966727681811E-01
    0.27545665645127871690E-01
    0.27545669249088466923E-01
    0.27545662892420722662E-01
    0.27545656994425935654E-01
    0.27545650897451239708E-01
    0.27545648320196139403E-01
    0.27545651573091193415E-01
    0.27545650008403102516E-01
    0.27545657116422969657E-01
    0.27545658738403963617E-01
    0.27545686316403601018E-01
    0.27545694605325313220E-01
    0.27545708836976531830E-01
    0.27545714627362001548E-01
    0.27545705643857259365E-01
    0.27545712313729747017E-01
    0.27545701061621866157E-01
    0.27545690363706108045E-01
    0.27545679245093157572E-01
    0.27545674194229433779E-01
    0.27545679903420543233E-01
    0.27545676128806723809E-01
    0.27545690146198450327E-01
    0.27545693293574792515E-01
    0.27545673379571009726E-01
    0.27545676589813244961E-01
    0.27545687901894308491E-01
    0.27545689412672470786E-01
    0.27545679356201949878E-01
    0.27545679935978169967E-01
    0.27545670017423008746E-01
    0.27545665637398894510E-01
    0.27545657526112703184E-01
    0.27545656304385521956E-01
    0.27545663095007558857E-01
    0.27545663854601460524E-01
    0.27545670071338179685E-01
    0.27545670847509470119E-01
    0.27545711245234194564E-01
    0.27545718642560782646E-01
    0.27545738137105663795E-01
    0.27545742177815409762E-01
    0.27545726064579518361E-01
    0.27545728645742621060E-01
    0.27545711887459405076E-01
    0.27545703061928536459E-01
    0.27545688739357247765E-01
    0.27545685495439634072E-01
    0.27545696261502373298E-01
    0.27545695651430363027E-01
    0.27545708866017547950E-01
    0.27545710945948230497E-01
    0.27545669249103885146E-01
    0.27545665645141256817E-01
    0.27545670966741653274E-01
    0.27545667967813020072E-01
    0.27545659923832996330E-01
    0.27545655817113216118E-01
    0.27545650008409690995E-01
    0.27545651573099346615E-01
    0.27545648320203987292E-01
    0.27545650897460152717E-01
    0.27545656994437117682E-01
    0.27545662892434180646E-01
    0.27545658738415121358E-01
    0.27545657116433176770E-01
    0.27545679935990882020E-01
    0.27545679356211803107E-01
    0.27545689412681973601E-01
    0.27545687901901323713E-01
    0.27545676589818622604E-01
    0.27545673379573226702E-01
    0.27545663854603528314E-01
    0.27545663095012166283E-01
    0.27545656304390670616E-01
    0.27545657526119524117E-01
    0.27545665637407536902E-01
    0.27545670017434475269E-01
    0.27545670847517231272E-01
    0.27545670071344674490E-01
    0.27545712313757356876E-01
    0.27545705643882322650E-01
    0.27545714627388015461E-01
    0.27545708837000078967E-01
    0.27545694605345897449E-01
    0.27545686316420767842E-01
    0.27545676128822298157E-01
    0.27545679903438417824E-01
    0.27545674194246451416E-01
    0.27545679245111927280E-01
    0.27545690363727958622E-01
    0.27545701061646866992E-01
    0.27545693293596771462E-01
    0.27545690146219173333E-01
    0.27545728645767552506E-01
    0.27545726064601063626E-01
    0.27545742177836996661E-01
    0.27545738137124253092E-01
    0.27545718642576790675E-01
    0.27545711245246202320E-01
    0.27545695651441458318E-01
    0.27545696261516639664E-01
    0.27545685495453955949E-01
    0.27545688739373869885E-01
    0.27545703061947836993E-01
    0.27545711887482417918E-01
    0.27545710945966785099E-01
    0.27545708866034541301E-01
    0.27545707793631777488E-01
    0.27545710286406722284E-01
    0.27545727072488247061E-01
    0.27545727072486741321E-01
    0.27545710286403936318E-01
    0.27545707793625293092E-01
    0.27545692497045241864E-01
    0.27545688951740185391E-01
    0.27545677217038377904E-01
    0.27545677217039508944E-01
    0.27545688951742711148E-01
    0.27545692497051202374E-01
    0.27545698645922791353E-01
    0.27545698645922007258E-01
    0.27545759669967691957E-01
    0.27545767069252467124E-01
    0.27545795353662066302E-01
    0.27545797997391621020E-01
    0.27545771671303030670E-01
    0.27545770283097788939E-01
    0.27545744929321776262E-01
    0.27545736733008023556E-01
    0.27545716680605042415E-01
    0.27545714888934567238E-01
    0.27545732782263940980E-01
    0.27545735485613374177E-01
    0.27545749934405075465E-01
    0.27545751186299712032E-01
    0.27545770283116503135E-01
    0.27545771671317501733E-01
    0.27545797997405207375E-01
    0.27545795353672106881E-01
    0.27545767069260321952E-01
    0.27545759669971005279E-01
    0.27545735485616465454E-01
    0.27545732782271067224E-01
    0.27545714888942668397E-01
    0.27545716680615974642E-01
    0.27545736733021231740E-01
    0.27545744929339307377E-01
    0.27545751186311313863E-01
    0.27545749934414800325E-01
    0.27545846176305160274E-01
    0.27545853192966037598E-01
    0.27545895856880706076E-01
    0.27545895856878679919E-01
    0.27545853192962214268E-01
    0.27545846176296212571E-01
    0.27545807419963461854E-01
    0.27545799077724409526E-01
    0.27545769519379797313E-01
    0.27545769519381497342E-01
    0.27545799077727979587E-01
    0.27545807419971927305E-01
    0.27545823802664418101E-01
    0.27545823802663332164E-01
    0.27545741137714862407E-01
    0.27545756060241784885E-01
    0.27545780748426604290E-01
    0.27545791126256380377E-01
    0.27545775764621485693E-01
    0.27545787551547223221E-01
    0.27545768107139500386E-01
    0.27545749385486255345E-01
    0.27545730007581099852E-01
    0.27545721048021543781E-01
    0.27545730794424478499E-01
    0.27545723759685645377E-01
    0.27545748674904040748E-01
    0.27545754281024924237E-01
    0.27545837251033541276E-01
    0.27545863359858219904E-01
    0.27545906363507722397E-01
    0.27545924286534465703E-01
    0.27545897437473730596E-01
    0.27545917508446648991E-01
    0.27545884012658995027E-01
    0.27545851758360311717E-01
    0.27545818217781795761E-01
    0.27545802697130764014E-01
    0.27545819503733980776E-01
    0.27545807093517969688E-01
    0.27545850555777660201E-01
    0.27545860271837779853E-01
    0.27545779509204362107E-01
    0.27545794023031235087E-01
    0.27545827901508109642E-01
    0.27545836230251453947E-01
    0.27545809110142746579E-01
    0.27545814683746231571E-01
    0.27545785755203600759E-01
    0.27545769731205409919E-01
    0.27545744913403658743E-01
    0.27545738530573619929E-01
    0.27545756161144189372E-01
    0.27545753352701519978E-01
    0.27545778351496682385E-01
    0.27545782545265157237E-01
    0.27545901155741587402E-01
    0.27545927983050704640E-01
    0.27545987548151795732E-01
    0.27546002906380949449E-01
    0.27545955589795053514E-01
    0.27545965553597031444E-01
    0.27545915108029391666E-01
    0.27545886896325859350E-01
    0.27545843653679520646E-01
    0.27545832087572733049E-01
    0.27545862222288178267E-01
    0.27545856071363609974E-01
    0.27545901234931946533E-01
    0.27545908885881032618E-01
    0.27546004269456487307E-01
    0.27546048681084654014E-01
    0.27546122716160595378E-01
    0.27546152183462593172E-01
    0.27546105332732159082E-01
    0.27546138127401934015E-01
    0.27546081447644352180E-01
    0.27546027066421643198E-01
    0.27545969980216980511E-01
    0.27545943525146027175E-01
    0.27545972714031072281E-01
    0.27545951856824853199E-01
    0.27546025872391133316E-01
    0.27546042127891176565E-01
    0.27546289632762548799E-01
    0.27546361907995066398E-01
    0.27546487235537236993E-01
    0.27546532705200466040E-01
    0.27546451446757967002E-01
    0.27546502075349713068E-01
    0.27546408952428914907E-01
    0.27546320171199182442E-01
    0.27546225306187464843E-01
    0.27546181686948629369E-01
    0.27546231969940965234E-01
    0.27546198861908226252E-01
    0.27546320861442263883E-01
    0.27546346890993656659E-01
    0.27546117677810118968E-01
    0.27546165171771174601E-01
    0.27546270855168836222E-01
    0.27546296965282192348E-01
    0.27546212052847962592E-01
    0.27546227033211741902E-01
    0.27546138768282331377E-01
    0.27546091025891158988E-01
    0.27546015705396803552E-01
    0.27545995910779202259E-01
    0.27546048906865228806E-01
    0.27546038036041602115E-01
    0.27546117431190453306E-01
    0.27546130465347037214E-01
    0.27546500922187487637E-01
    0.27546581065501070384E-01
    0.27546767847507501459E-01
    0.27546807781253450365E-01
    0.27546653791406718742E-01
    0.27546671049613884186E-01
    0.27546517600504662887E-01
    0.27546440808016988550E-01
    0.27546311002919720429E-01
    0.27546279188879977534E-01
    0.27546374159597028508E-01
    0.27546358557605950951E-01
    0.27546493009265895363E-01
    0.27546513419863166705E-01
    0.27545852524809052997E-01
    0.27545868592387362517E-01
    0.27545917024406851165E-01
    0.27545924487349267989E-01
    0.27545881307869279908E-01
    0.27545881910180029795E-01
    0.27545838662076362058E-01
    0.27545822342892763851E-01
    0.27545787802981832465E-01
    0.27545782995991936054E-01
    0.27545811682894248001E-01
    0.27545813014140475838E-01
    0.27545841805988697387E-01
    0.27545845222011020037E-01
    0.27546018393114952288E-01
    0.27546050578796960756E-01
    0.27546136012098640378E-01
    0.27546152501789860495E-01
    0.27546078145315039398E-01
    0.27546081793915832420E-01
    0.27546005890317137865E-01
    0.27545975426336244407E-01
    0.27545914730303700663E-01
    0.27545904639449329820E-01
    0.27545952761634892592E-01
    0.27545951377466949134E-01
    0.27546006425425748065E-01
    0.27546013777245619697E-01
    0.27545977864578751609E-01
    0.27545995675600953856E-01
    0.27546066410163494442E-01
    0.27546072256634399067E-01
    0.27546005253748416519E-01
    0.27545999825289733953E-01
    0.27545935439850212367E-01
    0.27545916976513463992E-01
    0.27545867044735911078E-01
    0.27545863680295545883E-01
    0.27545909287318495751E-01
    0.27545916949192127826E-01
    0.27545951920817685066E-01
    0.27545954446786705822E-01
    0.27546208826582728457E-01
    0.27546248504364989618E-01
    0.27546370562679597938E-01
    0.27546389446268176177E-01
    0.27546278677838771654E-01
    0.27546277633015200242E-01
    0.27546165945339165515E-01
    0.27546128054376423089E-01
    0.27546041107518147439E-01
    0.27546031137464618149E-01
    0.27546104663644602889E-01
    0.27546109556147658354E-01
    0.27546180025623513699E-01
    0.27546187864778477750E-01
    0.27546319443144569317E-01
    0.27546381031647568238E-01
    0.27546535397432764247E-01
    0.27546567194557440572E-01
    0.27546433543550023076E-01
    0.27546440073515868902E-01
    0.27546304050862606416E-01
    0.27546249606103748869E-01
    0.27546141458801305657E-01
    0.27546122562134987138E-01
    0.27546206844380822371E-01
    0.27546201245734765195E-01
    0.27546303507121974036E-01
    0.27546317453232920663E-01
    0.27546870915373788263E-01
    0.27546983374924779303E-01
    0.27547265908236355514E-01
    0.27547320455343016904E-01
    0.27547073015682162211E-01
    0.27547076527192720236E-01
    0.27546830650185871736E-01
    0.27546738561386355237E-01
    0.27546544972091361464E-01
    0.27546512933594766159E-01
    0.27546665866892632024E-01
    0.27546656038353694446E-01
    0.27546840462493775437E-01
    0.27546864233647161413E-01
    0.27546628405783136345E-01
    0.27546712335280595929E-01
    0.27546933087912159333E-01
    0.27546977849011802103E-01
    0.27546783080555730522E-01
    0.27546789294656894714E-01
    0.27546587760735829348E-01
    0.27546514075029358837E-01
    0.27546357514418119694E-01
    0.27546334915757701017E-01
    0.27546460152664663940E-01
    0.27546457750615004068E-01
    0.27546597983062210552E-01
    0.27546616239113155822E-01
    0.27547414862772064831E-01
    0.27547583110887022273E-01
    0.27547995620755445778E-01
    0.27548086331237554153E-01
    0.27547725116436921206E-01
    0.27547736941848692538E-01
    0.27547363708018104272E-01
    0.27547227582737237456E-01
    0.27546939616374697263E-01
    0.27546895293824529005E-01
    0.27547120770472062479E-01
    0.27547105896476600101E-01
    0.27547377535188589254E-01
    0.27547413985965288341E-01
    0.27545787551590462938E-01
    0.27545775764661648011E-01
    0.27545791126297868023E-01
    0.27545780748465104742E-01
    0.27545756060276437721E-01
    0.27545741137745292926E-01
    0.27545723759713761775E-01
    0.27545730794455460660E-01
    0.27545721048051273472E-01
    0.27545730007613126317E-01
    0.27545749385522240449E-01
    0.27545768107179496170E-01
    0.27545754281061141794E-01
    0.27545748674938710931E-01
    0.27545814683786813692E-01
    0.27545809110179422102E-01
    0.27545836230288563151E-01
    0.27545827901541718175E-01
    0.27545794023061356826E-01
    0.27545779509229654375E-01
    0.27545753352725209362E-01
    0.27545756161171611881E-01
    0.27545738530600685084E-01
    0.27545744913433548029E-01
    0.27545769731238855388E-01
    0.27545785755241587733E-01
    0.27545782545298009431E-01
    0.27545778351527685363E-01
    0.27545917508508939442E-01
    0.27545897437532385066E-01
    0.27545924286594823671E-01
    0.27545906363564607450E-01
    0.27545863359910362222E-01
    0.27545837251080645958E-01
    0.27545807093562069828E-01
    0.27545819503781505261E-01
    0.27545802697176643981E-01
    0.27545818217830496388E-01
    0.27545851758413852223E-01
    0.27545884012717375411E-01
    0.27545860271891677712E-01
    0.27545850555829705375E-01
    0.27545965553656692054E-01
    0.27545955589850297518E-01
    0.27546002906437078162E-01
    0.27545987548203941520E-01
    0.27545927983098423414E-01
    0.27545901155783657915E-01
    0.27545856071403324733E-01
    0.27545862222332170854E-01
    0.27545832087615969297E-01
    0.27545843653726091033E-01
    0.27545886896376884506E-01
    0.27545915108085770179E-01
    0.27545908885931603277E-01
    0.27545901234980369604E-01
    0.27545881910214491811E-01
    0.27545881307898967966E-01
    0.27545924487378501549E-01
    0.27545917024432032411E-01
    0.27545868592409410852E-01
    0.27545852524825716751E-01
    0.27545813014156188964E-01
    0.27545811682914551205E-01
    0.27545782996012797839E-01
    0.27545787803006070021E-01
    0.27545822342920186360E-01
    0.27545838662108936695E-01
    0.27545845222036971500E-01
    0.27545841806012487385E-01
    0.27545999825314543968E-01
    0.27546005253767553989E-01
    0.27546072256652169574E-01
    0.27546066410176629768E-01
    0.27545995675611344849E-01
    0.27545977864583168215E-01
    0.27545916949196266876E-01
    0.27545909287328126935E-01
    0.27545863680306658522E-01
    0.27545867044750961539E-01
    0.27545916976531328174E-01
    0.27545935439873835832E-01
    0.27545954446802214249E-01
    0.27545951920830695492E-01
    0.27546081793969594970E-01
    0.27546078145363507572E-01
    0.27546152501838359894E-01
    0.27546136012142573984E-01
    0.27546050578836807354E-01
    0.27546018393148567760E-01
    0.27545951377498822943E-01
    0.27545952761671921999E-01
    0.27545904639486463311E-01
    0.27545914730344719934E-01
    0.27545975426381395790E-01
    0.27546005890368284452E-01
    0.27546013777289466568E-01
    0.27546006425467138568E-01
    0.27546277633059574469E-01
    0.27546278677876942509E-01
    0.27546389446305438037E-01
    0.27546370562711725016E-01
    0.27546248504393345408E-01
    0.27546208826604207803E-01
    0.27546109556168079519E-01
    0.27546104663671092116E-01
    0.27546031137492137802E-01
    0.27546041107550160026E-01
    0.27546128054412217373E-01
    0.27546165945381593382E-01
    0.27546187864812086282E-01
    0.27546180025654301571E-01
    0.27546138127486654440E-01
    0.27546105332812723110E-01
    0.27546152183545238867E-01
    0.27546122716239272027E-01
    0.27546048681157710158E-01
    0.27546004269523683555E-01
    0.27545951856888323261E-01
    0.27545972714098528739E-01
    0.27545943525211467884E-01
    0.27545969980285734541E-01
    0.27546027066496132224E-01
    0.27546081447724517222E-01
    0.27546042127966140906E-01
    0.27546025872463953538E-01
    0.27546227033293964326E-01
    0.27546212052925289626E-01
    0.27546296965360889814E-01
    0.27546270855243075448E-01
    0.27546165171840018837E-01
    0.27546117677872503093E-01
    0.27546038036100856800E-01
    0.27546048906929278266E-01
    0.27545995910842051291E-01
    0.27546015705463482853E-01
    0.27546091025963198584E-01
    0.27546138768360529242E-01
    0.27546130465418813132E-01
    0.27546117431259800612E-01
    0.27546502075460374548E-01
    0.27546451446863955137E-01
    0.27546532705309042383E-01
    0.27546487235641316932E-01
    0.27546361908092540510E-01
    0.27546289632853319940E-01
    0.27546198861994494050E-01
    0.27546231970031767600E-01
    0.27546181687037030877E-01
    0.27546225306279696621E-01
    0.27546320171298065149E-01
    0.27546408952534372216E-01
    0.27546346891093146519E-01
    0.27546320861539325131E-01
    0.27546671049722328689E-01
    0.27546653791509875808E-01
    0.27546807781358650935E-01
    0.27546767847607768476E-01
    0.27546581065594804433E-01
    0.27546500922273901152E-01
    0.27546358557688319091E-01
    0.27546374159684701433E-01
    0.27546279188965936552E-01
    0.27546311003010023194E-01
    0.27546440808113654281E-01
    0.27546517600608302206E-01
    0.27546513419959815089E-01
    0.27546493009359841048E-01
    0.27546440073592623476E-01
    0.27546433543621018369E-01
    0.27546567194629032610E-01
    0.27546535397499322118E-01
    0.27546381031708949694E-01
    0.27546319443198869631E-01
    0.27546201245786446077E-01
    0.27546206844438179268E-01
    0.27546122562191965866E-01
    0.27546141458862697521E-01
    0.27546249606170265106E-01
    0.27546304050935943586E-01
    0.27546317453298347494E-01
    0.27546303507184646125E-01
    0.27546789294724892405E-01
    0.27546783080616973199E-01
    0.27546977849072822736E-01
    0.27546933087967458847E-01
    0.27546712335330941074E-01
    0.27546628405825668295E-01
    0.27546457750655534147E-01
    0.27546460152711838010E-01
    0.27546334915805388566E-01
    0.27546357514470848349E-01
    0.27546514075086941248E-01
    0.27546587760800964745E-01