# vtk DataFile Version 3.0
LAPLACIEN  2D
ASCII
DATASET UNSTRUCTURED_GRID
FIELD FieldData 1
TIME 1 1 double
11.7000
 POINTS        7297  float
   1.5625000000000000E-002  0.96875000000000000        0.0000000000000000     
   3.1250000000000000E-002  0.96875000000000000        0.0000000000000000     
   3.1250000000000000E-002  0.98437500000000000        0.0000000000000000     
   9.3749999999999997E-003  0.97812500000000002        0.0000000000000000     
   2.0312500000000001E-002  0.97968750000000004        0.0000000000000000     
   2.1874999999999999E-002  0.99062499999999998        0.0000000000000000     
   1.0937499999999999E-002  0.98906249999999996        0.0000000000000000     
   4.6875000000000000E-002  0.96875000000000000        0.0000000000000000     
   6.2500000000000000E-002  0.96875000000000000        0.0000000000000000     
   6.2500000000000000E-002  0.98437500000000000        0.0000000000000000     
   4.0625000000000001E-002  0.97812500000000002        0.0000000000000000     
   5.1562499999999997E-002  0.97968750000000004        0.0000000000000000     
   5.3124999999999999E-002  0.99062499999999998        0.0000000000000000     
   4.2187500000000003E-002  0.98906249999999996        0.0000000000000000     
   1.5625000000000000E-002  0.93750000000000000        0.0000000000000000     
   3.1250000000000000E-002  0.93750000000000000        0.0000000000000000     
   3.1250000000000000E-002  0.95312500000000000        0.0000000000000000     
   9.3749999999999997E-003  0.94687500000000002        0.0000000000000000     
   2.0312500000000001E-002  0.94843750000000004        0.0000000000000000     
   2.1874999999999999E-002  0.95937499999999998        0.0000000000000000     
   1.0937499999999999E-002  0.95781249999999996        0.0000000000000000     
   4.6875000000000000E-002  0.93750000000000000        0.0000000000000000     
   6.2500000000000000E-002  0.93750000000000000        0.0000000000000000     
   6.2500000000000000E-002  0.95312500000000000        0.0000000000000000     
   4.0625000000000001E-002  0.94687500000000002        0.0000000000000000     
   5.1562499999999997E-002  0.94843750000000004        0.0000000000000000     
   5.3124999999999999E-002  0.95937499999999998        0.0000000000000000     
   4.2187500000000003E-002  0.95781249999999996        0.0000000000000000     
   7.8125000000000000E-002  0.96875000000000000        0.0000000000000000     
   9.3750000000000000E-002  0.96875000000000000        0.0000000000000000     
   9.3750000000000000E-002  0.98437500000000000        0.0000000000000000     
   7.1874999999999994E-002  0.97812500000000002        0.0000000000000000     
   8.2812499999999997E-002  0.97968750000000004        0.0000000000000000     
   8.4375000000000006E-002  0.99062499999999998        0.0000000000000000     
   7.3437500000000003E-002  0.98906249999999996        0.0000000000000000     
  0.10937500000000000       0.96875000000000000        0.0000000000000000     
  0.12500000000000000       0.96875000000000000        0.0000000000000000     
  0.12500000000000000       0.98437500000000000        0.0000000000000000     
  0.10312499999999999       0.97812500000000002        0.0000000000000000     
  0.11406250000000000       0.97968750000000004        0.0000000000000000     
  0.11562500000000001       0.99062499999999998        0.0000000000000000     
  0.10468750000000000       0.98906249999999996        0.0000000000000000     
   7.8125000000000000E-002  0.93750000000000000        0.0000000000000000     
   9.3750000000000000E-002  0.93750000000000000        0.0000000000000000     
   9.3750000000000000E-002  0.95312500000000000        0.0000000000000000     
   7.1874999999999994E-002  0.94687500000000002        0.0000000000000000     
   8.2812499999999997E-002  0.94843750000000004        0.0000000000000000     
   8.4375000000000006E-002  0.95937499999999998        0.0000000000000000     
   7.3437500000000003E-002  0.95781249999999996        0.0000000000000000     
  0.10937500000000000       0.93750000000000000        0.0000000000000000     
  0.12500000000000000       0.93750000000000000        0.0000000000000000     
  0.12500000000000000       0.95312500000000000        0.0000000000000000     
  0.10312499999999999       0.94687500000000002        0.0000000000000000     
  0.11406250000000000       0.94843750000000004        0.0000000000000000     
  0.11562500000000001       0.95937499999999998        0.0000000000000000     
  0.10468750000000000       0.95781249999999996        0.0000000000000000     
   1.5625000000000000E-002  0.90625000000000000        0.0000000000000000     
   3.1250000000000000E-002  0.90625000000000000        0.0000000000000000     
   3.1250000000000000E-002  0.92187500000000000        0.0000000000000000     
   9.3749999999999997E-003  0.91562500000000002        0.0000000000000000     
   2.0312500000000001E-002  0.91718750000000004        0.0000000000000000     
   2.1874999999999999E-002  0.92812499999999998        0.0000000000000000     
   1.0937499999999999E-002  0.92656249999999996        0.0000000000000000     
   4.6875000000000000E-002  0.90625000000000000        0.0000000000000000     
   6.2500000000000000E-002  0.90625000000000000        0.0000000000000000     
   6.2500000000000000E-002  0.92187500000000000        0.0000000000000000     
   4.0625000000000001E-002  0.91562500000000002        0.0000000000000000     
   5.1562499999999997E-002  0.91718750000000004        0.0000000000000000     
   5.3124999999999999E-002  0.92812499999999998        0.0000000000000000     
   4.2187500000000003E-002  0.92656249999999996        0.0000000000000000     
   1.5625000000000000E-002  0.87500000000000000        0.0000000000000000     
   3.1250000000000000E-002  0.87500000000000000        0.0000000000000000     
   3.1250000000000000E-002  0.89062500000000000        0.0000000000000000     
   9.3749999999999997E-003  0.88437500000000002        0.0000000000000000     
   2.0312500000000001E-002  0.88593750000000004        0.0000000000000000     
   2.1874999999999999E-002  0.89687499999999998        0.0000000000000000     
   1.0937499999999999E-002  0.89531249999999996        0.0000000000000000     
   4.6875000000000000E-002  0.87500000000000000        0.0000000000000000     
   6.2500000000000000E-002  0.87500000000000000        0.0000000000000000     
   6.2500000000000000E-002  0.89062500000000000        0.0000000000000000     
   4.0625000000000001E-002  0.88437500000000002        0.0000000000000000     
   5.1562499999999997E-002  0.88593750000000004        0.0000000000000000     
   5.3124999999999999E-002  0.89687499999999998        0.0000000000000000     
   4.2187500000000003E-002  0.89531249999999996        0.0000000000000000     
   7.8125000000000000E-002  0.90625000000000000        0.0000000000000000     
   9.3750000000000000E-002  0.90625000000000000        0.0000000000000000     
   9.3750000000000000E-002  0.92187500000000000        0.0000000000000000     
   7.1874999999999994E-002  0.91562500000000002        0.0000000000000000     
   8.2812499999999997E-002  0.91718750000000004        0.0000000000000000     
   8.4375000000000006E-002  0.92812499999999998        0.0000000000000000     
   7.3437500000000003E-002  0.92656249999999996        0.0000000000000000     
  0.10937500000000000       0.90625000000000000        0.0000000000000000     
  0.12500000000000000       0.90625000000000000        0.0000000000000000     
  0.12500000000000000       0.92187500000000000        0.0000000000000000     
  0.10312499999999999       0.91562500000000002        0.0000000000000000     
  0.11406250000000000       0.91718750000000004        0.0000000000000000     
  0.11562500000000001       0.92812499999999998        0.0000000000000000     
  0.10468750000000000       0.92656249999999996        0.0000000000000000     
   7.8125000000000000E-002  0.87500000000000000        0.0000000000000000     
   9.3750000000000000E-002  0.87500000000000000        0.0000000000000000     
   9.3750000000000000E-002  0.89062500000000000        0.0000000000000000     
   7.1874999999999994E-002  0.88437500000000002        0.0000000000000000     
   8.2812499999999997E-002  0.88593750000000004        0.0000000000000000     
   8.4375000000000006E-002  0.89687499999999998        0.0000000000000000     
   7.3437500000000003E-002  0.89531249999999996        0.0000000000000000     
  0.10937500000000000       0.87500000000000000        0.0000000000000000     
  0.12500000000000000       0.87500000000000000        0.0000000000000000     
  0.12500000000000000       0.89062500000000000        0.0000000000000000     
  0.10312499999999999       0.88437500000000002        0.0000000000000000     
  0.11406250000000000       0.88593750000000004        0.0000000000000000     
  0.11562500000000001       0.89687499999999998        0.0000000000000000     
  0.10468750000000000       0.89531249999999996        0.0000000000000000     
  0.14062500000000000       0.96875000000000000        0.0000000000000000     
  0.15625000000000000       0.96875000000000000        0.0000000000000000     
  0.15625000000000000       0.98437500000000000        0.0000000000000000     
  0.13437499999999999       0.97812500000000002        0.0000000000000000     
  0.14531250000000001       0.97968750000000004        0.0000000000000000     
  0.14687500000000001       0.99062499999999998        0.0000000000000000     
  0.13593749999999999       0.98906249999999996        0.0000000000000000     
  0.17187500000000000       0.96875000000000000        0.0000000000000000     
  0.18750000000000000       0.96875000000000000        0.0000000000000000     
  0.18750000000000000       0.98437500000000000        0.0000000000000000     
  0.16562499999999999       0.97812500000000002        0.0000000000000000     
  0.17656250000000001       0.97968750000000004        0.0000000000000000     
[...]
 CELL_DATA       14336
 SCALARS Tumor_cells float
 LOOKUP_TABLE default
    0.31426755090729140141E-01
    0.31426754847041001029E-01
    0.31426756750496956383E-01
    0.31426756750496477599E-01
    0.31426754847041653285E-01
    0.31426755090727509501E-01
    0.31426753581666529158E-01
    0.31426752689172603172E-01
    0.31426751725517725056E-01
    0.31426751725512104552E-01
    0.31426752689175725675E-01
    0.31426753581665835269E-01
    0.31426753441863998495E-01
    0.31426753441862999294E-01
    0.31426761347952483772E-01
    0.31426763015775578680E-01
    0.31426767543785101566E-01
    0.31426768798391763182E-01
    0.31426765402669067095E-01
    0.31426767029693561395E-01
    0.31426763470848419202E-01
    0.31426760511902150641E-01
    0.31426757389061581172E-01
    0.31426756271656419717E-01
    0.31426758216434882987E-01
    0.31426757976482276591E-01
    0.31426761025201456479E-01
    0.31426761694413787862E-01
    0.31426767029697072475E-01
    0.31426765402671572036E-01
    0.31426768798394566495E-01
    0.31426767543787065273E-01
    0.31426763015777271770E-01
    0.31426761347952775205E-01
    0.31426757976483379875E-01
    0.31426758216435368709E-01
    0.31426756271658223829E-01
    0.31426757389062247305E-01
    0.31426760511904537621E-01
    0.31426763470851042104E-01
    0.31426761694415925041E-01
    0.31426761025202996913E-01
    0.31426775436905536598E-01
    0.31426776166577206906E-01
    0.31426783253375507876E-01
    0.31426783253375008276E-01
    0.31426776166576401994E-01
    0.31426775436903441052E-01
    0.31426769157406941879E-01
    0.31426767367862575020E-01
    0.31426762700883410784E-01
    0.31426762700883431600E-01
    0.31426767367863490954E-01
    0.31426769157408572519E-01
    0.31426771219440680083E-01
    0.31426771219440395588E-01
    0.31426778090248463915E-01
    0.31426782606237775586E-01
    0.31426791453036416468E-01
    0.31426794751056065513E-01
    0.31426788897880496287E-01
    0.31426792860857116763E-01
    0.31426785869943379970E-01
    0.31426779384031280906E-01
    0.31426772678903418246E-01
    0.31426769846238267192E-01
    0.31426773422312107020E-01
    0.31426771702272718323E-01
    0.31426779518675458658E-01
    0.31426781301746094244E-01
    0.31426811634964586795E-01
    0.31426820752039494322E-01
    0.31426836407706167098E-01
    0.31426842776890805131E-01
    0.31426832893615724851E-01
    0.31426840230066380166E-01
    0.31426827852080833903E-01
    0.31426816084856867839E-01
    0.31426803855021397116E-01
    0.31426798299902580780E-01
    0.31426804579804852591E-01
    0.31426800428642397145E-01
    0.31426815846248637443E-01
    0.31426819308068683345E-01
    0.31426797408806737832E-01
    0.31426800939765534015E-01
    0.31426813383400087343E-01
    0.31426815044715381009E-01
    0.31426803981572493107E-01
    0.31426804618093183430E-01
    0.31426793707994879479E-01
    0.31426788891164327000E-01
    0.31426779970325599556E-01
    0.31426778626770325575E-01
    0.31426786095966420531E-01
    0.31426786931755788801E-01
    0.31426793769015998192E-01
    0.31426794622617104658E-01
    0.31426839063728763402E-01
    0.31426847201187074754E-01
    0.31426868649600543659E-01
    0.31426873094247846641E-01
    0.31426855364429455431E-01
    0.31426858202034224643E-01
    0.31426839764469187422E-01
    0.31426830056760647614E-01
    0.31426814300928432311E-01
    0.31426810733178808799E-01
    0.31426822577712502926E-01
    0.31426821907793875410E-01
    0.31426836443922662179E-01
    0.31426838731591480447E-01
    0.31426792860864950774E-01
    0.31426788897887261709E-01
    0.31426794751063136246E-01
    0.31426791453042467184E-01
    0.31426782606242861795E-01
    0.31426778090252141529E-01
    0.31426771702276146137E-01
    0.31426773422316173212E-01
    0.31426769846242312567E-01
    0.31426772678907859138E-01
    0.31426779384036970799E-01
    0.31426785869950200902E-01
    0.31426781301751756381E-01
    0.31426779518680614256E-01
    0.31426804618099622723E-01
    0.31426803981577454417E-01
    0.31426815044720182724E-01
    0.31426813383403640056E-01
    0.31426800939768261001E-01
    0.31426797408807827239E-01
    0.31426786931756850452E-01
    0.31426786095968710366E-01
    0.31426778626772976233E-01
    0.31426779970329013492E-01
    0.31426788891168712381E-01
    0.31426793708000652638E-01
    0.31426794622621032071E-01
    0.31426793769019273350E-01
    0.31426840230080362038E-01
    0.31426832893628416088E-01
    0.31426842776903982091E-01
    0.31426836407718095057E-01
    0.31426820752049923480E-01
    0.31426811634973267351E-01
    0.31426800428650293606E-01
    0.31426804579813893969E-01
    0.31426798299911212764E-01
    0.31426803855030896462E-01
    0.31426816084867942314E-01
    0.31426827852093504323E-01
    0.31426819308079813331E-01
    0.31426815846259122111E-01
    0.31426858202046853430E-01
    0.31426855364440384188E-01
    0.31426873094258830910E-01
    0.31426868649609987494E-01
    0.31426847201195193260E-01
    0.31426839063734827995E-01
    0.31426821907799488975E-01
    0.31426822577719712437E-01
    0.31426810733186073821E-01
    0.31426814300936842250E-01
    0.31426830056770438393E-01
    0.31426839764480851702E-01
    0.31426838731600896526E-01
    0.31426836443931280285E-01
    0.31426835267642706795E-01
    0.31426838010841541549E-01
    0.31426856479634848740E-01
    0.31426856479634085462E-01
    0.31426838010840139892E-01
    0.31426835267639445515E-01
    0.31426818438877818229E-01
    0.31426814539143817229E-01
    0.31426801630099934770E-01
    0.31426801630100496820E-01
    0.31426814539145093985E-01
    0.31426818438880808892E-01
    0.31426825204194916430E-01
    0.31426825204194520913E-01
    0.31426892347890672541E-01
    0.31426900489495701585E-01
    0.31426931613833038182E-01
    0.31426934522339258771E-01
    0.31426905551870110145E-01
    0.31426904022438029163E-01
    0.31426876124165684101E-01
    0.31426867107195152751E-01
    0.31426845044317149036E-01
    0.31426843073701672682E-01
    0.31426862761659873913E-01
    0.31426865736632850212E-01
    0.31426881634226876139E-01
    0.31426883011343248464E-01
    0.31426904022447542386E-01
    0.31426905551877458433E-01
    0.31426934522346211542E-01
    0.31426931613838179902E-01
    0.31426900489499719205E-01
    0.31426892347892358692E-01
    0.31426865736634411463E-01
    0.31426862761663475199E-01
    0.31426843073705759690E-01
    0.31426845044322665457E-01
    0.31426867107201862661E-01
    0.31426876124174600580E-01
    0.31426883011349139585E-01
    0.31426881634231816631E-01
    0.31426987544205510494E-01
    0.31426995267224408503E-01
    0.31427042220859964516E-01
    0.31427042220858923682E-01
    0.31426995267222437858E-01
    0.31426987544200916946E-01
    0.31426944892980222812E-01
    0.31426935713393062966E-01
    0.31426903186262393486E-01
    0.31426903186263253909E-01
    0.31426935713394894834E-01
    0.31426944892984566560E-01
    0.31426962922871254369E-01
    0.31426962922870699257E-01
    0.31426871943127238085E-01
    0.31426888360037097403E-01
    0.31426915523628314031E-01
    0.31426926941293870099E-01
    0.31426910037767485928E-01
    0.31426923005430221214E-01
    0.31426901611254762225E-01
    0.31426881013793234176E-01
    0.31426859694861482286E-01
    0.31426849838223587519E-01
    0.31426860561650865611E-01
    0.31426852823349553379E-01
    0.31426880233070060566E-01
    0.31426886400746534278E-01
    0.31426977695892831244E-01
    0.31427006424018313901E-01
    0.31427053747013329599E-01
    0.31427073469013501461E-01
    0.31427043920843659996E-01
    0.31427066006024517719E-01
    0.31427029146054184794E-01
    0.31426993654026423586E-01
    0.31426956747224045474E-01
    0.31426939669616689443E-01
    0.31426958163983609307E-01
    0.31426944509955416496E-01
    0.31426992332297329358E-01
    0.31427003023354993516E-01
    0.31426914171371778117E-01
    0.31426930139819862775E-01
    0.31426967419762710798E-01
    0.31426976583128173048E-01
    0.31426946737236935436E-01
    0.31426952867008896286E-01
    0.31426921034284224787E-01
    0.31426903404860907776E-01
    0.31426876098264520942E-01
    0.31426869076947791526E-01
    0.31426888477277203915E-01
    0.31426885389359726641E-01
    0.31426912893178483854E-01
    0.31426917506765177091E-01
    0.31427048032827357982E-01
    0.31427077553367606388E-01
    0.31427143106860767896E-01
    0.31427160006334484144E-01
    0.31427107928921310664E-01
    0.31427118889507610344E-01
    0.31427063372350058645E-01
    0.31427032329301052282E-01
    0.31426984742912986159E-01
    0.31426972017439998297E-01
    0.31427005181777101228E-01
    0.31426998416347856624E-01
    0.31427048113301297994E-01
    0.31427056531574133758E-01
    0.31427161491584761077E-01
    0.31427210365277041815E-01
    0.31427291845788934976E-01
    0.31427324273948349653E-01
    0.31427272709154553676E-01
    0.31427308799323525057E-01
    0.31427246419878623884E-01
    0.31427186572575233070E-01
    0.31427123748895301192E-01
    0.31427094635839973591E-01
    0.31427126759796461530E-01
    0.31427103808868719903E-01
    0.31427185260648096699E-01
    0.31427203149514394698E-01
    0.31427475552847243534E-01
    0.31427555097041294518E-01
    0.31427693037866417936E-01
    0.31427743080576671375E-01
    0.31427653641423726472E-01
    0.31427709362562589179E-01
    0.31427606867865741369E-01
    0.31427509154221551502E-01
    0.31427404745532350194E-01
    0.31427356739307479860E-01
    0.31427412082564575024E-01
    0.31427375647163691141E-01
    0.31427509916760805464E-01
    0.31427538564260143472E-01
    0.31427286323562064752E-01
    0.31427338590888816150E-01
    0.31427454909108067105E-01
    0.31427483642015807686E-01
    0.31427390180613135051E-01
    0.31427406661943622923E-01
    0.31427309515063971135E-01
    0.31427256974808484569E-01
    0.31427174079476372093E-01
    0.31427152297627096444E-01
    0.31427210626897413015E-01
    0.31427198667786773734E-01
    0.31427286042686415624E-01
    0.31427300385760748025E-01
    0.31427708130366063810E-01
    0.31427796335551989870E-01
    0.31428001923268514273E-01
    0.31428045871843772463E-01
    0.31427876372978218178E-01
    0.31427895361169605470E-01
    0.31427726462214339298E-01
    0.31427641945570773674E-01
    0.31427499075961567998E-01
    0.31427464064321175563E-01
    0.31427568597897442837E-01
    0.31427551432402660303E-01
    0.31427699409218530502E-01
    0.31427721871514192886E-01
    0.31426994528598393985E-01
    0.31427012209502919182E-01
    0.31427065510138726956E-01
    0.31427073721767534442E-01
    0.31427026199050571431E-01
    0.31427026858286410960E-01
    0.31426979263284166022E-01
    0.31426961307428225023E-01
    0.31426923298960449116E-01
    0.31426918010875812270E-01
    0.31426949580318927491E-01
    0.31426951047074928869E-01
    0.31426982729009012019E-01
    0.31426986487316128926E-01
    0.31427177073340868685E-01
    0.31427212493759702772E-01
    0.31427306523549025652E-01
    0.31427324669402893764E-01
    0.31427242827199081132E-01
    0.31427246837350659991E-01
    0.31427163296654771207E-01
    0.31427129772926040707E-01
    0.31427062973942529456E-01
    0.31427051871321720622E-01
    0.31427104835043379039E-01
    0.31427103315126762861E-01
    0.31427163895201455646E-01
    0.31427171984824295303E-01
    0.31427132478135527682E-01
    0.31427152080478887308E-01
    0.31427229932962506831E-01
    0.31427236366640090570E-01
    0.31427162619620044315E-01
    0.31427156642161342692E-01
    0.31427085779367300300E-01
    0.31427065461214341580E-01
    0.31427010508908656550E-01
    0.31427006807339355476E-01
    0.31427057001279852522E-01
    0.31427065434550094380E-01
    0.31427103922551408166E-01
    0.31427106701927977339E-01
    0.31427386684392072391E-01
    0.31427430354313244665E-01
    0.31427564701890120524E-01
    0.31427585484038032815E-01
    0.31427463559457545494E-01
    0.31427462404124209550E-01
    0.31427339472063033077E-01
    0.31427297771571945095E-01
    0.31427202074818069710E-01
    0.31427191103991419796E-01
    0.31427272032105366129E-01
    0.31427277419671661995E-01
    0.31427354978666610652E-01
    0.31427363605330133067E-01
    0.31427508415260270447E-01
    0.31427576198806123076E-01
    0.31427746106082031508E-01
    0.31427781099473167670E-01
    0.31427633987354493261E-01
    0.31427641166781684900E-01
    0.31427491449187598682E-01
    0.31427431530936952853E-01
    0.31427312500076992619E-01
    0.31427291706031063034E-01
    0.31427384474431836747E-01
    0.31427378317887111336E-01
    0.31427490864986223906E-01
    0.31427506212166042565E-01
    0.31428115406144298272E-01
    0.31428239183478624830E-01
    0.31428550171032028360E-01
    0.31428610204545529005E-01
    0.31428337838642329827E-01
    0.31428341693794881184E-01
    0.31428071053792215606E-01
    0.31427969699991592512E-01
    0.31427756618878185946E-01
    0.31427721360209638635E-01
    0.31427889697613467512E-01
    0.31427878887705706923E-01
    0.31428081872292859544E-01
    0.31428108033536537869E-01
    0.31427848509159680979E-01
    0.31427940886200100845E-01
    0.31428183872840124990E-01
    0.31428233136587435670E-01
    0.31428018746092516167E-01
    0.31428025577581591987E-01
    0.31427803745808696734E-01
    0.31427722646717198840E-01
    0.31427550322416918094E-01
    0.31427525452557746044E-01
    0.31427663303673906980E-01
    0.31427660665483525548E-01
    0.31427815012232539205E-01
    0.31427835104015339196E-01
    0.31428714171497430796E-01
    0.31428899357903279654E-01
    0.31429353420613488634E-01
    0.31429453259180430147E-01
    0.31429055651870617394E-01
    0.31429068656021269534E-01
    0.31428657825830749739E-01
    0.31428507999270341444E-01
    0.31428191030053710675E-01
    0.31428142250045469630E-01
    0.31428390442561300600E-01
    0.31428374079520308981E-01
    0.31428673067150178499E-01
    0.31428713185041964873E-01
    0.31426923005452168935E-01
    0.31426910037787858521E-01
    0.31426926941314950459E-01
    0.31426915523647867834E-01
    0.31426888360054680560E-01
    0.31426871943142684063E-01
    0.31426852823363805867E-01
    0.31426860561666568328E-01
    0.31426849838238651857E-01
    0.31426859694877712359E-01
    0.31426881013811490406E-01
    0.31426901611275079307E-01
    0.31426886400764915408E-01
    0.31426880233087643723E-01
    0.31426952867029567251E-01
    0.31426946737255621878E-01
    0.31426976583147116229E-01
    0.31426967419779863744E-01
    0.31426930139835204669E-01
    0.31426914171384656704E-01
    0.31426885389371765622E-01
    0.31426888477291137214E-01
    0.31426869076961530536E-01
    0.31426876098279703242E-01
    0.31426903404877915005E-01
    0.31426921034303528790E-01
    0.31426917506781899825E-01
    0.31426912893194262899E-01
    0.31427066006056367242E-01
    0.31427043920873636018E-01
    0.31427073469044365661E-01
    0.31427053747042410503E-01
    0.31427006424044917621E-01
    0.31426977695916825939E-01
    0.31426944509977829123E-01
    0.31426958164007777474E-01
    0.31426939669640011066E-01
    0.31426956747248831203E-01
    0.31426993654053735072E-01
    0.31427029146084035915E-01
    0.31427003023382485414E-01
    0.31426992332323863688E-01
    0.31427118889538196989E-01
    0.31427107928949656046E-01
    0.31427160006363363820E-01
    0.31427143106887614477E-01
    0.31427077553392079867E-01
    0.31427048032848917125E-01
    0.31426998416368152889E-01
    0.31427005181799576305E-01
    0.31426972017462043163E-01
    0.31426984742936724115E-01
    0.31427032329327135585E-01
    0.31427063372378889750E-01
    0.31427056531600022771E-01
    0.31427048113326097600E-01
    0.31427026858304063506E-01
    0.31427026199065795364E-01
    0.31427073721782571025E-01
    0.31427065510151702687E-01
    0.31427012209514250396E-01
    0.31426994528606970458E-01
    0.31426951047082964108E-01
    0.31426949580329287259E-01
    0.31426918010886421839E-01
    0.31426923298972786469E-01
    0.31426961307442234650E-01
    0.31426979263300812428E-01
    0.31426986487329416908E-01
    0.31426982729021189777E-01
    0.31427156642174179646E-01
    0.31427162619629946116E-01
    0.31427236366649333177E-01
    0.31427229932969355519E-01
    0.31427152080484292707E-01
    0.31427132478137838334E-01
    0.31427065434552217682E-01
    0.31427057001284813831E-01
    0.31427006807345073125E-01
    0.31427010508916414233E-01
    0.31427065461223577247E-01
    0.31427085779379512753E-01
    0.31427106701936005639E-01
    0.31427103922558138893E-01
    0.31427246837378457200E-01
    0.31427242827224192989E-01
    0.31427324669428130521E-01
    0.31427306523571903185E-01
    0.31427212493780366798E-01
    0.31427177073358299186E-01
    0.31427103315143173345E-01
    0.31427104835062440180E-01
    0.31427051871340760947E-01
    0.31427062973963575121E-01
    0.31427129772949299880E-01
    0.31427163296681145943E-01
    0.31427171984846964670E-01
    0.31427163895222848256E-01
    0.31427462404147496478E-01
    0.31427463559477598898E-01
    0.31427585484057760090E-01
    0.31427564701907148570E-01
    0.31427430354328184103E-01
    0.31427386684403410544E-01
    0.31427277419682292381E-01
    0.31427272032119174527E-01
    0.31427191104005693101E-01
    0.31427202074834695300E-01
    0.31427297771590617659E-01
    0.31427339472085202843E-01
    0.31427363605347723163E-01
    0.31427354978682722764E-01
    0.31427308799367233150E-01
    0.31427272709196062139E-01
    0.31427324273991003034E-01
    0.31427291845829520567E-01
    0.31427210365314622864E-01
    0.31427161491619261258E-01
    0.31427103808901200865E-01
    0.31427126759831044978E-01
    0.31427094635873481510E-01
    0.31427123748930578528E-01
    0.31427186572613542703E-01
    0.31427246419919951936E-01
    0.31427203149552933314E-01
    0.31427185260685532031E-01
    0.31427406661986193037E-01
    0.31427390180653193286E-01
    0.31427483642056754098E-01
    0.31427454909146716744E-01
    0.31427338590924495942E-01
    0.31427286323594344486E-01
    0.31427198667817297928E-01
    0.31427210626930393578E-01
    0.31427152297659355362E-01
    0.31427174079510615534E-01
    0.31427256974845621529E-01
    0.31427309515104327742E-01
    0.31427300385797829474E-01
    0.31427286042722241133E-01
    0.31427709362620306899E-01
    0.31427653641478953128E-01
    0.31427743080633403772E-01
    0.31427693037920742536E-01
    0.31427555097091976199E-01
    0.31427475552894330868E-01
    0.31427375647208266596E-01
    0.31427412082611572153E-01
    0.31427356739353172477E-01
    0.31427404745580103662E-01
    0.31427509154272920133E-01
    0.31427606867920718225E-01
    0.31427538564311845171E-01
    0.31427509916811202650E-01
    0.31427895361226504400E-01
    0.31427876373032459512E-01
    0.31428045871899470964E-01
    0.31428001923321624567E-01
    0.31427796335601283773E-01
    0.31427708130411409482E-01
    0.31427551432445584301E-01
    0.31427568597943142392E-01
    0.31427464064365778773E-01
    0.31427499076008467982E-01
    0.31427641945621212494E-01
    0.31427726462268476548E-01
    0.31427721871564798239E-01
    0.31427699409267713382E-01
    0.31427641166821951302E-01
    0.31427633987391817572E-01
    0.31427781099511095664E-01
    0.31427746106117322722E-01
    0.31427576198838444443E-01
    0.31427508415288823995E-01
    0.31427378317914048123E-01
    0.31427384474461722563E-01
    0.31427291706060608845E-01
    0.31427312500108814386E-01
    0.31427431530971619567E-01
    0.31427491449225894438E-01
    0.31427506212200292945E-01
    0.31427490865019037936E-01
    0.31428025577617993425E-01
    0.31428018746125378768E-01
    0.31428233136620499499E-01
    0.31428183872870114890E-01
    0.31427940886227183348E-01
    0.31427848509182537695E-01
    0.31427660665505029181E-01
    0.31427663303698928632E-01
    0.31427525452582871779E-01
    0.31427550322444694486E-01
    0.31427722646747757729E-01
    0.31427803745843356509E-01