# vtk DataFile Version 3.0
LAPLACIEN  2D
ASCII
DATASET UNSTRUCTURED_GRID
FIELD FieldData 1
TIME 1 1 double
0.5000
 POINTS        7297  float
   1.5625000000000000E-002  0.96875000000000000        0.0000000000000000     
   3.1250000000000000E-002  0.96875000000000000        0.0000000000000000     
   3.1250000000000000E-002  0.98437500000000000        0.0000000000000000     
   9.3749999999999997E-003  0.97812500000000002        0.0000000000000000     
   2.0312500000000001E-002  0.97968750000000004        0.0000000000000000     
   2.1874999999999999E-002  0.99062499999999998        0.0000000000000000     
   1.0937499999999999E-002  0.98906249999999996        0.0000000000000000     
   4.6875000000000000E-002  0.96875000000000000        0.0000000000000000     
   6.2500000000000000E-002  0.96875000000000000        0.0000000000000000     
   6.2500000000000000E-002  0.98437500000000000        0.0000000000000000     
   4.0625000000000001E-002  0.97812500000000002        0.0000000000000000     
   5.1562499999999997E-002  0.97968750000000004        0.0000000000000000     
   5.3124999999999999E-002  0.99062499999999998        0.0000000000000000     
   4.2187500000000003E-002  0.98906249999999996        0.0000000000000000     
   1.5625000000000000E-002  0.93750000000000000        0.0000000000000000     
   3.1250000000000000E-002  0.93750000000000000        0.0000000000000000     
   3.1250000000000000E-002  0.95312500000000000        0.0000000000000000     
   9.3749999999999997E-003  0.94687500000000002        0.0000000000000000     
   2.0312500000000001E-002  0.94843750000000004        0.0000000000000000     
   2.1874999999999999E-002  0.95937499999999998        0.0000000000000000     
   1.0937499999999999E-002  0.95781249999999996        0.0000000000000000     
   4.6875000000000000E-002  0.93750000000000000        0.0000000000000000     
   6.2500000000000000E-002  0.93750000000000000        0.0000000000000000     
   6.2500000000000000E-002  0.95312500000000000        0.0000000000000000     
   4.0625000000000001E-002  0.94687500000000002        0.0000000000000000     
   5.1562499999999997E-002  0.94843750000000004        0.0000000000000000     
   5.3124999999999999E-002  0.95937499999999998        0.0000000000000000     
   4.2187500000000003E-002  0.95781249999999996        0.0000000000000000     
   7.8125000000000000E-002  0.96875000000000000        0.0000000000000000     
   9.3750000000000000E-002  0.96875000000000000        0.0000000000000000     
   9.3750000000000000E-002  0.98437500000000000        0.0000000000000000     
   7.1874999999999994E-002  0.97812500000000002        0.0000000000000000     
   8.2812499999999997E-002  0.97968750000000004        0.0000000000000000     
   8.4375000000000006E-002  0.99062499999999998        0.0000000000000000     
   7.3437500000000003E-002  0.98906249999999996        0.0000000000000000     
  0.10937500000000000       0.96875000000000000        0.0000000000000000     
  0.12500000000000000       0.96875000000000000        0.0000000000000000     
  0.12500000000000000       0.98437500000000000        0.0000000000000000     
  0.10312499999999999       0.97812500000000002        0.0000000000000000     
  0.11406250000000000       0.97968750000000004        0.0000000000000000     
  0.11562500000000001       0.99062499999999998        0.0000000000000000     
  0.10468750000000000       0.98906249999999996        0.0000000000000000     
   7.8125000000000000E-002  0.93750000000000000        0.0000000000000000     
   9.3750000000000000E-002  0.93750000000000000        0.0000000000000000     
   9.3750000000000000E-002  0.95312500000000000        0.0000000000000000     
   7.1874999999999994E-002  0.94687500000000002        0.0000000000000000     
   8.2812499999999997E-002  0.94843750000000004        0.0000000000000000     
   8.4375000000000006E-002  0.95937499999999998        0.0000000000000000     
   7.3437500000000003E-002  0.95781249999999996        0.0000000000000000     
  0.10937500000000000       0.93750000000000000        0.0000000000000000     
  0.12500000000000000       0.93750000000000000        0.0000000000000000     
  0.12500000000000000       0.95312500000000000        0.0000000000000000     
  0.10312499999999999       0.94687500000000002        0.0000000000000000     
  0.11406250000000000       0.94843750000000004        0.0000000000000000     
  0.11562500000000001       0.95937499999999998        0.0000000000000000     
  0.10468750000000000       0.95781249999999996        0.0000000000000000     
   1.5625000000000000E-002  0.90625000000000000        0.0000000000000000     
   3.1250000000000000E-002  0.90625000000000000        0.0000000000000000     
   3.1250000000000000E-002  0.92187500000000000        0.0000000000000000     
   9.3749999999999997E-003  0.91562500000000002        0.0000000000000000     
   2.0312500000000001E-002  0.91718750000000004        0.0000000000000000     
   2.1874999999999999E-002  0.92812499999999998        0.0000000000000000     
   1.0937499999999999E-002  0.92656249999999996        0.0000000000000000     
   4.6875000000000000E-002  0.90625000000000000        0.0000000000000000     
   6.2500000000000000E-002  0.90625000000000000        0.0000000000000000     
   6.2500000000000000E-002  0.92187500000000000        0.0000000000000000     
   4.0625000000000001E-002  0.91562500000000002        0.0000000000000000     
   5.1562499999999997E-002  0.91718750000000004        0.0000000000000000     
   5.3124999999999999E-002  0.92812499999999998        0.0000000000000000     
   4.2187500000000003E-002  0.92656249999999996        0.0000000000000000     
   1.5625000000000000E-002  0.87500000000000000        0.0000000000000000     
   3.1250000000000000E-002  0.87500000000000000        0.0000000000000000     
   3.1250000000000000E-002  0.89062500000000000        0.0000000000000000     
   9.3749999999999997E-003  0.88437500000000002        0.0000000000000000     
   2.0312500000000001E-002  0.88593750000000004        0.0000000000000000     
   2.1874999999999999E-002  0.89687499999999998        0.0000000000000000     
   1.0937499999999999E-002  0.89531249999999996        0.0000000000000000     
   4.6875000000000000E-002  0.87500000000000000        0.0000000000000000     
   6.2500000000000000E-002  0.87500000000000000        0.0000000000000000     
   6.2500000000000000E-002  0.89062500000000000        0.0000000000000000     
   4.0625000000000001E-002  0.88437500000000002        0.0000000000000000     
   5.1562499999999997E-002  0.88593750000000004        0.0000000000000000     
   5.3124999999999999E-002  0.89687499999999998        0.0000000000000000     
   4.2187500000000003E-002  0.89531249999999996        0.0000000000000000     
   7.8125000000000000E-002  0.90625000000000000        0.0000000000000000     
   9.3750000000000000E-002  0.90625000000000000        0.0000000000000000     
   9.3750000000000000E-002  0.92187500000000000        0.0000000000000000     
   7.1874999999999994E-002  0.91562500000000002        0.0000000000000000     
   8.2812499999999997E-002  0.91718750000000004        0.0000000000000000     
   8.4375000000000006E-002  0.92812499999999998        0.0000000000000000     
   7.3437500000000003E-002  0.92656249999999996        0.0000000000000000     
  0.10937500000000000       0.90625000000000000        0.0000000000000000     
  0.12500000000000000       0.90625000000000000        0.0000000000000000     
  0.12500000000000000       0.92187500000000000        0.0000000000000000     
  0.10312499999999999       0.91562500000000002        0.0000000000000000     
  0.11406250000000000       0.91718750000000004        0.0000000000000000     
  0.11562500000000001       0.92812499999999998        0.0000000000000000     
  0.10468750000000000       0.92656249999999996        0.0000000000000000     
   7.8125000000000000E-002  0.87500000000000000        0.0000000000000000     
   9.3750000000000000E-002  0.87500000000000000        0.0000000000000000     
   9.3750000000000000E-002  0.89062500000000000        0.0000000000000000     
   7.1874999999999994E-002  0.88437500000000002        0.0000000000000000     
   8.2812499999999997E-002  0.88593750000000004        0.0000000000000000     
   8.4375000000000006E-002  0.89687499999999998        0.0000000000000000     
   7.3437500000000003E-002  0.89531249999999996        0.0000000000000000     
  0.10937500000000000       0.87500000000000000        0.0000000000000000     
  0.12500000000000000       0.87500000000000000        0.0000000000000000     
  0.12500000000000000       0.89062500000000000        0.0000000000000000     
  0.10312499999999999       0.88437500000000002        0.0000000000000000     
  0.11406250000000000       0.88593750000000004        0.0000000000000000     
  0.11562500000000001       0.89687499999999998        0.0000000000000000     
  0.10468750000000000       0.89531249999999996        0.0000000000000000     
  0.14062500000000000       0.96875000000000000        0.0000000000000000     
  0.15625000000000000       0.96875000000000000        0.0000000000000000     
  0.15625000000000000       0.98437500000000000        0.0000000000000000     
  0.13437499999999999       0.97812500000000002        0.0000000000000000     
  0.14531250000000001       0.97968750000000004        0.0000000000000000     
  0.14687500000000001       0.99062499999999998        0.0000000000000000     
  0.13593749999999999       0.98906249999999996        0.0000000000000000     
  0.17187500000000000       0.96875000000000000        0.0000000000000000     
  0.18750000000000000       0.96875000000000000        0.0000000000000000     
  0.18750000000000000       0.98437500000000000        0.0000000000000000     
  0.16562499999999999       0.97812500000000002        0.0000000000000000     
  0.17656250000000001       0.97968750000000004        0.0000000000000000     
[...]
 CELL_DATA       14336
 SCALARS Tumor_cells float
 LOOKUP_TABLE default
    0.10311690225940422713E-02
    0.10283636786340868800E-02
    0.10464977582195459250E-02
    0.10464977582095033939E-02
    0.10283636786056788315E-02
    0.10311690225247264075E-02
    0.10163342056887932855E-02
    0.10074395728348133853E-02
    0.99786276089898571368E-03
    0.99786276090827472421E-03
    0.10074395728762116937E-02
    0.10163342058009728654E-02
    0.10147646585187423875E-02
    0.10147646585084912560E-02
    0.10884123390964978162E-02
    0.11031960001980254879E-02
    0.11413680002458832016E-02
    0.11517133209462374240E-02
    0.11242366641808362263E-02
    0.11381223467007671457E-02
    0.11084406695465024752E-02
    0.10819813606187207375E-02
    0.10532469997571374063E-02
    0.10422702415921027488E-02
    0.10604485851503028544E-02
    0.10578249086720449036E-02
    0.10861055359337799635E-02
    0.10923570041502196279E-02
    0.11381223467822880902E-02
    0.11242366642241889176E-02
    0.11517133209443955813E-02
    0.11413680002491778751E-02
    0.11031960002174895190E-02
    0.10884123391066459485E-02
    0.10578249086887084405E-02
    0.10604485851926424671E-02
    0.10422702416574842598E-02
    0.10532469998304129933E-02
    0.10819813607059120594E-02
    0.11084406696882309010E-02
    0.10923570042032891558E-02
    0.10861055359767551355E-02
    0.12013553145780811200E-02
    0.12061012230712485436E-02
    0.12561855896536309844E-02
    0.12561855896703053633E-02
    0.12061012230793078520E-02
    0.12013553145848352658E-02
    0.11537363987586546094E-02
    0.11389459845040689114E-02
    0.11001198997790668892E-02
    0.11001198997828256013E-02
    0.11389459845050687627E-02
    0.11537363987589956994E-02
    0.11691945343145395807E-02
    0.11691945343155762949E-02
    0.12213184392897457383E-02
    0.12526207809402021241E-02
    0.13109130424432953281E-02
    0.13306572344559614365E-02
    0.12932121821558994861E-02
    0.13173581384491983137E-02
    0.12730353494945488048E-02
    0.12295138748681878806E-02
    0.11818446958126844169E-02
    0.11601870111600308226E-02
    0.11874283572113320494E-02
    0.11742419053160397125E-02
    0.12312010133662639518E-02
    0.12433413268744591615E-02
    0.14281224021206737670E-02
    0.14745744331455474044E-02
    0.15526930998989902939E-02
    0.15806853666724880215E-02
    0.15328386602110992409E-02
    0.15662023128323071964E-02
    0.15077476483377491925E-02
    0.14479931166157279914E-02
    0.13819477847131621945E-02
    0.13500800222136749400E-02
    0.13867012793149959948E-02
    0.13640860995335450656E-02
    0.14480597927431827516E-02
    0.14656156507268367547E-02
    0.13481605657169096722E-02
    0.13695663161756731121E-02
    0.14429001510503850891E-02
    0.14514688056469194320E-02
    0.13874718781810356331E-02
    0.13906263793423698574E-02
    0.13251276800003157670E-02
    0.12943072045060856432E-02
    0.12344615508380267326E-02
    0.12246173133011063056E-02
    0.12753951394447696644E-02
    0.12807922822173154875E-02
    0.13254706153271623038E-02
    0.13308767088060003726E-02
    0.15765900277764739387E-02
    0.16123757900147459889E-02
    0.17091711395290198460E-02
    0.17243333346440229813E-02
    0.16446778943162705493E-02
    0.16534028817810529025E-02
    0.15695317252861385338E-02
    0.15243805036712220098E-02
    0.14435099054096189614E-02
    0.14251169162978879687E-02
    0.14895291298434132181E-02
    0.14879840458733428060E-02
    0.15590423142425014445E-02
    0.15689026072941566429E-02
    0.13173581385137280754E-02
    0.12932121821992020871E-02
    0.13306572344745745858E-02
    0.13109130424513698154E-02
    0.12526207809533077431E-02
    0.12213184392823486606E-02
    0.11742419052922661946E-02
    0.11874283572397791291E-02
    0.11601870112288058864E-02
    0.11818446958867911533E-02
    0.12295138749517737966E-02
    0.12730353496291223637E-02
    0.12433413269227816186E-02
    0.12312010134020545497E-02
    0.13906263793234594200E-02
    0.13874718781755515217E-02
    0.14514688056548067860E-02
    0.14429001510754765631E-02
    0.13695663161779976415E-02
    0.13481605657055838795E-02
    0.12807922821737795661E-02
    0.12753951394255296295E-02
    0.12246173132916427385E-02
    0.12344615508303514485E-02
    0.12943072045008023260E-02
    0.13251276799989921730E-02
    0.13308767087995346245E-02
    0.13254706153197940658E-02
    0.15662023131193557931E-02
    0.15328386604412671222E-02
    0.15806853669024546749E-02
    0.15526931000862677877E-02
    0.14745744332819220399E-02
    0.14281224021862424112E-02
    0.13640860995495491907E-02
    0.13867012794041978611E-02
    0.13500800223061658421E-02
    0.13819477848476802422E-02
    0.14479931168231386859E-02
    0.15077476486549891335E-02
    0.14656156509080331754E-02
    0.14480597928932443554E-02
    0.16534028819860059276E-02
    0.16446778945029580203E-02
    0.17243333348721740297E-02
    0.17091711397439811413E-02
    0.16123757901479534530E-02
    0.15765900278442927362E-02
    0.14879840458746249835E-02
    0.14895291298907195610E-02
    0.14251169163184665596E-02
    0.14435099054711565420E-02
    0.15243805037936581422E-02
    0.15695317254644154149E-02
    0.15689026074259028194E-02
    0.15590423143553603855E-02
    0.15607204797810812161E-02
    0.15756838335420310024E-02
    0.16673911234045804466E-02
    0.16673911234037278300E-02
    0.15756838335403522237E-02
    0.15607204797793020404E-02
    0.14711923650875553121E-02
    0.14495018157811337921E-02
    0.13742646195865557135E-02
    0.13742646195846214968E-02
    0.14495018157956601496E-02
    0.14711923651339580809E-02
    0.15089113872947639006E-02
    0.15089113872923842936E-02
    0.18253844368444414707E-02
    0.18552506107522544546E-02
    0.19753173229351732657E-02
    0.19810699481166652719E-02
    0.18679846620879784602E-02
    0.18558288461846313838E-02
    0.17427019360835311473E-02
    0.17073362420151482095E-02
    0.16071369741683704316E-02
    0.15994207631768655054E-02
    0.16930529296039858143E-02
    0.17093804414134222344E-02
    0.17750048113793256543E-02
    0.17789714584162113088E-02
    0.18558288464234284302E-02
    0.18679846622929950194E-02
    0.19810699483495076631E-02
    0.19753173231330909028E-02
    0.18552506108888428948E-02
    0.18253844369271454966E-02
    0.17093804414151324549E-02
    0.16930529296612011145E-02
    0.15994207632131296828E-02
    0.16071369742417997584E-02
    0.17073362421666650295E-02
    0.17427019363226449976E-02
    0.17789714585656533994E-02
    0.17750048115048675922E-02
    0.21707935482896041114E-02
    0.21996737695728491024E-02
    0.23471952386981439868E-02
    0.23471952386622013838E-02
    0.21996737695024201967E-02
    0.21707935481266541627E-02
    0.20250870709044707305E-02
    0.19944492937820548079E-02
    0.18706650953982319370E-02
    0.18706650954397447371E-02
    0.19944492938653445198E-02
    0.20250870711029773062E-02
    0.20929400398420954996E-02
    0.20929400398195180735E-02
    0.17055664728283855425E-02
    0.17653928652775121438E-02
    0.18625203352711588133E-02
    0.18973390159891751015E-02
    0.18389295779748383430E-02
    0.18801715544704200242E-02
    0.18085094847300458437E-02
    0.17337996937682609994E-02
    0.16504045138488469997E-02
    0.16090397853605589631E-02
    0.16551478909534354193E-02
    0.16244737324936711631E-02
    0.17331269126517070099E-02
    0.17554749239094493037E-02
    0.20483558788300195753E-02
    0.21192562861040717750E-02
    0.22338879366234519128E-02
    0.22737764113636327497E-02
    0.22050034174598345804E-02
    0.22524148426522499523E-02
    0.21690006781013241449E-02
    0.20811937145003129267E-02
    0.19820915991165732536E-02
    0.19322651605238772444E-02
    0.19876798422262327744E-02
    0.19506223227451931473E-02
    0.20807369827131488339E-02
    0.21070608900678917952E-02
    0.18830467239688297460E-02
    0.19305229986831824295E-02
    0.20503888917377931927E-02
    0.20699158920168487033E-02
    0.19732277857280626152E-02
    0.19849524732863531480E-02
    0.18827145561188601223E-02
    0.18253558893017714053E-02
    0.17239727472681254643E-02
    0.16985477330453990254E-02
    0.17779971209162823229E-02
    0.17721656716045979148E-02
    0.18660823732287333196E-02
    0.18793063751853431552E-02
    0.22616856971164351481E-02
    0.23176453183198423950E-02
    0.24593928654129933523E-02
    0.24807555358013519235E-02
    0.23661690051407263842E-02
    0.23780445810777941194E-02
    0.22580984154666910481E-02
    0.21911916580776183254E-02
    0.20704989782486206071E-02
    0.20398423831356543232E-02
    0.21353339720935108313E-02
    0.21281204408242198473E-02
    0.22404922763543467026E-02
    0.22558181681268190365E-02
    0.24485884190879898120E-02
    0.25276377849925008023E-02
    0.26574362388020696980E-02
    0.27002600933225483736E-02
    0.26217646716921788261E-02
    0.26732161216562102396E-02
    0.25801301794394992072E-02
    0.24817756410223145228E-02
    0.23693612534855029370E-02
    0.23125056202601950578E-02
    0.23766812506089453338E-02
    0.23352826440235533931E-02
    0.24825664033761006035E-02
    0.25118219284349647784E-02
    0.28952870455936324627E-02
    0.29788850835191747757E-02
    0.31205866198938015006E-02
    0.31638292662026445100E-02
    0.30767537146565754509E-02
    0.31296842302607394935E-02
    0.30296795553122622853E-02
    0.29240793791377611179E-02
    0.28015873206147568798E-02
    0.27395837261310939173E-02
    0.28115452481078926673E-02
    0.27682461231180481229E-02
    0.29272125221718758338E-02
    0.29581105297623879434E-02
    0.27037865799430112722E-02
    0.27644236614791590015E-02
    0.29258871486000639570E-02
    0.29462375926582150265E-02
    0.28135333429072963141E-02
    0.28224271905331402288E-02
    0.26862226753112199672E-02
    0.26130481211217712265E-02
    0.24751021195753568523E-02
    0.24413494772155116749E-02
    0.25533617648611593026E-02
    0.25479429835238149964E-02
    0.26733144283632992444E-02
    0.26892878047020413873E-02
    0.31972419052078244681E-02
    0.32581294876939353826E-02
    0.34360426276349633617E-02
    0.34522409869448917805E-02
    0.33019648732682343149E-02
    0.33045023802109867866E-02
    0.31543745166993861218E-02
    0.30788615018982126714E-02
    0.29266880982770260462E-02
    0.28923315427309042105E-02
    0.30206949209470351954E-02
    0.30205053360272933818E-02
    0.31522824009736914903E-02
    0.31672570110662066900E-02
    0.21804498821896261401E-02
    0.22215590655154603648E-02
    0.23699168473568935425E-02
    0.23783471091157648743E-02
    0.22413660920751385906E-02
    0.22281734491321758540E-02
    0.20906194989316704419E-02
    0.20446302896672558652E-02
    0.19195683096187268930E-02
    0.19064822829398266578E-02
    0.20211498438952426107E-02
    0.20360749536122019210E-02
    0.21247976280472620839E-02
    0.21311524209078735320E-02
    0.26191461901889923070E-02
    0.26672865518434854537E-02
    0.28429133299186287384E-02
    0.28506516246580406240E-02
    0.26879325946546658681E-02
    0.26696407580956388154E-02
    0.25076431356427218190E-02
    0.24546177254902200662E-02
    0.23056012007113503223E-02
    0.22897615556020274596E-02
    0.24275793834716663348E-02
    0.24452803013974983015E-02
    0.25513459571597446943E-02
    0.25583449968625605365E-02
    0.25933292911652946859E-02
    0.26342661179579664361E-02
    0.28163644606598757167E-02
    0.28181732042375216320E-02
    0.26396294552866006282E-02
    0.26065984119280948342E-02
    0.24296364571384618421E-02
    0.23887272192637692449E-02
    0.22345783047443513666E-02
    0.22300566825615960112E-02
    0.23812235229853295423E-02
    0.24123937028283043253E-02
    0.25056607293486060813E-02
    0.25075488820761821299E-02
    0.31153723315570118133E-02
    0.31630700880099452826E-02
    0.33787334374863744677E-02
    0.33780892026564557709E-02
    0.31658150575590081159E-02
    0.31233063974632937869E-02
    0.29145415333816362610E-02
    0.28679785305082985090E-02
    0.26842220554349075293E-02
    0.26786541143748797238E-02
    0.28603321524700952953E-02
    0.28975089565661726540E-02
    0.30089387404206090031E-02
    0.30104613621977343446E-02
    0.31313779877234124670E-02
    0.31817144499893552229E-02
    0.33824145844046685748E-02
    0.33857977859029896733E-02
    0.31963705577097104721E-02
    0.31687331969631159223E-02
    0.29832755238400083392E-02
    0.29274032313316667928E-02
    0.27563475261040506527E-02
    0.27406739595171561615E-02
    0.29030487752297324915E-02
    0.29279154862973159022E-02
    0.30444559188025003930E-02
    0.30501793387456483699E-02
    0.37031404529682537818E-02
    0.37502152403067518134E-02
    0.39724630352730889993E-02
    0.39675902194492010042E-02
    0.37515339819384559313E-02
    0.37102124945910031940E-02
    0.35034198249009884663E-02
    0.34494911357588770723E-02
    0.32594674885006117565E-02
    0.32471792358928809608E-02
    0.34346292321124727125E-02
    0.34712068949830023230E-02
    0.35901787724870906464E-02
    0.35925471831556744090E-02
    0.37249090083591764044E-02
    0.37733740187314880610E-02
    0.40201705277996841598E-02
    0.40125092556644358435E-02
    0.37649121881279238623E-02
    0.37074769708737272469E-02
    0.34676102157454227054E-02
    0.34206462163732000159E-02
    0.32092512736703409336E-02
    0.32064150375812456271E-02
    0.34208247829089909360E-02
    0.34696674539126180596E-02
    0.35907533340311290591E-02
    0.35894784167099756667E-02
    0.44052919934847627539E-02
    0.44478509744118434679E-02
    0.47217381335550286450E-02
    0.47022759079222336068E-02
    0.44191126305410067740E-02
    0.43413182113985464977E-02
    0.40724868975600854448E-02
    0.40309841177692288736E-02
    0.37953160242720981876E-02
    0.37992670201376648083E-02
    0.40474815445758422286E-02
    0.41137414741228102086E-02
    0.42346738373227619037E-02
    0.42280212377803442353E-02
    0.18801715552210066830E-02
    0.18389295786288809183E-02
    0.18973390166691511422E-02
    0.18625203358726945616E-02
    0.17653928657656641973E-02
    0.17055664731878013816E-02
    0.16244737327537098984E-02
    0.16551478913265928704E-02
    0.16090397857113512749E-02
    0.16504045142782944929E-02
    0.17337996943345053164E-02
    0.18085094854690458507E-02
    0.17554749244557716226E-02
    0.17331269131453078298E-02
    0.19849524739554993101E-02
    0.19732277863446713757E-02
    0.20699158927072530342E-02
    0.20503888923823986555E-02
    0.19305229991793371961E-02
    0.18830467243423911709E-02
    0.17721656718590391311E-02
    0.17779971212532512739E-02
    0.16985477333260117980E-02
    0.17239727476245788294E-02
    0.18253558897826534495E-02
    0.18827145567121192880E-02
    0.18793063756870414475E-02
    0.18660823736916063321E-02
    0.22524148441322821949E-02
    0.22050034187994895299E-02
    0.22737764127585260651E-02
    0.22338879379003454342E-02
    0.21192562871979905674E-02
    0.20483558797309551515E-02
    0.19506223234912931606E-02
    0.19876798431299252598E-02
    0.19322651613772770605E-02
    0.19820916000888848946E-02
    0.20811937156799795341E-02
    0.21690006795233736890E-02
    0.21070608912346104266E-02
    0.20807369838032429947E-02
    0.23780445824785234783E-02
    0.23661690064512882863E-02
    0.24807555372222452744E-02
    0.24593928667523442914E-02
    0.23176453194365016774E-02
    0.22616856980478662956E-02
    0.21281204415772312158E-02
    0.21353339729686315537E-02
    0.20398423839206752430E-02
    0.20704989791479771512E-02
    0.21911916591723082023E-02
    0.22580984167363637831E-02
    0.22558181692557211298E-02
    0.22404922774225230660E-02
    0.22281734498549787479E-02
    0.22413660927291926585E-02
    0.23783471098311379475E-02
    0.23699168480026712447E-02
    0.22215590660323264287E-02
    0.21804498825949611938E-02
    0.20360749538809626291E-02
    0.20211498442569511037E-02
    0.19064822832496979271E-02
    0.19195683100004545286E-02
    0.20446302901938307427E-02
    0.20906194996050046601E-02
    0.21311524214445553421E-02
    0.21247976285395809432E-02
    0.26065984125930390623E-02
    0.26396294558197063058E-02
    0.28181732047674822560E-02
    0.28163644610799641599E-02
    0.26342661182749442170E-02
    0.25933292913276929925E-02
    0.24123937029005941557E-02
    0.23812235232147475894E-02
    0.22300566828041389761E-02
    0.22345783051084359971E-02
    0.23887272197363976917E-02
    0.24296364577882376481E-02
    0.25075488824977810835E-02
    0.25056607297027381695E-02
    0.26696407595743791227E-02
    0.26879325960270108141E-02
    0.28506516261292890943E-02
    0.28429133312830945704E-02
    0.26672865530048615705E-02
    0.26191461911771376364E-02
    0.24452803021869306231E-02
    0.24275793843932537940E-02
    0.22897615564361319465E-02
    0.23056012016545940693E-02
    0.24546177266524882646E-02
    0.25076431370163127302E-02
    0.25583449980495663253E-02
    0.25513459582804159584E-02
    0.31233063989071891374E-02
    0.31658150588297208176E-02
    0.33780892039587209243E-02
    0.33787334386388922190E-02
    0.31630700889854947849E-02
    0.31153723323128915471E-02
    0.28975089571720027103E-02
    0.28603321532759740965E-02
    0.26786541151608794613E-02
    0.26842220563828914082E-02
    0.28679785316378584963E-02
    0.29145415347544344035E-02
    0.30104613632882799672E-02
    0.30089387414202572839E-02
    0.26732161241589977134E-02
    0.26217646740072605462E-02
    0.27002600957263126272E-02
    0.26574362410443203540E-02
    0.25276377869742705853E-02
    0.24485884208057875910E-02
    0.23352826455246751026E-02
    0.23766812523165693934E-02
    0.23125056218862845119E-02
    0.23693612552749213768E-02
    0.24817756430969986972E-02
    0.25801301818328251959E-02
    0.25118219305049413470E-02
    0.24825664053432059016E-02
    0.28224271929624881843E-02
    0.28135333452046374508E-02
    0.29462375951062459538E-02
    0.29258871509267262573E-02
    0.27644236635012706463E-02
    0.27037865817109716163E-02
    0.25479429850475965313E-02
    0.25533617665503684051E-02
    0.24413494787767259404E-02
    0.24751021212933671349E-02
    0.26130481231140065962E-02
    0.26862226775477573114E-02
    0.26892878067436495892E-02
    0.26733144303199779870E-02
    0.31296842340863286445E-02
    0.30767537182653493209E-02
    0.31638292699588425536E-02
    0.31205866234278213656E-02
    0.29788850867026725119E-02
    0.28952870484339632978E-02
    0.27682461256725897705E-02
    0.28115452509211743930E-02
    0.27395837288269105775E-02
    0.28015873235209074604E-02
    0.29240793824114779190E-02
    0.30296795589786710418E-02
    0.29581105330456322795E-02
    0.29272125253250219808E-02
    0.33045023839775020981E-02
    0.33019648768746853902E-02
    0.34522409907622596432E-02
    0.34360426312738724143E-02
    0.32581294909366938749E-02
    0.31972419081191276111E-02
    0.30205053386228608060E-02
    0.30206949237558725595E-02
    0.28923315453699325293E-02
    0.29266881011195378624E-02
    0.30788615051014277084E-02
    0.31543745202221827595E-02
    0.31672570143358282427E-02
    0.31522824041319685157E-02
    0.31687331994960619974E-02
    0.31963705600944920804E-02
    0.33857977884268739867E-02
    0.33824145867810393763E-02
    0.31817144520824894825E-02
    0.31313779895765173761E-02
    0.29279154878841901974E-02
    0.29030487769909209088E-02
    0.27406739611513480752E-02
    0.27563475278880506837E-02
    0.29274032334161547569E-02
    0.29832755262066265253E-02
    0.30501793408709296576E-02
    0.30444559208374611346E-02
    0.37074769733935436337E-02
    0.37649121904297089269E-02
    0.40125092580336526454E-02
    0.40201705299765114546E-02
    0.37733740206537164964E-02
    0.37249090099929701991E-02
    0.34696674553328981858E-02
    0.34208247845743315445E-02
    0.32064150391907389817E-02
    0.32092512754848612558E-02
    0.34206462184478768178E-02
    0.34676102181342965264E-02