# vtk DataFile Version 3.0
LAPLACIEN  2D
ASCII
DATASET UNSTRUCTURED_GRID
FIELD FieldData 1
TIME 1 1 double
8.1000
 POINTS        7297  float
   1.5625000000000000E-002  0.96875000000000000        0.0000000000000000     
   3.1250000000000000E-002  0.96875000000000000        0.0000000000000000     
   3.1250000000000000E-002  0.98437500000000000        0.0000000000000000     
   9.3749999999999997E-003  0.97812500000000002        0.0000000000000000     
   2.0312500000000001E-002  0.97968750000000004        0.0000000000000000     
   2.1874999999999999E-002  0.99062499999999998        0.0000000000000000     
   1.0937499999999999E-002  0.98906249999999996        0.0000000000000000     
   4.6875000000000000E-002  0.96875000000000000        0.0000000000000000     
   6.2500000000000000E-002  0.96875000000000000        0.0000000000000000     
   6.2500000000000000E-002  0.98437500000000000        0.0000000000000000     
   4.0625000000000001E-002  0.97812500000000002        0.0000000000000000     
   5.1562499999999997E-002  0.97968750000000004        0.0000000000000000     
   5.3124999999999999E-002  0.99062499999999998        0.0000000000000000     
   4.2187500000000003E-002  0.98906249999999996        0.0000000000000000     
   1.5625000000000000E-002  0.93750000000000000        0.0000000000000000     
   3.1250000000000000E-002  0.93750000000000000        0.0000000000000000     
   3.1250000000000000E-002  0.95312500000000000        0.0000000000000000     
   9.3749999999999997E-003  0.94687500000000002        0.0000000000000000     
   2.0312500000000001E-002  0.94843750000000004        0.0000000000000000     
   2.1874999999999999E-002  0.95937499999999998        0.0000000000000000     
   1.0937499999999999E-002  0.95781249999999996        0.0000000000000000     
   4.6875000000000000E-002  0.93750000000000000        0.0000000000000000     
   6.2500000000000000E-002  0.93750000000000000        0.0000000000000000     
   6.2500000000000000E-002  0.95312500000000000        0.0000000000000000     
   4.0625000000000001E-002  0.94687500000000002        0.0000000000000000     
   5.1562499999999997E-002  0.94843750000000004        0.0000000000000000     
   5.3124999999999999E-002  0.95937499999999998        0.0000000000000000     
   4.2187500000000003E-002  0.95781249999999996        0.0000000000000000     
   7.8125000000000000E-002  0.96875000000000000        0.0000000000000000     
   9.3750000000000000E-002  0.96875000000000000        0.0000000000000000     
   9.3750000000000000E-002  0.98437500000000000        0.0000000000000000     
   7.1874999999999994E-002  0.97812500000000002        0.0000000000000000     
   8.2812499999999997E-002  0.97968750000000004        0.0000000000000000     
   8.4375000000000006E-002  0.99062499999999998        0.0000000000000000     
   7.3437500000000003E-002  0.98906249999999996        0.0000000000000000     
  0.10937500000000000       0.96875000000000000        0.0000000000000000     
  0.12500000000000000       0.96875000000000000        0.0000000000000000     
  0.12500000000000000       0.98437500000000000        0.0000000000000000     
  0.10312499999999999       0.97812500000000002        0.0000000000000000     
  0.11406250000000000       0.97968750000000004        0.0000000000000000     
  0.11562500000000001       0.99062499999999998        0.0000000000000000     
  0.10468750000000000       0.98906249999999996        0.0000000000000000     
   7.8125000000000000E-002  0.93750000000000000        0.0000000000000000     
   9.3750000000000000E-002  0.93750000000000000        0.0000000000000000     
   9.3750000000000000E-002  0.95312500000000000        0.0000000000000000     
   7.1874999999999994E-002  0.94687500000000002        0.0000000000000000     
   8.2812499999999997E-002  0.94843750000000004        0.0000000000000000     
   8.4375000000000006E-002  0.95937499999999998        0.0000000000000000     
   7.3437500000000003E-002  0.95781249999999996        0.0000000000000000     
  0.10937500000000000       0.93750000000000000        0.0000000000000000     
  0.12500000000000000       0.93750000000000000        0.0000000000000000     
  0.12500000000000000       0.95312500000000000        0.0000000000000000     
  0.10312499999999999       0.94687500000000002        0.0000000000000000     
  0.11406250000000000       0.94843750000000004        0.0000000000000000     
  0.11562500000000001       0.95937499999999998        0.0000000000000000     
  0.10468750000000000       0.95781249999999996        0.0000000000000000     
   1.5625000000000000E-002  0.90625000000000000        0.0000000000000000     
   3.1250000000000000E-002  0.90625000000000000        0.0000000000000000     
   3.1250000000000000E-002  0.92187500000000000        0.0000000000000000     
   9.3749999999999997E-003  0.91562500000000002        0.0000000000000000     
   2.0312500000000001E-002  0.91718750000000004        0.0000000000000000     
   2.1874999999999999E-002  0.92812499999999998        0.0000000000000000     
   1.0937499999999999E-002  0.92656249999999996        0.0000000000000000     
   4.6875000000000000E-002  0.90625000000000000        0.0000000000000000     
   6.2500000000000000E-002  0.90625000000000000        0.0000000000000000     
   6.2500000000000000E-002  0.92187500000000000        0.0000000000000000     
   4.0625000000000001E-002  0.91562500000000002        0.0000000000000000     
   5.1562499999999997E-002  0.91718750000000004        0.0000000000000000     
   5.3124999999999999E-002  0.92812499999999998        0.0000000000000000     
   4.2187500000000003E-002  0.92656249999999996        0.0000000000000000     
   1.5625000000000000E-002  0.87500000000000000        0.0000000000000000     
   3.1250000000000000E-002  0.87500000000000000        0.0000000000000000     
   3.1250000000000000E-002  0.89062500000000000        0.0000000000000000     
   9.3749999999999997E-003  0.88437500000000002        0.0000000000000000     
   2.0312500000000001E-002  0.88593750000000004        0.0000000000000000     
   2.1874999999999999E-002  0.89687499999999998        0.0000000000000000     
   1.0937499999999999E-002  0.89531249999999996        0.0000000000000000     
   4.6875000000000000E-002  0.87500000000000000        0.0000000000000000     
   6.2500000000000000E-002  0.87500000000000000        0.0000000000000000     
   6.2500000000000000E-002  0.89062500000000000        0.0000000000000000     
   4.0625000000000001E-002  0.88437500000000002        0.0000000000000000     
   5.1562499999999997E-002  0.88593750000000004        0.0000000000000000     
   5.3124999999999999E-002  0.89687499999999998        0.0000000000000000     
   4.2187500000000003E-002  0.89531249999999996        0.0000000000000000     
   7.8125000000000000E-002  0.90625000000000000        0.0000000000000000     
   9.3750000000000000E-002  0.90625000000000000        0.0000000000000000     
   9.3750000000000000E-002  0.92187500000000000        0.0000000000000000     
   7.1874999999999994E-002  0.91562500000000002        0.0000000000000000     
   8.2812499999999997E-002  0.91718750000000004        0.0000000000000000     
   8.4375000000000006E-002  0.92812499999999998        0.0000000000000000     
   7.3437500000000003E-002  0.92656249999999996        0.0000000000000000     
  0.10937500000000000       0.90625000000000000        0.0000000000000000     
  0.12500000000000000       0.90625000000000000        0.0000000000000000     
  0.12500000000000000       0.92187500000000000        0.0000000000000000     
  0.10312499999999999       0.91562500000000002        0.0000000000000000     
  0.11406250000000000       0.91718750000000004        0.0000000000000000     
  0.11562500000000001       0.92812499999999998        0.0000000000000000     
  0.10468750000000000       0.92656249999999996        0.0000000000000000     
   7.8125000000000000E-002  0.87500000000000000        0.0000000000000000     
   9.3750000000000000E-002  0.87500000000000000        0.0000000000000000     
   9.3750000000000000E-002  0.89062500000000000        0.0000000000000000     
   7.1874999999999994E-002  0.88437500000000002        0.0000000000000000     
   8.2812499999999997E-002  0.88593750000000004        0.0000000000000000     
   8.4375000000000006E-002  0.89687499999999998        0.0000000000000000     
   7.3437500000000003E-002  0.89531249999999996        0.0000000000000000     
  0.10937500000000000       0.87500000000000000        0.0000000000000000     
  0.12500000000000000       0.87500000000000000        0.0000000000000000     
  0.12500000000000000       0.89062500000000000        0.0000000000000000     
  0.10312499999999999       0.88437500000000002        0.0000000000000000     
  0.11406250000000000       0.88593750000000004        0.0000000000000000     
  0.11562500000000001       0.89687499999999998        0.0000000000000000     
  0.10468750000000000       0.89531249999999996        0.0000000000000000     
  0.14062500000000000       0.96875000000000000        0.0000000000000000     
  0.15625000000000000       0.96875000000000000        0.0000000000000000     
  0.15625000000000000       0.98437500000000000        0.0000000000000000     
  0.13437499999999999       0.97812500000000002        0.0000000000000000     
  0.14531250000000001       0.97968750000000004        0.0000000000000000     
  0.14687500000000001       0.99062499999999998        0.0000000000000000     
  0.13593749999999999       0.98906249999999996        0.0000000000000000     
  0.17187500000000000       0.96875000000000000        0.0000000000000000     
  0.18750000000000000       0.96875000000000000        0.0000000000000000     
  0.18750000000000000       0.98437500000000000        0.0000000000000000     
  0.16562499999999999       0.97812500000000002        0.0000000000000000     
  0.17656250000000001       0.97968750000000004        0.0000000000000000     
[...]
 CELL_DATA       14336
 SCALARS Tumor_cells float
 LOOKUP_TABLE default
    0.23020911519159591857E-01
    0.23020911316946137543E-01
    0.23020912853190911296E-01
    0.23020912853189780256E-01
    0.23020911316945141811E-01
    0.23020911519155647096E-01
    0.23020910296869798173E-01
    0.23020909576030191418E-01
    0.23020908797384373456E-01
    0.23020908797381372385E-01
    0.23020909576032762278E-01
    0.23020910296871414935E-01
    0.23020910183540240629E-01
    0.23020910183539355920E-01
    0.23020916553383563574E-01
    0.23020917895310275686E-01
    0.23020921531310828412E-01
    0.23020922539137428364E-01
    0.23020919817613075264E-01
    0.23020921129762901558E-01
    0.23020918269800880879E-01
    0.23020915886809295570E-01
    0.23020913372467696062E-01
    0.23020912464808293563E-01
    0.23020914036563620148E-01
    0.23020913839188115319E-01
    0.23020916296062635120E-01
    0.23020916838558072581E-01
    0.23020921129778271208E-01
    0.23020919817625024040E-01
    0.23020922539149932251E-01
    0.23020921531319932241E-01
    0.23020917895316985596E-01
    0.23020916553386033820E-01
    0.23020913839190703526E-01
    0.23020914036568192879E-01
    0.23020912464813435283E-01
    0.23020913372473618408E-01
    0.23020915886818656138E-01
    0.23020918269813304968E-01
    0.23020916838567044571E-01
    0.23020916296070070145E-01
    0.23020927842653009926E-01
    0.23020928420553584542E-01
    0.23020934074575394312E-01
    0.23020934074573222439E-01
    0.23020928420549636312E-01
    0.23020927842643888750E-01
    0.23020922819806846626E-01
    0.23020921383325513437E-01
    0.23020917639122284726E-01
    0.23020917639123592707E-01
    0.23020921383328923904E-01
    0.23020922819814795129E-01
    0.23020924465901780598E-01
    0.23020924465900666905E-01
    0.23020929972495170202E-01
    0.23020933583893819080E-01
    0.23020940638718765531E-01
    0.23020943270213110876E-01
    0.23020938610071588204E-01
    0.23020941773539613934E-01
    0.23020936199481506490E-01
    0.23020931018350943714E-01
    0.23020925657761207722E-01
    0.23020923384756319247E-01
    0.23020926248546784432E-01
    0.23020924866319986135E-01
    0.23020931122625463289E-01
    0.23020932549652730476E-01
    0.23020956691722587600E-01
    0.23020963936582060361E-01
    0.23020976349598792909E-01
    0.23020981403081973438E-01
    0.23020973579320948982E-01
    0.23020979401748634802E-01
    0.23020969590645076752E-01
    0.23020960246577501507E-01
    0.23020950528058314183E-01
    0.23020946105625328393E-01
    0.23020951097303600508E-01
    0.23020947789092697372E-01
    0.23020960050809492065E-01
    0.23020962802075769366E-01
    0.23020945342509785414E-01
    0.23020948153189578489E-01
    0.23020958036804657632E-01
    0.23020959361416824113E-01
    0.23020950583692426084E-01
    0.23020951101972920994E-01
    0.23020942428767836307E-01
    0.23020938583465367505E-01
    0.23020931469772003969E-01
    0.23020930392588130620E-01
    0.23020936344210034263E-01
    0.23020937005574265005E-01
    0.23020942457019452632E-01
    0.23020943139580696268E-01
    0.23020978390528801238E-01
    0.23020984838773798226E-01
    0.23021001794655552436E-01
    0.23021005316356011466E-01
    0.23020991317432452916E-01
    0.23020993580529294786E-01
    0.23020978999689325345E-01
    0.23020971295625535652E-01
    0.23020958802630754614E-01
    0.23020955962198264705E-01
    0.23020965348270399503E-01
    0.23020964805182207030E-01
    0.23020976337655225247E-01
    0.23020978154906727303E-01
    0.23020941773574773309E-01
    0.23020938610102223421E-01
    0.23020943270244946521E-01
    0.23020940638746292123E-01
    0.23020933583916564774E-01
    0.23020929972512101103E-01
    0.23020924866334866593E-01
    0.23020926248565599243E-01
    0.23020923384774117509E-01
    0.23020925657781743379E-01
    0.23020931018376451088E-01
    0.23020936199512283954E-01
    0.23020932549678269075E-01
    0.23020931122648805728E-01
    0.23020951102002008837E-01
    0.23020950583714894222E-01
    0.23020959361438626117E-01
    0.23020958036820592801E-01
    0.23020948153201874209E-01
    0.23020945342514791826E-01
    0.23020937005579007739E-01
    0.23020936344220550157E-01
    0.23020930392599819186E-01
    0.23020931469787581786E-01
    0.23020938583485098250E-01
    0.23020942428793985529E-01
    0.23020943139598369631E-01
    0.23020942457034294926E-01
    0.23020979401811577508E-01
    0.23020973579378087304E-01
    0.23020981403141290572E-01
    0.23020976349652392395E-01
    0.23020963936629036672E-01
    0.23020956691761684798E-01
    0.23020947789128307776E-01
    0.23020951097344356101E-01
    0.23020946105664151504E-01
    0.23020950528101158383E-01
    0.23020960246627305418E-01
    0.23020969590702076296E-01
    0.23020962802125847363E-01
    0.23020960050856773688E-01
    0.23020993580586013305E-01
    0.23020991317481538652E-01
    0.23021005316404982710E-01
    0.23021001794697924792E-01
    0.23020984838810144152E-01
    0.23020978390556286197E-01
    0.23020964805207416032E-01
    0.23020965348303012304E-01
    0.23020955962230849751E-01
    0.23020958802668783222E-01
    0.23020971295669465789E-01
    0.23020978999741845833E-01
    0.23020978154949005984E-01
    0.23020976337693951214E-01
    0.23020975373353774057E-01
    0.23020977539158271608E-01
    0.23020992145542068519E-01
    0.23020992145538779483E-01
    0.23020977539151856600E-01
    0.23020975373339132991E-01
    0.23020962042362591582E-01
    0.23020958944100614746E-01
    0.23020948697105341613E-01
    0.23020948697108054720E-01
    0.23020958944106304639E-01
    0.23020962042376313245E-01
    0.23020967398165802231E-01
    0.23020967398164001588E-01
    0.23021020458543622889E-01
    0.23021026880109728141E-01
    0.23021051407370120984E-01
    0.23021053702306962241E-01
    0.23021030882247876803E-01
    0.23021029690681309166E-01
    0.23021007687580134771E-01
    0.23021000554210753475E-01
    0.23020983117935270995E-01
    0.23020981553020718885E-01
    0.23020997110123935653E-01
    0.23020999457383475167E-01
    0.23021012012944725572E-01
    0.23021013102873164741E-01
    0.23021029690723966016E-01
    0.23021030882280673485E-01
    0.23021053702337965219E-01
    0.23021051407392773003E-01
    0.23021026880127647835E-01
    0.23021020458550964238E-01
    0.23020999457390684678E-01
    0.23020997110140078989E-01
    0.23020981553039256140E-01
    0.23020983117960049785E-01
    0.23021000554240864805E-01
    0.23021007687619852999E-01
    0.23021013102899525599E-01
    0.23021012012966877991E-01
    0.23021095409827833228E-01
    0.23021101477101003213E-01
    0.23021138376192643027E-01
    0.23021138376188184788E-01
    0.23021101477092208165E-01
    0.23021095409807693088E-01
    0.23021061857645078869E-01
    0.23021054626366603546E-01
    0.23021029004293664527E-01
    0.23021029004297671738E-01
    0.23021054626374635316E-01
    0.23021061857664438383E-01
    0.23021076041058675249E-01
    0.23021076041056208472E-01
    0.23021004466378114373E-01
    0.23021017445056721901E-01
    0.23021038877951018053E-01
    0.23021047892335982227E-01
    0.23021034574065683126E-01
    0.23021044813895837067E-01
    0.23021027938067380181E-01
    0.23021011667155578256E-01
    0.23020994815411463530E-01
    0.23020987012870069294E-01
    0.23020995489157591862E-01
    0.23020989356073540827E-01
    0.23021011040457263486E-01
    0.23021015916264802453E-01
    0.23021087851469276137E-01
    0.23021110468976060254E-01
    0.23021147666315282948E-01
    0.23021163178393692916E-01
    0.23021139979039439288E-01
    0.23021157352389295253E-01
    0.23021128383679999307E-01
    0.23021100459813124278E-01
    0.23021071410343207919E-01
    0.23021057952427634308E-01
    0.23021072508059750583E-01
    0.23021061736977679185E-01
    0.23021099404710445441E-01
    0.23021107821399100501E-01
    0.23021037714601445129E-01
    0.23021050311894272061E-01
    0.23021079661979734765E-01
    0.23021086887392815112E-01
    0.23021063417117588329E-01
    0.23021068272205305605E-01
    0.23021043208626214976E-01
    0.23021029286770577915E-01
    0.23021007739657355778E-01
    0.23021002179937754412E-01
    0.23021017480200418881E-01
    0.23021015024288507544E-01
    0.23021036741068704595E-01
    0.23021040386774913739E-01
    0.23021143037814315035E-01
    0.23021166242272309010E-01
    0.23021217690397336592E-01
    0.23021230970775213853E-01
    0.23021190136159934425E-01
    0.23021198779244723964E-01
    0.23021155208452104279E-01
    0.23021130788910926929E-01
    0.23021093381902391073E-01
    0.23021083350685141861E-01
    0.23021109407682666809E-01
    0.23021104060460349100E-01
    0.23021143150735091931E-01
    0.23021149776517771390E-01
    0.23021232260696473937E-01
    0.23021270623301216124E-01
    0.23021334501916262960E-01
    0.23021359943008929544E-01
    0.23021319550256259118E-01
    0.23021347865999654964E-01
    0.23021298964798472819E-01
    0.23021252011773758045E-01
    0.23021202711266064433E-01
    0.23021179845422207189E-01
    0.23021205049582379315E-01
    0.23021187006585248219E-01
    0.23021250960285882109E-01
    0.23021265002395003424E-01
    0.23021478420663460396E-01
    0.23021540734312721799E-01
    0.23021648694227708765E-01
    0.23021687888580975173E-01
    0.23021617928025012167E-01
    0.23021661570612837050E-01
    0.23021581351569397889E-01
    0.23021504833472247742E-01
    0.23021423061841423535E-01
    0.23021385440576715847E-01
    0.23021428775025956637E-01
    0.23021400197657356651E-01
    0.23021505399236072420E-01
    0.23021527842762457006E-01
    0.23021329981446417290E-01
    0.23021370962768059054E-01
    0.23021462055635408955E-01
    0.23021484584468055595E-01
    0.23021411438650943998E-01
    0.23021424402008574400E-01
    0.23021348323219930493E-01
    0.23021307105214695865E-01
    0.23021242115786648419E-01
    0.23021225001377737529E-01
    0.23021270711009195892E-01
    0.23021261294057633606E-01
    0.23021329831090477785E-01
    0.23021341088974581895E-01
    0.23021660245896732877E-01
    0.23021729290849828053E-01
    0.23021890076522385365E-01
    0.23021924486943182858E-01
    0.23021791982926701620E-01
    0.23021806906789260561E-01
    0.23021674813967295259E-01
    0.23021608627016951210E-01
    0.23021496811928013337E-01
    0.23021469362681071941E-01
    0.23021551144068414657E-01
    0.23021537653608200452E-01
    0.23021653516458854410E-01
    0.23021671115716669381E-01
    0.23021100909968221504E-01
    0.23021114813802159849E-01
    0.23021156687618369446E-01
    0.23021163142893177195E-01
    0.23021125828082033421E-01
    0.23021126368017202912E-01
    0.23021088964213842765E-01
    0.23021074818480136842E-01
    0.23021044897778585037E-01
    0.23021040719835742655E-01
    0.23021065566711598066E-01
    0.23021066710995820997E-01
    0.23021091649607135915E-01
    0.23021094611219303228E-01
    0.23021244227724300957E-01
    0.23021272008305705692E-01
    0.23021345701767084030E-01
    0.23021359928403425238E-01
    0.23021295814821332582E-01
    0.23021298988301273220E-01
    0.23021233506693820903E-01
    0.23021207181695053229E-01
    0.23021154758201965024E-01
    0.23021146022108019552E-01
    0.23021187580914138221E-01
    0.23021186372321724573E-01
    0.23021233918478538338E-01
    0.23021240271556542983E-01
    0.23021209225084646177E-01
    0.23021224601745767652E-01
    0.23021285654517754937E-01
    0.23021290697675295817E-01
    0.23021232872674178560E-01
    0.23021228191292257559E-01
    0.23021172592641938465E-01
    0.23021156632130515551E-01
    0.23021113468449042744E-01
    0.23021110555278143789E-01
    0.23021149982215036167E-01
    0.23021156604550147007E-01
    0.23021186819315930111E-01
    0.23021189002001209156E-01
    0.23021408469877473885E-01
    0.23021442662679674623E-01
    0.23021547841818538332E-01
    0.23021564102363212961E-01
    0.23021468662363361868E-01
    0.23021467764231577646E-01
    0.23021371503052265317E-01
    0.23021338823438285137E-01
    0.23021263826843513939E-01
    0.23021255219693767535E-01
    0.23021318647635607285E-01
    0.23021322870570109370E-01
    0.23021383634006731961E-01
    0.23021390391820800714E-01
    0.23021503799261905376E-01
    0.23021556863269371229E-01
    0.23021689805146940133E-01
    0.23021717194878901780E-01
    0.23021602125759196844E-01
    0.23021607785589547762E-01
    0.23021490635067053121E-01
    0.23021443686907571563E-01
    0.23021350471557549405E-01
    0.23021334155966702295E-01
    0.23021406793715972622E-01
    0.23021401949275790283E-01
    0.23021490097548766296E-01
    0.23021502123600851020E-01
    0.23021978612337245379E-01
    0.23022075398563459497E-01
    0.23022318478649567847E-01
    0.23022365420980076683E-01
    0.23022152574648620943E-01
    0.23022155644827273918E-01
    0.23021944096016294656E-01
    0.23021864794025764800E-01
    0.23021698151828594997E-01
    0.23021670536510361466E-01
    0.23021802167988807825E-01
    0.23021793679937552907E-01
    0.23021952446823260724E-01
    0.23021972918555958648E-01
    0.23021769882542418573E-01
    0.23021842118708946145E-01
    0.23022032118930314815E-01
    0.23022070625788013803E-01
    0.23021903002353578949E-01
    0.23021908352670716197E-01
    0.23021734879102955657E-01
    0.23021671424994567812E-01
    0.23021536593056213943E-01
    0.23021517121440134013E-01
    0.23021624990099825991E-01
    0.23021622929674048080E-01
    0.23021743671889256799E-01
    0.23021759387377650069E-01
    0.23022446604114107926E-01
    0.23022591304461197809E-01
    0.23022946084617131740E-01
    0.23023024080190367807E-01
    0.23022713431721832100E-01
    0.23022723609260387079E-01
    0.23022402594469026926E-01
    0.23022285479127435615E-01
    0.23022037724850671209E-01
    0.23021999578354355315E-01
    0.23022193583430081848E-01
    0.23022180796784013496E-01
    0.23022414472132927965E-01
    0.23022445825775436634E-01
    0.23021044813994164663E-01
    0.23021034574157044073E-01
    0.23021047892430292203E-01
    0.23021038878038638936E-01
    0.23021017445135596308E-01
    0.23021004466447454739E-01
    0.23020989356137541715E-01
    0.23020995489228195108E-01
    0.23020987012937803307E-01
    0.23020994815484405183E-01
    0.23021011667237439857E-01
    0.23021027938158321324E-01
    0.23021015916347239982E-01
    0.23021011040536196873E-01
    0.23021068272297585955E-01
    0.23021063417200851586E-01
    0.23021086887477112265E-01
    0.23021079662055864840E-01
    0.23021050311962724250E-01
    0.23021037714658822843E-01
    0.23021015024342499078E-01
    0.23021017480262709332E-01
    0.23021002179999441178E-01
    0.23021007739725336122E-01
    0.23021029286846666356E-01
    0.23021043208712548694E-01
    0.23021040386849541542E-01
    0.23021036741139151716E-01
    0.23021157352530498275E-01
    0.23021139979172475232E-01
    0.23021163178530548721E-01
    0.23021147666444249230E-01
    0.23021110469094434314E-01
    0.23021087851576225308E-01
    0.23021061737077970488E-01
    0.23021072508167719772E-01
    0.23021057952531939761E-01
    0.23021071410453838174E-01
    0.23021100459934634719E-01
    0.23021128383812327484E-01
    0.23021107821521408915E-01
    0.23021099404828618273E-01
    0.23021198779379810351E-01
    0.23021190136285025335E-01
    0.23021230970901980506E-01
    0.23021217690515186766E-01
    0.23021166242380250444E-01
    0.23021143037909700541E-01
    0.23021104060550360432E-01
    0.23021109407782507084E-01
    0.23021083350783285576E-01
    0.23021093382008188388E-01
    0.23021130789026601760E-01
    0.23021155208579936052E-01
    0.23021149776632356815E-01
    0.23021143150844823599E-01
    0.23021126368095157916E-01
    0.23021125828149316406E-01
    0.23021163142959107095E-01
    0.23021156687675382868E-01
    0.23021114813851981107E-01
    0.23021100910006073170E-01
    0.23021066711031306501E-01
    0.23021065566757755588E-01
    0.23021040719882989584E-01
    0.23021044897833752713E-01
    0.23021074818542253820E-01
    0.23021088964287814843E-01
    0.23021094611278113823E-01
    0.23021091649661037243E-01
    0.23021228191348330760E-01
    0.23021232872717210111E-01
    0.23021290697715336704E-01
    0.23021285654547130745E-01
    0.23021224601769238460E-01
    0.23021209225094402262E-01
    0.23021156604559715741E-01
    0.23021149982236744497E-01
    0.23021110555303453404E-01
    0.23021113468482921893E-01
    0.23021156632170896444E-01
    0.23021172592695079984E-01
    0.23021189002036181181E-01
    0.23021186819345267754E-01
    0.23021298988422516513E-01
    0.23021295814930450158E-01
    0.23021359928512428322E-01
    0.23021345701865623262E-01
    0.23021272008395422121E-01
    0.23021244227799810000E-01
    0.23021186372393837027E-01
    0.23021187580997696381E-01
    0.23021146022192209152E-01
    0.23021154758294710280E-01
    0.23021207181797065378E-01
    0.23021233506809166136E-01
    0.23021240271655446508E-01
    0.23021233918571862992E-01
    0.23021467764330737910E-01
    0.23021468662448692916E-01
    0.23021564102446098049E-01
    0.23021547841890116493E-01
    0.23021442662742922641E-01
    0.23021408469925556950E-01
    0.23021322870615822803E-01
    0.23021318647695125648E-01
    0.23021255219755589611E-01
    0.23021263826915622924E-01
    0.23021338823518502220E-01
    0.23021371503147453064E-01
    0.23021390391896021793E-01
    0.23021383634075676811E-01
    0.23021347866190887410E-01
    0.23021319550438217733E-01
    0.23021359943195447012E-01
    0.23021334502093950686E-01
    0.23021270623466382615E-01
    0.23021232260848550205E-01
    0.23021187006729046387E-01
    0.23021205049735118248E-01
    0.23021179845570432371E-01
    0.23021202711421738518E-01
    0.23021252011942154592E-01
    0.23021298964979466928E-01
    0.23021265002564485908E-01
    0.23021250960450576756E-01
    0.23021424402193891440E-01
    0.23021411438825072071E-01
    0.23021484584644869020E-01
    0.23021462055802129759E-01
    0.23021370962923073944E-01
    0.23021329981586916014E-01
    0.23021261294191533442E-01
    0.23021270711153851013E-01
    0.23021225001519974446E-01
    0.23021242115937458339E-01
    0.23021307105377405988E-01
    0.23021348323396410851E-01
    0.23021341089136466290E-01
    0.23021329831246890862E-01
    0.23021661570861093327E-01
    0.23021617928262919084E-01
    0.23021687888824346468E-01
    0.23021648694461147033E-01
    0.23021540734531831252E-01
    0.23021478420867741432E-01
    0.23021400197851989156E-01
    0.23021428775230591557E-01
    0.23021385440776066800E-01
    0.23021423062049267694E-01
    0.23021504833694653169E-01
    0.23021581351806093968E-01
    0.23021527842986184292E-01
    0.23021505399454429003E-01
    0.23021806907031795719E-01
    0.23021791983157152695E-01
    0.23021924487177301138E-01
    0.23021890076745446518E-01
    0.23021729291059164074E-01
    0.23021660246089922092E-01
    0.23021537653793073402E-01
    0.23021551144265239852E-01
    0.23021469362874504017E-01
    0.23021496812131159865E-01
    0.23021608627233829808E-01
    0.23021674814199612896E-01
    0.23021671115933062257E-01
    0.23021653516669217387E-01
    0.23021607785761247222E-01
    0.23021602125917823428E-01
    0.23021717195038191028E-01
    0.23021689805294984904E-01
    0.23021556863406351934E-01
    0.23021503799383231936E-01
    0.23021401949391669811E-01
    0.23021406793844768901E-01
    0.23021334156094919177E-01
    0.23021350471695751355E-01
    0.23021443687056813293E-01
    0.23021490635231522254E-01
    0.23021502123747355356E-01
    0.23021490097689112364E-01
    0.23021908352821085497E-01
    0.23021903002488769419E-01
    0.23022070625922003845E-01
    0.23022032119051610149E-01
    0.23021842118820037837E-01
    0.23021769882636208132E-01
    0.23021622929764225945E-01
    0.23021624990204662270E-01
    0.23021517121546673790E-01
    0.23021536593173744928E-01
    0.23021671425122531424E-01
    0.23021734879247447714E-01