# vtk DataFile Version 3.0
LAPLACIEN  2D
ASCII
DATASET UNSTRUCTURED_GRID
 POINTS        7297  float
   1.5625000000000000E-002  0.96875000000000000        0.0000000000000000     
   3.1250000000000000E-002  0.96875000000000000        0.0000000000000000     
   3.1250000000000000E-002  0.98437500000000000        0.0000000000000000     
   9.3749999999999997E-003  0.97812500000000002        0.0000000000000000     
   2.0312500000000001E-002  0.97968750000000004        0.0000000000000000     
   2.1874999999999999E-002  0.99062499999999998        0.0000000000000000     
   1.0937499999999999E-002  0.98906249999999996        0.0000000000000000     
   4.6875000000000000E-002  0.96875000000000000        0.0000000000000000     
   6.2500000000000000E-002  0.96875000000000000        0.0000000000000000     
   6.2500000000000000E-002  0.98437500000000000        0.0000000000000000     
   4.0625000000000001E-002  0.97812500000000002        0.0000000000000000     
   5.1562499999999997E-002  0.97968750000000004        0.0000000000000000     
   5.3124999999999999E-002  0.99062499999999998        0.0000000000000000     
   4.2187500000000003E-002  0.98906249999999996        0.0000000000000000     
   1.5625000000000000E-002  0.93750000000000000        0.0000000000000000     
   3.1250000000000000E-002  0.93750000000000000        0.0000000000000000     
   3.1250000000000000E-002  0.95312500000000000        0.0000000000000000     
   9.3749999999999997E-003  0.94687500000000002        0.0000000000000000     
   2.0312500000000001E-002  0.94843750000000004        0.0000000000000000     
   2.1874999999999999E-002  0.95937499999999998        0.0000000000000000     
   1.0937499999999999E-002  0.95781249999999996        0.0000000000000000     
   4.6875000000000000E-002  0.93750000000000000        0.0000000000000000     
   6.2500000000000000E-002  0.93750000000000000        0.0000000000000000     
   6.2500000000000000E-002  0.95312500000000000        0.0000000000000000     
   4.0625000000000001E-002  0.94687500000000002        0.0000000000000000     
   5.1562499999999997E-002  0.94843750000000004        0.0000000000000000     
   5.3124999999999999E-002  0.95937499999999998        0.0000000000000000     
   4.2187500000000003E-002  0.95781249999999996        0.0000000000000000     
   7.8125000000000000E-002  0.96875000000000000        0.0000000000000000     
   9.3750000000000000E-002  0.96875000000000000        0.0000000000000000     
   9.3750000000000000E-002  0.98437500000000000        0.0000000000000000     
   7.1874999999999994E-002  0.97812500000000002        0.0000000000000000     
   8.2812499999999997E-002  0.97968750000000004        0.0000000000000000     
   8.4375000000000006E-002  0.99062499999999998        0.0000000000000000     
   7.3437500000000003E-002  0.98906249999999996        0.0000000000000000     
  0.10937500000000000       0.96875000000000000        0.0000000000000000     
  0.12500000000000000       0.96875000000000000        0.0000000000000000     
  0.12500000000000000       0.98437500000000000        0.0000000000000000     
  0.10312499999999999       0.97812500000000002        0.0000000000000000     
  0.11406250000000000       0.97968750000000004        0.0000000000000000     
  0.11562500000000001       0.99062499999999998        0.0000000000000000     
  0.10468750000000000       0.98906249999999996        0.0000000000000000     
   7.8125000000000000E-002  0.93750000000000000        0.0000000000000000     
   9.3750000000000000E-002  0.93750000000000000        0.0000000000000000     
   9.3750000000000000E-002  0.95312500000000000        0.0000000000000000     
   7.1874999999999994E-002  0.94687500000000002        0.0000000000000000     
   8.2812499999999997E-002  0.94843750000000004        0.0000000000000000     
   8.4375000000000006E-002  0.95937499999999998        0.0000000000000000     
   7.3437500000000003E-002  0.95781249999999996        0.0000000000000000     
  0.10937500000000000       0.93750000000000000        0.0000000000000000     
  0.12500000000000000       0.93750000000000000        0.0000000000000000     
  0.12500000000000000       0.95312500000000000        0.0000000000000000     
  0.10312499999999999       0.94687500000000002        0.0000000000000000     
  0.11406250000000000       0.94843750000000004        0.0000000000000000     
  0.11562500000000001       0.95937499999999998        0.0000000000000000     
  0.10468750000000000       0.95781249999999996        0.0000000000000000     
   1.5625000000000000E-002  0.90625000000000000        0.0000000000000000     
   3.1250000000000000E-002  0.90625000000000000        0.0000000000000000     
   3.1250000000000000E-002  0.92187500000000000        0.0000000000000000     
   9.3749999999999997E-003  0.91562500000000002        0.0000000000000000     
   2.0312500000000001E-002  0.91718750000000004        0.0000000000000000     
   2.1874999999999999E-002  0.92812499999999998        0.0000000000000000     
   1.0937499999999999E-002  0.92656249999999996        0.0000000000000000     
   4.6875000000000000E-002  0.90625000000000000        0.0000000000000000     
   6.2500000000000000E-002  0.90625000000000000        0.0000000000000000     
   6.2500000000000000E-002  0.92187500000000000        0.0000000000000000     
   4.0625000000000001E-002  0.91562500000000002        0.0000000000000000     
   5.1562499999999997E-002  0.91718750000000004        0.0000000000000000     
   5.3124999999999999E-002  0.92812499999999998        0.0000000000000000     
   4.2187500000000003E-002  0.92656249999999996        0.0000000000000000     
   1.5625000000000000E-002  0.87500000000000000        0.0000000000000000     
   3.1250000000000000E-002  0.87500000000000000        0.0000000000000000     
   3.1250000000000000E-002  0.89062500000000000        0.0000000000000000     
   9.3749999999999997E-003  0.88437500000000002        0.0000000000000000     
   2.0312500000000001E-002  0.88593750000000004        0.0000000000000000     
   2.1874999999999999E-002  0.89687499999999998        0.0000000000000000     
   1.0937499999999999E-002  0.89531249999999996        0.0000000000000000     
   4.6875000000000000E-002  0.87500000000000000        0.0000000000000000     
   6.2500000000000000E-002  0.87500000000000000        0.0000000000000000     
   6.2500000000000000E-002  0.89062500000000000        0.0000000000000000     
   4.0625000000000001E-002  0.88437500000000002        0.0000000000000000     
   5.1562499999999997E-002  0.88593750000000004        0.0000000000000000     
   5.3124999999999999E-002  0.89687499999999998        0.0000000000000000     
   4.2187500000000003E-002  0.89531249999999996        0.0000000000000000     
   7.8125000000000000E-002  0.90625000000000000        0.0000000000000000     
   9.3750000000000000E-002  0.90625000000000000        0.0000000000000000     
   9.3750000000000000E-002  0.92187500000000000        0.0000000000000000     
   7.1874999999999994E-002  0.91562500000000002        0.0000000000000000     
   8.2812499999999997E-002  0.91718750000000004        0.0000000000000000     
   8.4375000000000006E-002  0.92812499999999998        0.0000000000000000     
   7.3437500000000003E-002  0.92656249999999996        0.0000000000000000     
  0.10937500000000000       0.90625000000000000        0.0000000000000000     
  0.12500000000000000       0.90625000000000000        0.0000000000000000     
  0.12500000000000000       0.92187500000000000        0.0000000000000000     
  0.10312499999999999       0.91562500000000002        0.0000000000000000     
  0.11406250000000000       0.91718750000000004        0.0000000000000000     
  0.11562500000000001       0.92812499999999998        0.0000000000000000     
  0.10468750000000000       0.92656249999999996        0.0000000000000000     
   7.8125000000000000E-002  0.87500000000000000        0.0000000000000000     
   9.3750000000000000E-002  0.87500000000000000        0.0000000000000000     
   9.3750000000000000E-002  0.89062500000000000        0.0000000000000000     
   7.1874999999999994E-002  0.88437500000000002        0.0000000000000000     
   8.2812499999999997E-002  0.88593750000000004        0.0000000000000000     
   8.4375000000000006E-002  0.89687499999999998        0.0000000000000000     
   7.3437500000000003E-002  0.89531249999999996        0.0000000000000000     
  0.10937500000000000       0.87500000000000000        0.0000000000000000     
  0.12500000000000000       0.87500000000000000        0.0000000000000000     
  0.12500000000000000       0.89062500000000000        0.0000000000000000     
  0.10312499999999999       0.88437500000000002        0.0000000000000000     
  0.11406250000000000       0.88593750000000004        0.0000000000000000     
  0.11562500000000001       0.89687499999999998        0.0000000000000000     
  0.10468750000000000       0.89531249999999996        0.0000000000000000     
  0.14062500000000000       0.96875000000000000        0.0000000000000000     
  0.15625000000000000       0.96875000000000000        0.0000000000000000     
  0.15625000000000000       0.98437500000000000        0.0000000000000000     
  0.13437499999999999       0.97812500000000002        0.0000000000000000     
  0.14531250000000001       0.97968750000000004        0.0000000000000000     
  0.14687500000000001       0.99062499999999998        0.0000000000000000     
  0.13593749999999999       0.98906249999999996        0.0000000000000000     
  0.17187500000000000       0.96875000000000000        0.0000000000000000     
  0.18750000000000000       0.96875000000000000        0.0000000000000000     
  0.18750000000000000       0.98437500000000000        0.0000000000000000     
  0.16562499999999999       0.97812500000000002        0.0000000000000000     
  0.17656250000000001       0.97968750000000004        0.0000000000000000     
  0.17812500000000001       0.99062499999999998        0.0000000000000000     
[...]
 CELL_DATA       14336
 SCALARS Tumor_cells float
 LOOKUP_TABLE default
   -0.31995441987665567645E-15
    0.56975291647838989140E-14
    0.20919111028829149617E-14
   -0.35308643317816112514E-15
    0.93633218038448691372E-14
    0.51305779346375430806E-14
   -0.17444651954866078654E-14
    0.85278315080630436485E-14
    0.17608987983182026823E-14
    0.11275256402428155266E-14
    0.86555118221875063343E-14
    0.22856066502215834254E-14
    0.30234423915556420298E-14
    0.69395671831498582773E-14
    0.78165509231061684198E-15
    0.63258104050800110671E-14
    0.79742050236992322333E-14
   -0.28415278673771824787E-14
    0.75899904029824204185E-14
    0.95725988838766955863E-14
   -0.55325015930315178904E-14
   -0.89518229780349871640E-15
    0.41909517264265355105E-14
    0.80577790986991588210E-14
    0.91559217712639543215E-15
    0.68042705914447446286E-14
    0.42489840412168305015E-14
    0.32332613122624205012E-14
    0.41590035400285647411E-14
    0.49141256128144506479E-14
   -0.25484544660484712921E-14
    0.78615829509118014288E-14
    0.48681932377618952501E-14
    0.26370781221076310290E-14
   -0.50295420102372204432E-14
    0.55270173327474732723E-14
    0.36471284984885811955E-14
    0.28974359696995275534E-14
    0.46241717712418682595E-14
    0.33787800601614214903E-14
   -0.41673510283899025244E-14
    0.39708636943013849050E-14
    0.82951900785310398095E-14
    0.97279303264154841119E-14
   -0.78854553964339826639E-17
    0.13830130404065497319E-14
    0.86792740113720062034E-14
    0.23006977825050018689E-14
    0.17439120648202546847E-14
    0.50976330218691501163E-14
   -0.25044165172173669284E-14
   -0.45252275211658441460E-14
    0.75810582281823584652E-14
    0.20104006781144449081E-14
    0.22297092089485610639E-14
    0.17255579289134434572E-14
   -0.68067948561664233692E-14
    0.29260790110779458776E-14
    0.71349311787957446061E-14
   -0.17082666886799602478E-14
    0.46519698712103829719E-14
    0.25767068150131296004E-14
   -0.98132661693788715403E-14
    0.45188988650510585619E-14
    0.70629707556891200238E-14
    0.49505076682395185217E-14
   -0.18900530882784974936E-14
    0.95059425357626024272E-15
    0.54124276259190449500E-14
    0.31430588908311352122E-14
   -0.63375370386862765771E-14
    0.10047954514959307679E-13
   -0.37905141336683217189E-15
    0.57762832709273914486E-14
    0.11029194228827556743E-13
    0.14647152833616721023E-14
    0.56564092357183100024E-14
    0.44694814066113327549E-14
   -0.21698091181015739480E-15
    0.55770956238007048659E-14
    0.23309242692545899865E-14
    0.48273263818603234906E-14
    0.40009365703881729249E-14
    0.24266928894659205259E-14
    0.12714766629658946576E-14
   -0.62463634861686926587E-15
   -0.35821919256631878538E-14
    0.73889922306697363812E-15
   -0.23456468020402048753E-14
   -0.46314938453504853243E-14
    0.48490167096000576330E-14
   -0.31132430104444080735E-15
   -0.27620208351621358739E-14
   -0.40407462195180011817E-14
    0.10823844728649006592E-14
    0.96648764943798145342E-15
    0.19638495069731492277E-14
    0.36430333034026069088E-14
    0.76595336849597177734E-14
    0.84905936513910796024E-14
    0.25288901467671213309E-14
    0.29826813803132814466E-14
   -0.74125604827106633385E-15
    0.18393668327393497929E-14
    0.12732986553774301530E-14
    0.40741590590142505485E-14
    0.34272322296951122332E-14
    0.24672269408209870858E-14
    0.35909785804740534243E-14
    0.51886752128323449392E-14
    0.10935138106069631470E-13
    0.36425683932004356490E-15
    0.32623854332260133235E-14
    0.36146852949654577835E-14
    0.88581323649609748553E-15
    0.91384467910582914237E-14
    0.74493810855286860696E-14
   -0.80111735788393194850E-14
    0.27801154555101519405E-14
    0.20757348390044246262E-14
    0.51939859158119861286E-14
    0.10469425321214279648E-14
    0.48801094513577862391E-14
   -0.80186725624928360861E-14
   -0.40459533476707852219E-14
    0.32126000652152649238E-14
   -0.35384155443546621112E-14
    0.37257847082271655817E-14
    0.26848686500827320122E-15
   -0.38225616916557717347E-14
   -0.70645300550672429246E-14
   -0.60827688369235681417E-15
    0.28363307486796866035E-14
    0.25922197051800091825E-14
    0.10218387817629797567E-14
    0.39104234518124792399E-14
   -0.14973893676646985540E-14
    0.71311811818039377624E-14
    0.28165829792791404448E-14
    0.29880188541329008524E-14
    0.51633385664277493572E-14
    0.66246135528187336587E-14
    0.41903745339201112105E-14
    0.28315493111582865936E-14
    0.45083800306027340056E-14
   -0.28005616028151846428E-14
   -0.77296210023659867118E-15
   -0.30817893776707880348E-14
    0.53073523924982705328E-14
   -0.24245547566657881273E-14
    0.15652516482262192777E-14
    0.78974440182549521756E-15
    0.17754184920778245600E-14
    0.44862453662856404636E-14
    0.28518848354263517336E-15
    0.24768286425874194997E-14
   -0.58242148909876441278E-15
    0.42917536273133379434E-16
    0.84609110620537483532E-14
    0.29533675476019430687E-14
    0.48470640704603401507E-14
    0.44909672744176575366E-14
    0.57029537032853006101E-14
    0.10209882459268133220E-13
    0.36795389826135395828E-14
    0.88818654972811196188E-15
   -0.28818474395496398484E-14
    0.11514877070855830856E-13
    0.20199518906473152688E-14
   -0.28082932755218152435E-14
    0.57251559376726379389E-14
    0.16297060380856559894E-14
   -0.32308657036689691577E-14
    0.35428866228014853671E-14
    0.12006846256684351481E-14
    0.44262918082680693479E-14
    0.16746040223562974500E-14
    0.12084909838220236523E-14
    0.74624079538973634367E-14
   -0.57538710432340736915E-14
    0.53443613667123185236E-14
    0.61599834752889878790E-14
    0.47939089404789395687E-14
   -0.18071048812400349391E-14
    0.14512863200956638144E-14
    0.34661453055453906080E-14
    0.54175883493918237829E-14
    0.41519209945821638422E-16
   -0.10908759042647409667E-13
   -0.19543412084119531839E-15
    0.10543475131933626648E-13
   -0.13432961186616377816E-14
    0.62703890875932712463E-14
    0.69764877081915145907E-14
    0.13501168329084338329E-14
    0.53859819053677784504E-14
    0.11239662443884151569E-14
    0.82818894155083848305E-14
    0.15155379473418220930E-14
   -0.85652952002030845904E-15
    0.52980975647044665649E-15
    0.15400128740018931742E-14
    0.32383610977802115069E-14
    0.10718736386451236019E-13
    0.25450008350051950298E-14
    0.48494015084956241066E-14
    0.15643113031151434138E-14
   -0.23267100354167606288E-14
    0.54823646773046841069E-14
    0.31614074480204374693E-14
    0.93213025231910265368E-14
    0.53280741833794681421E-14
    0.60249854561092521672E-14
    0.61261194999115966285E-14
    0.32803626521738228146E-14
    0.45640102759126991825E-14
    0.53005404598245043415E-14
    0.48541270514106493448E-14
    0.53275337471731486274E-15
    0.10759660101657893125E-14
   -0.64802636092683402390E-15
    0.25189911899278891584E-14
   -0.77937295367685100077E-14
   -0.20932282293717182590E-14
    0.13843268355846951162E-13
    0.21729772274672024830E-14
    0.70967887679824875616E-14
    0.14066427084375925642E-14
   -0.19436162440234691861E-14
   -0.12419163137213664657E-14
   -0.99239528146815728945E-15
    0.45167326016896176451E-14
   -0.19197438131135472334E-14
   -0.46198795859960003152E-15
    0.56578355718157665635E-14
    0.31580280592755039489E-14
   -0.21105563671875266603E-14
    0.10439063550237334147E-13
    0.12219060208426425785E-14
   -0.38242480541278067122E-15
   -0.16548292189165654698E-15
    0.14124192067330449020E-14
    0.10997092915317211277E-13
    0.83219267756530242897E-14
    0.48312485598434691174E-15
   -0.17053574708658364025E-14
   -0.15138055179990776916E-15
    0.29355018276898978905E-14
    0.11693072209977027682E-13
    0.31619036879938806590E-14
    0.56392084419858712112E-14
   -0.71073566196038224196E-15
    0.57142109000663282660E-14
    0.11321741250149929145E-13
    0.15456665643098042514E-14
   -0.38724177529665763491E-15
   -0.79269641110849679125E-15
    0.89159521950563980854E-15
    0.63616554136740180555E-14
   -0.28064161740674246644E-14
    0.72973834913616248304E-14
   -0.17235059198264417462E-14
   -0.38393728283949751116E-15
    0.44994600793992515911E-14
    0.48238030223503079818E-14
   -0.44531029319169856292E-14
   -0.48030653562829633563E-14
    0.88662906850415373001E-14
    0.97990993888858013488E-14
    0.39208851005977496797E-14
    0.20041949892982394180E-14
    0.45549360743446085742E-14
   -0.51812099274743754779E-14
    0.28972313670852268907E-14
    0.10959597641127143071E-13
   -0.12397140027711124147E-14
    0.81119021233830263902E-14
    0.41259146303585333161E-14
    0.40033475882530954318E-14
    0.13695218561217455712E-13
    0.23884000703522290617E-14
   -0.16752812384765224862E-14
   -0.18133286877093751850E-14
   -0.11781829825531317565E-14
    0.38410151384745310844E-14
    0.18304192557720167598E-14
    0.76393617497460507178E-14
    0.10883222252791511083E-13
   -0.29144805846498947269E-14
    0.57008557767649296250E-14
    0.13875331499035129551E-13
    0.62224315296312344870E-14
    0.39607708350595434324E-15
    0.23805884575774442272E-14
    0.31375614616029182059E-14
   -0.50697279583906048499E-15
   -0.71783054235644981941E-16
    0.47622141447937193545E-15
   -0.18267104316289721091E-14
    0.28591450765955437803E-14
    0.75933863052656181350E-14
    0.61725344701576863153E-14
    0.43228861795694856883E-14
   -0.20562537836107697418E-15
    0.11746996889723540485E-14
    0.35885411334644533792E-14
    0.31618687486514537901E-14
    0.18230979961126886505E-14
    0.13001110841196754456E-15
    0.18412121886949351376E-14
   -0.21839009637715128996E-14
    0.89493341667738206564E-15
    0.32922185343325908845E-14
   -0.47167584088573760399E-14
    0.28530433059710066274E-14
    0.40219778637317265494E-14
    0.41868747042814385069E-14
    0.23368987733781508813E-14
    0.34111101612601645670E-14
    0.35441628676619510375E-16
    0.41452211575629251910E-14
    0.76060386610599690077E-14
    0.34988945676938384180E-14
    0.61949470471721568570E-14
    0.51904087733165472506E-14
    0.45421278504376481021E-14
    0.91470528670223227116E-14
   -0.45690801588963083124E-14
    0.85902455291440349606E-14
   -0.55625091321719808833E-14
    0.57551469288958189748E-14
    0.42052476283223964479E-14
   -0.27894069851909365351E-14
    0.25689826661256170459E-14
    0.26900259152388962663E-14
    0.14380973666196532378E-14
    0.27987609082502540313E-14
    0.95706148216397912069E-14
    0.76880788030745935640E-14
   -0.80361565669699622249E-14
    0.12480116899949846503E-14
    0.15420988150392110889E-14
   -0.18269409257324221406E-14
    0.40126394270799175302E-14
    0.68219773971599336455E-14
    0.91405612734081932129E-15
    0.51182745319024660793E-14
    0.78737660212904731741E-14
    0.50483816594675848576E-15
   -0.28026342074682227873E-15
    0.44695179326574480360E-14
    0.21275731412320052981E-14
    0.40848319066123743078E-14
   -0.67293370170409643557E-15
    0.65904126435357006629E-14
    0.86076155703573816398E-14
    0.39496367784225951236E-14
    0.37850046838364456628E-14
    0.69644740756201742420E-14
   -0.80883795227187696534E-14
    0.48914933847731499456E-14
    0.16656656007615221019E-15
    0.41558378960553062526E-14
    0.38312514127968517374E-14
   -0.29525470572409968111E-14
   -0.53105318160385178313E-15
    0.17530972769492221735E-14
    0.76623770846303502431E-14
   -0.84721457872594508594E-14
   -0.44009695888182929466E-14
    0.10594664740615545015E-13
    0.64301031094908813326E-14
    0.53825605826500554804E-14
    0.32607714387799045030E-15
    0.55810329833691146302E-14
    0.16013486180591828011E-14
    0.33177061201047606634E-14
   -0.34056636122320436184E-14
   -0.21392602766580893090E-14
    0.80013201347069543409E-14
    0.73046882190432484942E-14
   -0.34940435567137427539E-14
   -0.27712085264240404545E-14
    0.30067443992810984551E-14
    0.53886047467001482615E-14
    0.86880969494089416935E-15
    0.78626892626992983204E-15
    0.68153825779545801605E-14
   -0.35275042197868843537E-14
   -0.81888370369593093113E-14
   -0.22723126238434466483E-14
    0.28161998390793093114E-14
    0.51023138455174146289E-14
    0.12085084051090356049E-13
    0.14188447279514817939E-14
    0.43587238462576865149E-14
    0.31724825228284739601E-14
    0.60661575289085608430E-14
    0.71204366745699682542E-14
    0.64858338380241337991E-14
   -0.47774766117697671363E-14
   -0.14867263050828935790E-14
    0.70963413217658251156E-14
    0.80793290234197321979E-14
    0.57525092604699631976E-16
    0.30596481694301338472E-14
    0.75000608872304794338E-14
   -0.13727779014860003389E-14
   -0.32224417827335714909E-15
   -0.82926415961699441247E-14
    0.56510141208384032866E-14
    0.28280034966627250873E-14
   -0.41492390965915092410E-14
    0.24916182732322068500E-14
    0.29507662667814000806E-14
    0.14192193999233528196E-14
    0.52088872018541842614E-14
   -0.30678096142938832260E-14
    0.83984277510200972262E-15
   -0.24031588554513593830E-14
   -0.49141310915049776351E-14
    0.12526507199876010991E-14
   -0.12595332636275107881E-14
    0.31005620428237658355E-15
    0.81324575473815908589E-14
    0.85992899678844353462E-14
    0.32094961879530677506E-14
    0.44069156268887036255E-14
   -0.63063825021452978415E-14
    0.46890224498288922931E-14
    0.31308096779084656143E-14
    0.37890831550866025854E-14
   -0.22055887297748419827E-14
   -0.52912831979347681471E-14
    0.24935895443553815623E-14
    0.51237687538615225078E-14
    0.32091936776508508320E-14
   -0.50625960398838439676E-14
    0.32026333311349913072E-14
    0.35885013264245814186E-14
   -0.18352906915033517153E-14
    0.10135706175512496776E-13
    0.66232262832500951204E-14
   -0.69012002341320180821E-15
    0.15666656858293344619E-14
    0.64230101287551264067E-14
    0.23622755104801321232E-14
    0.10912232562079097500E-14
    0.59555125241380220946E-15
   -0.38420824487990853491E-14
    0.37248722318425421326E-14
    0.56360120853892684111E-14
    0.34999644804127846438E-14
    0.12143623896927055441E-13
    0.21054828098173332766E-14
    0.58311844081096212730E-14
   -0.19493370620517897195E-14
   -0.90650665402038880343E-15
    0.41980859481620001258E-14
   -0.26429253397086221799E-14
   -0.12338733619274308087E-14
   -0.37597709748597939532E-14
    0.59058246707355797962E-14
   -0.94912718695700299450E-15
    0.66556961767784493969E-14
    0.81204272023752489524E-14
    0.86249612802887027775E-14
    0.44937755307641816287E-14
    0.52492429952746682823E-14
    0.27568779294561769625E-14
   -0.31801576419494287501E-14
    0.63648867707696637399E-14
   -0.87953049199043648223E-16
    0.50023751373353145704E-14
    0.87801360577368991128E-14
    0.10561913942178695634E-15
    0.22550380143788288536E-14
    0.11698807874345983097E-13
   -0.30481417968208222534E-14
   -0.19961516017498390445E-14
    0.29943275699586151033E-14
    0.32323407442618877445E-15
    0.46045147624495962070E-15
    0.40146045802993018734E-14
   -0.11767762789729919894E-15
    0.67922716101641573519E-15
   -0.18009536671716894406E-14
    0.17912198540587910933E-14
    0.13277642685381635568E-14
    0.67964168863780333806E-14
    0.10726180455382100363E-14
    0.63842640324081448318E-14
    0.24904172561246388083E-14
    0.51398543188465268939E-14
    0.85541078553998594596E-14
   -0.82045372625333004781E-15
    0.63736954022546081018E-14
    0.80058079236348132909E-14
   -0.36346898708766373843E-14
    0.23812636504568523237E-14
   -0.40214436024817921701E-14
    0.39707320382163776662E-15
    0.55056055919608628205E-14
    0.24099815361839388996E-14
    0.22749657205512228174E-14
    0.59074454452025986196E-14
    0.16157993963452498826E-14
    0.45003691919063024408E-14
    0.10571338392229025700E-13
    0.50225362052335442967E-14
    0.15879604412291081935E-14
    0.21153718693191680297E-14
    0.18560101971975798406E-14
   -0.55504211511983241499E-16
    0.46784813088358440496E-14
   -0.13739092433500173594E-14
    0.29761305109986419087E-14
   -0.16338716070270086339E-14
   -0.36612127769243509206E-14
   -0.11155583625821498310E-13
    0.26567592212361063317E-14
    0.39016751611004633399E-14
   -0.53605018008098752782E-14
   -0.31490583564146313630E-14
    0.24382554027785254302E-14
    0.15845660345667115941E-14
    0.68388560665012070148E-14
   -0.54823411949495042642E-15
    0.65916967255596715700E-14
    0.69966228541158919922E-14
    0.14198245834996162666E-16
    0.17844902112088637572E-14
   -0.19395250230197953323E-14
    0.97905808065666372123E-14
   -0.18018543916880872778E-14
    0.93258750317434781501E-14
   -0.23330512293129444456E-14
    0.26539037718234848234E-14
    0.25527632361434900709E-14
    0.42910468621449110803E-15
   -0.89659133158796729714E-14
    0.19751795267569426929E-14
   -0.10925395099633334387E-14
   -0.13946756644758660295E-14
    0.50166489358938837057E-14
    0.35697561433044292267E-14
   -0.22801233047348392553E-14
   -0.25032904597811289772E-14
   -0.19319010738455847961E-14
   -0.33291718407566561595E-16
    0.41612258172356278002E-14
   -0.40906296754900669494E-15
   -0.62766365279083061230E-14
   -0.32442376898307771666E-14
    0.52384559367457399829E-14
    0.61401886662854333959E-14
    0.45509290496570420798E-14
    0.34021935057037427446E-14
    0.40821252585859060812E-14
    0.24043175247797813335E-16
    0.25763333214596675835E-14
    0.22330173548957349017E-14
    0.50484838061747255612E-14
   -0.14810691564975900874E-16
    0.46268784439549954080E-14
    0.15726461837312721682E-14
   -0.72068222272414656995E-16
    0.44510286797427267327E-14
    0.39231335309626766100E-14
   -0.20689912717987668371E-14
    0.93029084377753702598E-14
    0.61572383790619443322E-14
    0.60725183188360379260E-14
    0.47653620425335784743E-14
   -0.23670385333189872763E-14
    0.30867694332826513549E-14
    0.49126078979257142620E-14
    0.31178630295799165691E-14
    0.29859737075799766969E-14
    0.19737392065206865221E-14
    0.29072505582811738069E-15
    0.30928939274954712837E-14
    0.22203596240565812471E-14
    0.28749751003197869772E-14
   -0.44800989487412883710E-15
    0.38601278619455734320E-14
    0.47470010919436710572E-14
    0.40592938563319567653E-14
    0.28561540981592996995E-14
    0.24130095620935569879E-14
    0.23169525791082418922E-14
   -0.19275199782544494271E-14
    0.45205575699696374154E-14
   -0.12042569880915489634E-14
    0.55113194693717928710E-15
    0.75596130543442712346E-14
    0.34198795788241428123E-14
    0.33007927928236578253E-14
    0.38958175979084219905E-14
    0.75171588576853806033E-14
    0.28593146136661575651E-14
    0.25248698893071154278E-14
   -0.20591475579720653982E-14
    0.59017537525547191578E-14
    0.17961800060003339345E-14
    0.83280805027484226894E-15
    0.11783946128388503132E-13
    0.28761565205808588098E-14
    0.49377197526423788827E-14
   -0.21039613433273199743E-14
   -0.26410304160060354634E-15
    0.64493798665466291682E-15
    0.15188536291547390466E-14
    0.88808596594673206601E-14
    0.41170197446246994619E-14
    0.56638470167267909511E-14
    0.10427517364958326808E-13
    0.36790612317648017971E-14
    0.29272174872973695629E-14
   -0.44859341922762178507E-14
    0.24116923120736245516E-14
    0.78181301149897557285E-14
    0.59379020264446466356E-14
    0.43150976940247926644E-14
   -0.99854723811483456994E-15
   -0.19353324597719018403E-14
    0.46711436381601015952E-14
    0.28992386378320205117E-15
   -0.32816459393625385902E-15
   -0.36250911371956309328E-15
    0.19545497210945021341E-14
    0.66952954575351975733E-14
    0.74388724496870609244E-14
    0.28778026134687741101E-15
    0.50372163873497169636E-14
   -0.20975022862595196252E-14
    0.54427835493608449900E-14
    0.98087303941034629990E-14
    0.67995385925450351829E-14
   -0.26343155191270309387E-14
    0.12463526452471336989E-14
    0.25586547730765892845E-14