# vtk DataFile Version 3.0
LAPLACIEN  2D
ASCII
DATASET UNSTRUCTURED_GRID
FIELD FieldData 1
TIME 1 1 double
1.0000
 POINTS        7297  float
   1.5625000000000000E-002  0.96875000000000000        0.0000000000000000     
   3.1250000000000000E-002  0.96875000000000000        0.0000000000000000     
   3.1250000000000000E-002  0.98437500000000000        0.0000000000000000     
   9.3749999999999997E-003  0.97812500000000002        0.0000000000000000     
   2.0312500000000001E-002  0.97968750000000004        0.0000000000000000     
   2.1874999999999999E-002  0.99062499999999998        0.0000000000000000     
   1.0937499999999999E-002  0.98906249999999996        0.0000000000000000     
   4.6875000000000000E-002  0.96875000000000000        0.0000000000000000     
   6.2500000000000000E-002  0.96875000000000000        0.0000000000000000     
   6.2500000000000000E-002  0.98437500000000000        0.0000000000000000     
   4.0625000000000001E-002  0.97812500000000002        0.0000000000000000     
   5.1562499999999997E-002  0.97968750000000004        0.0000000000000000     
   5.3124999999999999E-002  0.99062499999999998        0.0000000000000000     
   4.2187500000000003E-002  0.98906249999999996        0.0000000000000000     
   1.5625000000000000E-002  0.93750000000000000        0.0000000000000000     
   3.1250000000000000E-002  0.93750000000000000        0.0000000000000000     
   3.1250000000000000E-002  0.95312500000000000        0.0000000000000000     
   9.3749999999999997E-003  0.94687500000000002        0.0000000000000000     
   2.0312500000000001E-002  0.94843750000000004        0.0000000000000000     
   2.1874999999999999E-002  0.95937499999999998        0.0000000000000000     
   1.0937499999999999E-002  0.95781249999999996        0.0000000000000000     
   4.6875000000000000E-002  0.93750000000000000        0.0000000000000000     
   6.2500000000000000E-002  0.93750000000000000        0.0000000000000000     
   6.2500000000000000E-002  0.95312500000000000        0.0000000000000000     
   4.0625000000000001E-002  0.94687500000000002        0.0000000000000000     
   5.1562499999999997E-002  0.94843750000000004        0.0000000000000000     
   5.3124999999999999E-002  0.95937499999999998        0.0000000000000000     
   4.2187500000000003E-002  0.95781249999999996        0.0000000000000000     
   7.8125000000000000E-002  0.96875000000000000        0.0000000000000000     
   9.3750000000000000E-002  0.96875000000000000        0.0000000000000000     
   9.3750000000000000E-002  0.98437500000000000        0.0000000000000000     
   7.1874999999999994E-002  0.97812500000000002        0.0000000000000000     
   8.2812499999999997E-002  0.97968750000000004        0.0000000000000000     
   8.4375000000000006E-002  0.99062499999999998        0.0000000000000000     
   7.3437500000000003E-002  0.98906249999999996        0.0000000000000000     
  0.10937500000000000       0.96875000000000000        0.0000000000000000     
  0.12500000000000000       0.96875000000000000        0.0000000000000000     
  0.12500000000000000       0.98437500000000000        0.0000000000000000     
  0.10312499999999999       0.97812500000000002        0.0000000000000000     
  0.11406250000000000       0.97968750000000004        0.0000000000000000     
  0.11562500000000001       0.99062499999999998        0.0000000000000000     
  0.10468750000000000       0.98906249999999996        0.0000000000000000     
   7.8125000000000000E-002  0.93750000000000000        0.0000000000000000     
   9.3750000000000000E-002  0.93750000000000000        0.0000000000000000     
   9.3750000000000000E-002  0.95312500000000000        0.0000000000000000     
   7.1874999999999994E-002  0.94687500000000002        0.0000000000000000     
   8.2812499999999997E-002  0.94843750000000004        0.0000000000000000     
   8.4375000000000006E-002  0.95937499999999998        0.0000000000000000     
   7.3437500000000003E-002  0.95781249999999996        0.0000000000000000     
  0.10937500000000000       0.93750000000000000        0.0000000000000000     
  0.12500000000000000       0.93750000000000000        0.0000000000000000     
  0.12500000000000000       0.95312500000000000        0.0000000000000000     
  0.10312499999999999       0.94687500000000002        0.0000000000000000     
  0.11406250000000000       0.94843750000000004        0.0000000000000000     
  0.11562500000000001       0.95937499999999998        0.0000000000000000     
  0.10468750000000000       0.95781249999999996        0.0000000000000000     
   1.5625000000000000E-002  0.90625000000000000        0.0000000000000000     
   3.1250000000000000E-002  0.90625000000000000        0.0000000000000000     
   3.1250000000000000E-002  0.92187500000000000        0.0000000000000000     
   9.3749999999999997E-003  0.91562500000000002        0.0000000000000000     
   2.0312500000000001E-002  0.91718750000000004        0.0000000000000000     
   2.1874999999999999E-002  0.92812499999999998        0.0000000000000000     
   1.0937499999999999E-002  0.92656249999999996        0.0000000000000000     
   4.6875000000000000E-002  0.90625000000000000        0.0000000000000000     
   6.2500000000000000E-002  0.90625000000000000        0.0000000000000000     
   6.2500000000000000E-002  0.92187500000000000        0.0000000000000000     
   4.0625000000000001E-002  0.91562500000000002        0.0000000000000000     
   5.1562499999999997E-002  0.91718750000000004        0.0000000000000000     
   5.3124999999999999E-002  0.92812499999999998        0.0000000000000000     
   4.2187500000000003E-002  0.92656249999999996        0.0000000000000000     
   1.5625000000000000E-002  0.87500000000000000        0.0000000000000000     
   3.1250000000000000E-002  0.87500000000000000        0.0000000000000000     
   3.1250000000000000E-002  0.89062500000000000        0.0000000000000000     
   9.3749999999999997E-003  0.88437500000000002        0.0000000000000000     
   2.0312500000000001E-002  0.88593750000000004        0.0000000000000000     
   2.1874999999999999E-002  0.89687499999999998        0.0000000000000000     
   1.0937499999999999E-002  0.89531249999999996        0.0000000000000000     
   4.6875000000000000E-002  0.87500000000000000        0.0000000000000000     
   6.2500000000000000E-002  0.87500000000000000        0.0000000000000000     
   6.2500000000000000E-002  0.89062500000000000        0.0000000000000000     
   4.0625000000000001E-002  0.88437500000000002        0.0000000000000000     
   5.1562499999999997E-002  0.88593750000000004        0.0000000000000000     
   5.3124999999999999E-002  0.89687499999999998        0.0000000000000000     
   4.2187500000000003E-002  0.89531249999999996        0.0000000000000000     
   7.8125000000000000E-002  0.90625000000000000        0.0000000000000000     
   9.3750000000000000E-002  0.90625000000000000        0.0000000000000000     
   9.3750000000000000E-002  0.92187500000000000        0.0000000000000000     
   7.1874999999999994E-002  0.91562500000000002        0.0000000000000000     
   8.2812499999999997E-002  0.91718750000000004        0.0000000000000000     
   8.4375000000000006E-002  0.92812499999999998        0.0000000000000000     
   7.3437500000000003E-002  0.92656249999999996        0.0000000000000000     
  0.10937500000000000       0.90625000000000000        0.0000000000000000     
  0.12500000000000000       0.90625000000000000        0.0000000000000000     
  0.12500000000000000       0.92187500000000000        0.0000000000000000     
  0.10312499999999999       0.91562500000000002        0.0000000000000000     
  0.11406250000000000       0.91718750000000004        0.0000000000000000     
  0.11562500000000001       0.92812499999999998        0.0000000000000000     
  0.10468750000000000       0.92656249999999996        0.0000000000000000     
   7.8125000000000000E-002  0.87500000000000000        0.0000000000000000     
   9.3750000000000000E-002  0.87500000000000000        0.0000000000000000     
   9.3750000000000000E-002  0.89062500000000000        0.0000000000000000     
   7.1874999999999994E-002  0.88437500000000002        0.0000000000000000     
   8.2812499999999997E-002  0.88593750000000004        0.0000000000000000     
   8.4375000000000006E-002  0.89687499999999998        0.0000000000000000     
   7.3437500000000003E-002  0.89531249999999996        0.0000000000000000     
  0.10937500000000000       0.87500000000000000        0.0000000000000000     
  0.12500000000000000       0.87500000000000000        0.0000000000000000     
  0.12500000000000000       0.89062500000000000        0.0000000000000000     
  0.10312499999999999       0.88437500000000002        0.0000000000000000     
  0.11406250000000000       0.88593750000000004        0.0000000000000000     
  0.11562500000000001       0.89687499999999998        0.0000000000000000     
  0.10468750000000000       0.89531249999999996        0.0000000000000000     
  0.14062500000000000       0.96875000000000000        0.0000000000000000     
  0.15625000000000000       0.96875000000000000        0.0000000000000000     
  0.15625000000000000       0.98437500000000000        0.0000000000000000     
  0.13437499999999999       0.97812500000000002        0.0000000000000000     
  0.14531250000000001       0.97968750000000004        0.0000000000000000     
  0.14687500000000001       0.99062499999999998        0.0000000000000000     
  0.13593749999999999       0.98906249999999996        0.0000000000000000     
  0.17187500000000000       0.96875000000000000        0.0000000000000000     
  0.18750000000000000       0.96875000000000000        0.0000000000000000     
  0.18750000000000000       0.98437500000000000        0.0000000000000000     
  0.16562499999999999       0.97812500000000002        0.0000000000000000     
  0.17656250000000001       0.97968750000000004        0.0000000000000000     
[...]
 CELL_DATA       14336
 SCALARS Tumor_cells float
 LOOKUP_TABLE default
    0.60079579906142941206E-02
    0.60046036694792028279E-02
    0.60251552997206241080E-02
    0.60251552997080898635E-02
    0.60046036694451571450E-02
    0.60079579905315486782E-02
    0.59909220461100646388E-02
    0.59806435597847184757E-02
    0.59695956089111934517E-02
    0.59695956089218620011E-02
    0.59806435598332334871E-02
    0.59909220462408411048E-02
    0.59890401036941974880E-02
    0.59890401036820448827E-02
    0.60721325907043630782E-02
    0.60890215223313622073E-02
    0.61313907146254660249E-02
    0.61436327341882392833E-02
    0.61136517743926189344E-02
    0.61301167207809927409E-02
    0.60965474442766336149E-02
    0.60661748800054007130E-02
    0.60333695037800569652E-02
    0.60206989970886769237E-02
    0.60412099869968354654E-02
    0.60379473976858279508E-02
    0.60703289548970831152E-02
    0.60776154000830723279E-02
    0.61301167208855792193E-02
    0.61136517744534071145E-02
    0.61436327342005887797E-02
    0.61313907146396898901E-02
    0.60890215223605168374E-02
    0.60721325907187916407E-02
    0.60379473977071589780E-02
    0.60412099870499336163E-02
    0.60206989971678713872E-02
    0.60333695038691775164E-02
    0.60661748801116906898E-02
    0.60965474444447274524E-02
    0.60776154001516528858E-02
    0.60703289549531962155E-02
    0.61955867205303371062E-02
    0.61995898938062366304E-02
    0.62519361601089838351E-02
    0.62519361601234670414E-02
    0.61995898938101978715E-02
    0.61955867205275259868E-02
    0.61444039439194474833E-02
    0.61276014518516219720E-02
    0.60850069970544012898E-02
    0.60850069970602533795E-02
    0.61276014518565884853E-02
    0.61444039439289459617E-02
    0.61600963426816498711E-02
    0.61600963426815006849E-02
    0.62195683311854887271E-02
    0.62554772513085015254E-02
    0.63184788356102899315E-02
    0.63419686455614531634E-02
    0.63030059963608406001E-02
    0.63315464345117091274E-02
    0.62825599996490988017E-02
    0.62333278139294831521E-02
    0.61798866058562036338E-02
    0.61551244787958099558E-02
    0.61848042753342461972E-02
    0.61687494026225822563E-02
    0.62336365599373220678E-02
    0.62477484076133814328E-02
    0.64447997468263058460E-02
    0.64977973904677115841E-02
    0.65794766550800326543E-02
    0.66127997407616975756E-02
    0.65656386575135648048E-02
    0.66047680031045465782E-02
    0.65420568939376574913E-02
    0.64759031217387309429E-02
    0.64037163847456687535E-02
    0.63678911554641975945E-02
    0.64061049809001008662E-02
    0.63784832058028130553E-02
    0.64729071451396242437E-02
    0.64931289019726709522E-02
    0.63459937908714484853E-02
    0.63690406345265375074E-02
    0.64426663278472646318E-02
    0.64537340291169571424E-02
    0.63915824336260567556E-02
    0.63991509040530721378E-02
    0.63318783771337599706E-02
    0.62964339409737786479E-02
    0.62327566295511472108E-02
    0.62208507163391451103E-02
    0.62732300145758789975E-02
    0.62774921755407589799E-02
    0.63257967285457062517E-02
    0.63325175801486636648E-02
    0.65757614641659984517E-02
    0.66157185746183915301E-02
    0.67087438632259990129E-02
    0.67292916506858863404E-02
    0.66578729035773496700E-02
    0.66752663702040141575E-02
    0.65934131798176488434E-02
    0.65414448705558006156E-02
    0.64584696468632275812E-02
    0.64358630063421949988E-02
    0.64976641894475984512E-02
    0.64908893263189203562E-02
    0.65685715913679550843E-02
    0.65811969172220718266E-02
    0.63315464346110610777E-02
    0.63030059964353513102E-02
    0.63419686456122502036E-02
    0.63184788356462342693E-02
    0.62554772513451891922E-02
    0.62195683311953523648E-02
    0.61687494026139806300E-02
    0.61848042753841854166E-02
    0.61551244788881232656E-02
    0.61798866059555278285E-02
    0.62333278140409148493E-02
    0.62825599998150198980E-02
    0.62477484076887976686E-02
    0.62336365599981484117E-02
    0.63991509040638942102E-02
    0.63915824336426320385E-02
    0.64537340291450700711E-02
    0.64426663278855577852E-02
    0.63690406345397248752E-02
    0.63459937908646579102E-02
    0.62774921755017424468E-02
    0.62732300145670032848E-02
    0.62208507163414878544E-02
    0.62327566295593576570E-02
    0.62964339409881438930E-02
    0.63318783771590591777E-02
    0.63325175801593990010E-02
    0.63257967285525297865E-02
    0.66047680034391487158E-02
    0.65656386577894352771E-02
    0.66127997410400773254E-02
    0.65794766553119192129E-02
    0.64977973906445371521E-02
    0.64447997469278634972E-02
    0.63784832058544427627E-02
    0.64061049810267495577E-02
    0.63678911555928004520E-02
    0.64037163849172372421E-02
    0.64759031219844302371E-02
    0.65420568942908740792E-02
    0.64931289021949497448E-02
    0.64729071453298600916E-02
    0.66752663704550676757E-02
    0.66578729037992155984E-02
    0.67292916509418760143E-02
    0.67087438634595699880E-02
    0.66157185747743015372E-02
    0.65757614642532064703E-02
    0.64908893263446332950E-02
    0.64976641895232757629E-02
    0.64358630063938004201E-02
    0.64584696469592219742E-02
    0.65414448707147663381E-02
    0.65934131800393412995E-02
    0.65811969173861263604E-02
    0.65685715915100853154E-02
    0.65544541135918420183E-02
    0.65662310510788031437E-02
    0.66505595508886258468E-02
    0.66505595508845102154E-02
    0.65662310510709951533E-02
    0.65544541135754922495E-02
    0.64689901285609786863E-02
    0.64460376561250526742E-02
    0.63718660926816664963E-02
    0.63718660926819431847E-02
    0.64460376561437165641E-02
    0.64689901286166086661E-02
    0.65028117671714399245E-02
    0.65028117671675498071E-02
    0.67916967327660152445E-02
    0.68204717135333043157E-02
    0.69251367996084160772E-02
    0.69344371892905857027E-02
    0.68397274473919744686E-02
    0.68372072688156221992E-02
    0.67361348605394577929E-02
    0.66968145920163497237E-02
    0.66025670595787943132E-02
    0.65920463646486314457E-02
    0.66765948663894828310E-02
    0.66888348492789278382E-02
    0.67523140924442845781E-02
    0.67581136588711829272E-02
    0.68372072690683783486E-02
    0.68397274476015021763E-02
    0.69344371895176939655E-02
    0.69251367997957384570E-02
    0.68204717136655318779E-02
    0.67916967328413083149E-02
    0.66888348492873160936E-02
    0.66765948664548307318E-02
    0.65920463646986574013E-02
    0.66025670596680727242E-02
    0.66968145921784604999E-02
    0.67361348607888268947E-02
    0.67581136590262923594E-02
    0.67523140925738198495E-02
    0.70845820715480676763E-02
    0.71044503276114527243E-02
    0.72206128115234686007E-02
    0.72206128114887498451E-02
    0.71044503275437395282E-02
    0.70845820713910942837E-02
    0.69649685505137207478E-02
    0.69362522909945292099E-02
    0.68306391810472365592E-02
    0.68306391810851350629E-02
    0.69362522910709836776E-02
    0.69649685506954963493E-02
    0.70173127098472013602E-02
    0.70173127098260238560E-02
    0.67394563496990713553E-02
    0.68069692050116885687E-02
    0.69046684050660910026E-02
    0.69460386776280134621E-02
    0.68917715176411414174E-02
    0.69396029454772854492E-02
    0.68653780962157299333E-02
    0.67848780854068832177E-02
    0.66965406117491868554E-02
    0.66510955584217030731E-02
    0.66968886432988176602E-02
    0.66593589683380926408E-02
    0.67792425055182535532E-02
    0.68046287833669096001E-02
    0.70925488675989880466E-02
    0.71714502491341293455E-02
    0.72819005137668025435E-02
    0.73292223704709306628E-02
    0.72692127205954814445E-02
    0.73235245683783119566E-02
    0.72404386532974240528E-02
    0.71487161241735467168E-02
    0.70474377889284478896E-02
    0.69941813065055296467E-02
    0.70463115713415465369E-02
    0.70009092731794725709E-02
    0.71412075239951884956E-02
    0.71706157293829723975E-02
    0.68763500574891001094E-02
    0.69304488267094115084E-02
    0.70402642211134349240E-02
    0.70683463078269059832E-02
    0.69885472974964956555E-02
    0.70136473448864445138E-02
    0.69192726345941790375E-02
    0.68535209495706175473E-02
    0.67537576615875338781E-02
    0.67220566792619007579E-02
    0.67925637795684234294E-02
    0.67766688160249477155E-02
    0.68793923795625261733E-02
    0.68968836342517946675E-02
    0.72365505954750343129E-02
    0.73014836781334913063E-02
    0.74248406866131355306E-02
    0.74582211524419576160E-02
    0.73712467123070082170E-02
    0.74016370881273682233E-02
    0.72972785851999647996E-02
    0.72210112516382079367E-02
    0.71076080796099077100E-02
    0.70687646616545626865E-02
    0.71469327868186232136E-02
    0.71241814700699745283E-02
    0.72466583501667155079E-02
    0.72677909755112729898E-02
    0.74908506580498388644E-02
    0.75775701548336437882E-02
    0.76970064835446549978E-02
    0.77479484988464859818E-02
    0.76837828196092018002E-02
    0.77420967634579283476E-02
    0.76531506159034914591E-02
    0.75537680148379405393E-02
    0.74432614711755747464E-02
    0.73843040377810564498E-02
    0.74412854805713758363E-02
    0.73903512470667540729E-02
    0.75452277006067243817E-02
    0.75773580291201144896E-02
    0.79193645983261628379E-02
    0.80100149071099125547E-02
    0.81343116329017708943E-02
    0.81863897248980379423E-02
    0.81198193576568367807E-02
    0.81794888874260514300E-02
    0.80879235367275013197E-02
    0.79847547633061580208E-02
    0.78691029742378147682E-02
    0.78067824271192140864E-02
    0.78669382291559689091E-02
    0.78130355307330905806E-02
    0.79760692637934945542E-02
    0.80095109431523280052E-02
    0.76428766257984346102E-02
    0.77149143674835139045E-02
    0.78480411188797741251E-02
    0.78842727993410268578E-02
    0.77916017303158837184E-02
    0.78246530566966135400E-02
    0.77132365709953959812E-02
    0.76301338374270650730E-02
    0.75067665799010150143E-02
    0.74630099936772113095E-02
    0.75475021243754589206E-02
    0.75204257836989762270E-02
    0.76566021215893056637E-02
    0.76800085392781059987E-02
    0.80800445749385826216E-02
    0.81551679785052625521E-02
    0.82939067281922688318E-02
    0.83304181488816839152E-02
    0.82337470342525465733E-02
    0.82667096474975526599E-02
    0.81514420291589461537E-02
    0.80654655229535042460E-02
    0.79362054554276799390E-02
    0.78899635413993071675E-02
    0.79791997239051764418E-02
    0.79505082903562913216E-02
    0.80937797959623088151E-02
    0.81179978818325410767E-02
    0.71020587626633834705E-02
    0.71448466149863498753E-02
    0.72672435530139172649E-02
    0.72837261785879073989E-02
    0.71793472108526348169E-02
    0.71837207142859352965E-02
    0.70689820213784317071E-02
    0.70162325447329096720E-02
    0.69043790584183643150E-02
    0.68851170310482495349E-02
    0.69795363130471998678E-02
    0.69832442665860670200E-02
    0.70717446288521045375E-02
    0.70822044782990678166E-02
    0.74739674558164329726E-02
    0.75272504166361050432E-02
    0.76641016811656494795E-02
    0.76853724779189641625E-02
    0.75724015555702125363E-02
    0.75810387589041348597E-02
    0.74550959697075045232E-02
    0.73923691780682409050E-02
    0.72660477301816532927E-02
    0.72401556600314815812E-02
    0.73435673208799888759E-02
    0.73412477292365604237E-02
    0.74491836911915777775E-02
    0.74629866168289737613E-02
    0.74081877704815389182E-02
    0.74421887763433322571E-02
    0.75771596914416851354E-02
    0.75841633532409066798E-02
    0.74570786669049069634E-02
    0.74435060605001412623E-02
    0.73090098333969096348E-02
    0.72669751560364486895E-02
    0.71427706427053226645E-02
    0.71342087319978724283E-02
    0.72508542683261617903E-02
    0.72714064059113542315E-02
    0.73491494800364204690E-02
    0.73537053316444864898E-02
    0.77959549982653661079E-02
    0.78403384680952332292E-02
    0.79907617781934513895E-02
    0.80022050894692255130E-02
    0.78651853334980072197E-02
    0.78550546206511261821E-02
    0.77081087936113510881E-02
    0.76564208845786461619E-02
    0.75168019494750923370E-02
    0.75019611971650738969E-02
    0.76288900097601234154E-02
    0.76440267125650268945E-02
    0.77412416685919121367E-02
    0.77489364278556377430E-02
    0.78935070251392510515E-02
    0.79533598943415228372E-02
    0.81008337241731936257E-02
    0.81243077426409130576E-02
    0.80041464509325536275E-02
    0.80142429761257925891E-02
    0.78799889268371791501E-02
    0.78111279298255040932E-02
    0.76740329078182952655E-02
    0.76438797860323565159E-02
    0.77550648784161617388E-02
    0.77494580502486991661E-02
    0.78704929415140713334E-02
    0.78861903418776680558E-02
    0.83449219091671304055E-02
    0.84071534266352207498E-02
    0.85610072502445115628E-02
    0.85840010023885884166E-02
    0.84583182666050412551E-02
    0.84669936430931784510E-02
    0.83276429150030192167E-02
    0.82567446596892545008E-02
    0.81129917627701126498E-02
    0.80811203623932775092E-02
    0.81985663070411191056E-02
    0.81925517224436215924E-02
    0.83198257098635770845E-02
    0.83358891479861953189E-02
    0.82333823535891848683E-02
    0.82839988420608055147E-02
    0.84459313674485440859E-02
    0.84590754934929460879E-02
    0.83134797938674825230E-02
    0.83037956499969183682E-02
    0.81473066258612603791E-02
    0.80900070046481774300E-02
    0.79387392358853600682E-02
    0.79201457588028972151E-02
    0.80562208526283977938E-02
    0.80689013045028672166E-02
    0.81789142555138832913E-02
    0.81882084912558664863E-02
    0.87040732431674459196E-02
    0.87565264623502281349E-02
    0.89255908988866965864E-02
    0.89376216922284219130E-02
    0.87851208744809464180E-02
    0.87728517349338810266E-02
    0.86100848591475608734E-02
    0.85514449280970957629E-02
    0.83927411771357110504E-02
    0.83730738219641390879E-02
    0.85168170456954017666E-02
    0.85301057685788148066E-02
    0.86457401212636925125E-02
    0.86550273347951404285E-02
    0.69396029462583932665E-02
    0.68917715183303245030E-02
    0.69460386783433926070E-02
    0.69046684057036296356E-02
    0.68069692055401842187E-02
    0.67394563501024613503E-02
    0.66593589686500280142E-02
    0.66968886437178028193E-02
    0.66510955588177699330E-02
    0.66965406122196889649E-02
    0.67848780860055206768E-02
    0.68653780969704092385E-02
    0.68046287839508383388E-02
    0.67792425060521832245E-02
    0.70136473455841008562E-02
    0.69885472981294806394E-02
    0.70683463085139744408E-02
    0.70402642217453721349E-02
    0.69304488272130702550E-02
    0.68763500578746649533E-02
    0.67766688163104606482E-02
    0.67925637799370486986E-02
    0.67220566795844188118E-02
    0.67537576619853666865E-02
    0.68535209500845024888E-02
    0.69192726352213318811E-02
    0.68968836347768494935E-02
    0.68793923800472391375E-02
    0.73235245698039467405E-02
    0.72692127218976958572E-02
    0.73292223718211283942E-02
    0.72819005150091126177E-02
    0.71714502502168604725E-02
    0.70925488685089745425E-02
    0.70009092739597815480E-02
    0.70463115722598267457E-02
    0.69941813073781900975E-02
    0.70474377899050616447E-02
    0.71487161253286531093E-02
    0.72404386546537271435E-02
    0.71706157305313810227E-02
    0.71412075250765595993E-02
    0.74016370894669312325E-02
    0.73712467135467266144E-02
    0.74582211537526470202E-02
    0.74248406878364547196E-02
    0.73014836791817933764E-02
    0.72365505963574048784E-02
    0.71241814708173775358E-02
    0.71469327876821772336E-02
    0.70687646624527852857E-02
    0.71076080805135754756E-02
    0.72210112527074645991E-02
    0.72972785864310833054E-02
    0.72677909765959487418E-02
    0.72466583511930507747E-02
    0.71837207149744886775E-02
    0.71793472114626659397E-02
    0.72837261792336642843E-02
    0.72672435535883215044E-02
    0.71448466154567045333E-02
    0.71020587630278341276E-02
    0.69832442668480970011E-02
    0.69795363133990642387E-02
    0.68851170313645867690E-02
    0.69043790588048294804E-02
    0.70162325452423042818E-02
    0.70689820220236447568E-02
    0.70822044788064380041E-02
    0.70717446293158126025E-02
    0.74435060610807384646E-02
    0.74570786673635643810E-02
    0.75841633536852205363E-02
    0.75771596917871848059E-02
    0.74421887766083754528E-02
    0.74081877706113049079E-02
    0.72714064059812809349E-02
    0.72508542685314480991E-02
    0.71342087322207713845E-02
    0.71427706430325010531E-02
    0.72669751564513329622E-02
    0.73090098339633757796E-02
    0.73537053320101809437E-02
    0.73491494803428810551E-02
    0.75810387602164895984E-02
    0.75724015567684216030E-02
    0.76853724791671445410E-02
    0.76641016823112200970E-02
    0.75272504176330115935E-02
    0.74739674566597948113E-02
    0.73412477299465211597E-02
    0.73435673217128009937E-02
    0.72401556608119267341E-02
    0.72660477310626083239E-02
    0.73923691791182803007E-02
    0.74550959709402285155E-02
    0.74629866178795387782E-02
    0.74491836921806546534E-02
    0.78550546218334287019E-02
    0.78651853345253434219E-02
    0.80022050904963622220E-02
    0.79907617790929159202E-02
    0.78403384688718654599E-02
    0.77959549988625368583E-02
    0.76440267130724985634E-02
    0.76288900104328682614E-02
    0.75019611978381856368E-02
    0.75168019502801827064E-02
    0.76564208855162182304E-02
    0.77081087947449451747E-02
    0.77489364287473827542E-02
    0.77412416694079173862E-02
    0.77420967657115943514E-02
    0.76837828217103535181E-02
    0.77479485010156900343E-02
    0.76970064855776043275E-02
    0.75775701566602850570E-02
    0.74908506596589588197E-02
    0.73903512485114569372E-02
    0.74412854821830892033E-02
    0.73843040393262553145E-02
    0.74432614728521650366E-02
    0.75537680167395045150E-02
    0.76531506180476244205E-02
    0.75773580310224452131E-02
    0.75452277024261396599E-02
    0.78246530588601068829E-02
    0.77916017323449715537E-02
    0.78842728014546937382E-02
    0.78480411208744892820E-02
    0.77149143692609185169E-02
    0.76428766273641361717E-02
    0.75204257850991287904E-02
    0.75475021259241966212E-02
    0.74630099951444039963E-02
    0.75067665815024605530E-02
    0.76301338392396039073E-02
    0.77132365730158674449E-02
    0.76800085411085064133E-02
    0.76566021233439706534E-02
    0.81794888906664680456E-02
    0.81198193607281022449E-02
    0.81863897280654678024E-02
    0.81343116359002785865E-02
    0.80100149098571316736E-02
    0.79193646008134770120E-02
    0.78130355330243931450E-02
    0.78669382316408076328E-02
    0.78067824295179688923E-02
    0.78691029767924587646E-02
    0.79847547661268999247E-02
    0.80879235398244129357E-02
    0.80095109459828155857E-02
    0.79760692665270267049E-02
    0.82667096506447920734E-02
    0.82337470372398080531E-02
    0.83304181519713183662E-02
    0.82939067311264980803E-02
    0.81551679811832644695E-02
    0.80800445773604890470E-02
    0.79505082925866426419E-02
    0.79791997263159702286E-02
    0.78899635437153659706E-02
    0.79362054579053438463E-02
    0.80654655256834507232E-02
    0.81514420321398568109E-02
    0.81179978845811757299E-02
    0.80937797986186197502E-02
    0.80142429782361062490E-02
    0.80041464528927373789E-02
    0.81243077446607261938E-02
    0.81008337260594798918E-02
    0.79533598960397008937E-02
    0.78935070266379445819E-02
    0.77494580515884503927E-02
    0.77550648799118533303E-02
    0.76438797874628736789E-02
    0.76740329093789852108E-02
    0.78111279315967374268E-02
    0.78799889288359639683E-02
    0.78861903436490878722E-02
    0.78704929432065178635E-02
    0.83037956519430664720E-02
    0.83134797956249915918E-02
    0.84590754952588807086E-02
    0.84459313690583466550E-02
    0.82839988435115547577E-02
    0.82333823548183544122E-02
    0.80689013056188269718E-02
    0.80562208539395798595E-02
    0.79201457601019292776E-02
    0.79387392373432719844E-02
    0.80900070062779865648E-02
    0.81473066277295488891E-02