# vtk DataFile Version 3.0
LAPLACIEN  2D
ASCII
DATASET UNSTRUCTURED_GRID
FIELD FieldData 1
TIME 1 1 double
19.4000
 POINTS        7297  float
   1.5625000000000000E-002  0.96875000000000000        0.0000000000000000     
   3.1250000000000000E-002  0.96875000000000000        0.0000000000000000     
   3.1250000000000000E-002  0.98437500000000000        0.0000000000000000     
   9.3749999999999997E-003  0.97812500000000002        0.0000000000000000     
   2.0312500000000001E-002  0.97968750000000004        0.0000000000000000     
   2.1874999999999999E-002  0.99062499999999998        0.0000000000000000     
   1.0937499999999999E-002  0.98906249999999996        0.0000000000000000     
   4.6875000000000000E-002  0.96875000000000000        0.0000000000000000     
   6.2500000000000000E-002  0.96875000000000000        0.0000000000000000     
   6.2500000000000000E-002  0.98437500000000000        0.0000000000000000     
   4.0625000000000001E-002  0.97812500000000002        0.0000000000000000     
   5.1562499999999997E-002  0.97968750000000004        0.0000000000000000     
   5.3124999999999999E-002  0.99062499999999998        0.0000000000000000     
   4.2187500000000003E-002  0.98906249999999996        0.0000000000000000     
   1.5625000000000000E-002  0.93750000000000000        0.0000000000000000     
   3.1250000000000000E-002  0.93750000000000000        0.0000000000000000     
   3.1250000000000000E-002  0.95312500000000000        0.0000000000000000     
   9.3749999999999997E-003  0.94687500000000002        0.0000000000000000     
   2.0312500000000001E-002  0.94843750000000004        0.0000000000000000     
   2.1874999999999999E-002  0.95937499999999998        0.0000000000000000     
   1.0937499999999999E-002  0.95781249999999996        0.0000000000000000     
   4.6875000000000000E-002  0.93750000000000000        0.0000000000000000     
   6.2500000000000000E-002  0.93750000000000000        0.0000000000000000     
   6.2500000000000000E-002  0.95312500000000000        0.0000000000000000     
   4.0625000000000001E-002  0.94687500000000002        0.0000000000000000     
   5.1562499999999997E-002  0.94843750000000004        0.0000000000000000     
   5.3124999999999999E-002  0.95937499999999998        0.0000000000000000     
   4.2187500000000003E-002  0.95781249999999996        0.0000000000000000     
   7.8125000000000000E-002  0.96875000000000000        0.0000000000000000     
   9.3750000000000000E-002  0.96875000000000000        0.0000000000000000     
   9.3750000000000000E-002  0.98437500000000000        0.0000000000000000     
   7.1874999999999994E-002  0.97812500000000002        0.0000000000000000     
   8.2812499999999997E-002  0.97968750000000004        0.0000000000000000     
   8.4375000000000006E-002  0.99062499999999998        0.0000000000000000     
   7.3437500000000003E-002  0.98906249999999996        0.0000000000000000     
  0.10937500000000000       0.96875000000000000        0.0000000000000000     
  0.12500000000000000       0.96875000000000000        0.0000000000000000     
  0.12500000000000000       0.98437500000000000        0.0000000000000000     
  0.10312499999999999       0.97812500000000002        0.0000000000000000     
  0.11406250000000000       0.97968750000000004        0.0000000000000000     
  0.11562500000000001       0.99062499999999998        0.0000000000000000     
  0.10468750000000000       0.98906249999999996        0.0000000000000000     
   7.8125000000000000E-002  0.93750000000000000        0.0000000000000000     
   9.3750000000000000E-002  0.93750000000000000        0.0000000000000000     
   9.3750000000000000E-002  0.95312500000000000        0.0000000000000000     
   7.1874999999999994E-002  0.94687500000000002        0.0000000000000000     
   8.2812499999999997E-002  0.94843750000000004        0.0000000000000000     
   8.4375000000000006E-002  0.95937499999999998        0.0000000000000000     
   7.3437500000000003E-002  0.95781249999999996        0.0000000000000000     
  0.10937500000000000       0.93750000000000000        0.0000000000000000     
  0.12500000000000000       0.93750000000000000        0.0000000000000000     
  0.12500000000000000       0.95312500000000000        0.0000000000000000     
  0.10312499999999999       0.94687500000000002        0.0000000000000000     
  0.11406250000000000       0.94843750000000004        0.0000000000000000     
  0.11562500000000001       0.95937499999999998        0.0000000000000000     
  0.10468750000000000       0.95781249999999996        0.0000000000000000     
   1.5625000000000000E-002  0.90625000000000000        0.0000000000000000     
   3.1250000000000000E-002  0.90625000000000000        0.0000000000000000     
   3.1250000000000000E-002  0.92187500000000000        0.0000000000000000     
   9.3749999999999997E-003  0.91562500000000002        0.0000000000000000     
   2.0312500000000001E-002  0.91718750000000004        0.0000000000000000     
   2.1874999999999999E-002  0.92812499999999998        0.0000000000000000     
   1.0937499999999999E-002  0.92656249999999996        0.0000000000000000     
   4.6875000000000000E-002  0.90625000000000000        0.0000000000000000     
   6.2500000000000000E-002  0.90625000000000000        0.0000000000000000     
   6.2500000000000000E-002  0.92187500000000000        0.0000000000000000     
   4.0625000000000001E-002  0.91562500000000002        0.0000000000000000     
   5.1562499999999997E-002  0.91718750000000004        0.0000000000000000     
   5.3124999999999999E-002  0.92812499999999998        0.0000000000000000     
   4.2187500000000003E-002  0.92656249999999996        0.0000000000000000     
   1.5625000000000000E-002  0.87500000000000000        0.0000000000000000     
   3.1250000000000000E-002  0.87500000000000000        0.0000000000000000     
   3.1250000000000000E-002  0.89062500000000000        0.0000000000000000     
   9.3749999999999997E-003  0.88437500000000002        0.0000000000000000     
   2.0312500000000001E-002  0.88593750000000004        0.0000000000000000     
   2.1874999999999999E-002  0.89687499999999998        0.0000000000000000     
   1.0937499999999999E-002  0.89531249999999996        0.0000000000000000     
   4.6875000000000000E-002  0.87500000000000000        0.0000000000000000     
   6.2500000000000000E-002  0.87500000000000000        0.0000000000000000     
   6.2500000000000000E-002  0.89062500000000000        0.0000000000000000     
   4.0625000000000001E-002  0.88437500000000002        0.0000000000000000     
   5.1562499999999997E-002  0.88593750000000004        0.0000000000000000     
   5.3124999999999999E-002  0.89687499999999998        0.0000000000000000     
   4.2187500000000003E-002  0.89531249999999996        0.0000000000000000     
   7.8125000000000000E-002  0.90625000000000000        0.0000000000000000     
   9.3750000000000000E-002  0.90625000000000000        0.0000000000000000     
   9.3750000000000000E-002  0.92187500000000000        0.0000000000000000     
   7.1874999999999994E-002  0.91562500000000002        0.0000000000000000     
   8.2812499999999997E-002  0.91718750000000004        0.0000000000000000     
   8.4375000000000006E-002  0.92812499999999998        0.0000000000000000     
   7.3437500000000003E-002  0.92656249999999996        0.0000000000000000     
  0.10937500000000000       0.90625000000000000        0.0000000000000000     
  0.12500000000000000       0.90625000000000000        0.0000000000000000     
  0.12500000000000000       0.92187500000000000        0.0000000000000000     
  0.10312499999999999       0.91562500000000002        0.0000000000000000     
  0.11406250000000000       0.91718750000000004        0.0000000000000000     
  0.11562500000000001       0.92812499999999998        0.0000000000000000     
  0.10468750000000000       0.92656249999999996        0.0000000000000000     
   7.8125000000000000E-002  0.87500000000000000        0.0000000000000000     
   9.3750000000000000E-002  0.87500000000000000        0.0000000000000000     
   9.3750000000000000E-002  0.89062500000000000        0.0000000000000000     
   7.1874999999999994E-002  0.88437500000000002        0.0000000000000000     
   8.2812499999999997E-002  0.88593750000000004        0.0000000000000000     
   8.4375000000000006E-002  0.89687499999999998        0.0000000000000000     
   7.3437500000000003E-002  0.89531249999999996        0.0000000000000000     
  0.10937500000000000       0.87500000000000000        0.0000000000000000     
  0.12500000000000000       0.87500000000000000        0.0000000000000000     
  0.12500000000000000       0.89062500000000000        0.0000000000000000     
  0.10312499999999999       0.88437500000000002        0.0000000000000000     
  0.11406250000000000       0.88593750000000004        0.0000000000000000     
  0.11562500000000001       0.89687499999999998        0.0000000000000000     
  0.10468750000000000       0.89531249999999996        0.0000000000000000     
  0.14062500000000000       0.96875000000000000        0.0000000000000000     
  0.15625000000000000       0.96875000000000000        0.0000000000000000     
  0.15625000000000000       0.98437500000000000        0.0000000000000000     
  0.13437499999999999       0.97812500000000002        0.0000000000000000     
  0.14531250000000001       0.97968750000000004        0.0000000000000000     
  0.14687500000000001       0.99062499999999998        0.0000000000000000     
  0.13593749999999999       0.98906249999999996        0.0000000000000000     
  0.17187500000000000       0.96875000000000000        0.0000000000000000     
  0.18750000000000000       0.96875000000000000        0.0000000000000000     
  0.18750000000000000       0.98437500000000000        0.0000000000000000     
  0.16562499999999999       0.97812500000000002        0.0000000000000000     
  0.17656250000000001       0.97968750000000004        0.0000000000000000     
[...]
 CELL_DATA       14336
 SCALARS Tumor_cells float
 LOOKUP_TABLE default
    0.63367300046145644266E-01
    0.63367299596008674900E-01
    0.63367303170035721438E-01
    0.63367303170034749993E-01
    0.63367299596012519047E-01
    0.63367300046142313596E-01
    0.63367297216340379151E-01
    0.63367295540399895537E-01
    0.63367293728990581325E-01
    0.63367293728968585032E-01
    0.63367295540411233690E-01
    0.63367297216335688459E-01
    0.63367296955876700748E-01
    0.63367296955873134157E-01
    0.63367311813577673063E-01
    0.63367314948697364696E-01
    0.63367323463131050576E-01
    0.63367325821383990725E-01
    0.63367319434361829567E-01
    0.63367322490490471387E-01
    0.63367315798365950186E-01
    0.63367310239105967273E-01
    0.63367304367016971667E-01
    0.63367302274561762565E-01
    0.63367305923669375867E-01
    0.63367305475947877103E-01
    0.63367311207152429708E-01
    0.63367312461373934140E-01
    0.63367322490491137521E-01
    0.63367319434361246699E-01
    0.63367325821384282158E-01
    0.63367323463130828531E-01
    0.63367314948698322263E-01
    0.63367311813576507329E-01
    0.63367305475950222449E-01
    0.63367305923667099909E-01
    0.63367302274564760167E-01
    0.63367304367014182231E-01
    0.63367310239107479952E-01
    0.63367315798365492219E-01
    0.63367312461374683541E-01
    0.63367311207152110519E-01
    0.63367338315838531160E-01
    0.63367339692795135453E-01
    0.63367353033188342226E-01
    0.63367353033188231204E-01
    0.63367339692795371375E-01
    0.63367338315838170337E-01
    0.63367326499977866261E-01
    0.63367323136267084127E-01
    0.63367314358550419495E-01
    0.63367314358549267639E-01
    0.63367323136267805772E-01
    0.63367326499977422172E-01
    0.63367330383992434562E-01
    0.63367330383992240272E-01
    0.63367343305456125258E-01
    0.63367351802987706422E-01
    0.63367368456771100416E-01
    0.63367374663479678065E-01
    0.63367363643044793964E-01
    0.63367371098988392597E-01
    0.63367357939715471260E-01
    0.63367345734060789852E-01
    0.63367333116922275327E-01
    0.63367327787033578268E-01
    0.63367334517815968042E-01
    0.63367331282989852737E-01
    0.63367345989086332203E-01
    0.63367349345006818151E-01
    0.63367406463201658706E-01
    0.63367423633884034651E-01
    0.63367453130582118703E-01
    0.63367465129870681473E-01
    0.63367446503936566971E-01
    0.63367460320772575622E-01
    0.63367436999573450995E-01
    0.63367414835031610210E-01
    0.63367391800733738338E-01
    0.63367381340296874415E-01
    0.63367393169559776966E-01
    0.63367385354281033361E-01
    0.63367414388921031176E-01
    0.63367420909188926226E-01
    0.63367379689548072874E-01
    0.63367386339581333043E-01
    0.63367409780173244993E-01
    0.63367412907203879424E-01
    0.63367392062547267528E-01
    0.63367393253499201822E-01
    0.63367372705261451604E-01
    0.63367363640545668058E-01
    0.63367346845668026667E-01
    0.63367344318162779904E-01
    0.63367358383236954689E-01
    0.63367359958747829229E-01
    0.63367372831415899603E-01
    0.63367374437463069858E-01
    0.63367458171296756064E-01
    0.63367473505197072225E-01
    0.63367513936177760625E-01
    0.63367522310778620631E-01
    0.63367488879834191207E-01
    0.63367494215689490478E-01
    0.63367459462153857830E-01
    0.63367441175732716618E-01
    0.63367411488889024973E-01
    0.63367404770665769487E-01
    0.63367427094233319540E-01
    0.63367425837829990942E-01
    0.63367453223305669763E-01
    0.63367457532108512064E-01
    0.63367371098988878320E-01
    0.63367363643045016008E-01
    0.63367374663480108277E-01
    0.63367368456771377971E-01
    0.63367351802988136633E-01
    0.63367343305456041991E-01
    0.63367331282990463359E-01
    0.63367334517815745998E-01
    0.63367327787034202768E-01
    0.63367333116922067160E-01
    0.63367345734061275575E-01
    0.63367357939715734938E-01
    0.63367349345007192851E-01
    0.63367345989086554248E-01
    0.63367393253499590400E-01
    0.63367392062547461817E-01
    0.63367412907204170858E-01
    0.63367409780173411527E-01
    0.63367386339581568966E-01
    0.63367379689548058996E-01
    0.63367359958748051274E-01
    0.63367358383236885300E-01
    0.63367344318163196237E-01
    0.63367346845667998911E-01
    0.63367363640546042758E-01
    0.63367372705261673649E-01
    0.63367374437463333536E-01
    0.63367372831416066137E-01
    0.63367460320773422167E-01
    0.63367446503937288615E-01
    0.63367465129871444751E-01
    0.63367453130582784837E-01
    0.63367423633884673029E-01
    0.63367406463202088918E-01
    0.63367385354281546839E-01
    0.63367393169560193300E-01
    0.63367381340297401771E-01
    0.63367391800734196305E-01
    0.63367414835032276343E-01
    0.63367436999574228151E-01
    0.63367420909189592360E-01
    0.63367414388921627921E-01
    0.63367494215690267634E-01
    0.63367488879834871218E-01
    0.63367522310779383909E-01
    0.63367513936178412881E-01
    0.63367473505197599581E-01
    0.63367458171297116887E-01
    0.63367425837830324009E-01
    0.63367427094233680362E-01
    0.63367404770666213576E-01
    0.63367411488889469062E-01
    0.63367441175733299485E-01
    0.63367459462154496208E-01
    0.63367457532109094931E-01
    0.63367453223306183241E-01
    0.63367451022808191086E-01
    0.63367456197618535207E-01
    0.63367491011550994284E-01
    0.63367491011550938773E-01
    0.63367456197618493574E-01
    0.63367451022807996797E-01
    0.63367419308011707635E-01
    0.63367411962489655908E-01
    0.63367387640982916763E-01
    0.63367387640982861252E-01
    0.63367411962489808563E-01
    0.63367419308011846413E-01
    0.63367432061240430707E-01
    0.63367432061240389074E-01
    0.63367558647429322871E-01
    0.63367574000933249434E-01
    0.63367632704804000010E-01
    0.63367638188755709416E-01
    0.63367583541433430971E-01
    0.63367580647433641161E-01
    0.63367528036255268975E-01
    0.63367511041483248757E-01
    0.63367469447241531189E-01
    0.63367465734652822507E-01
    0.63367502854560053827E-01
    0.63367508465559024833E-01
    0.63367538439486725821E-01
    0.63367541035288868501E-01
    0.63367580647434335051E-01
    0.63367583541433999961E-01
    0.63367638188756292283E-01
    0.63367632704804430221E-01
    0.63367574000933582501E-01
    0.63367558647429475527E-01
    0.63367508465559135855E-01
    0.63367502854560275871E-01
    0.63367465734653113940E-01
    0.63367469447241850378E-01
    0.63367511041483720602E-01
    0.63367528036255907353E-01
    0.63367541035289312590E-01
    0.63367538439487086643E-01
    0.63367738227698255926E-01
    0.63367752806223628936E-01
    0.63367841404235611402E-01
    0.63367841404235486502E-01
    0.63367752806223448525E-01
    0.63367738227697853470E-01
    0.63367657759575687915E-01
    0.63367640447034495610E-01
    0.63367579090133810404E-01
    0.63367579090133865916E-01
    0.63367640447034662143E-01
    0.63367657759576076493E-01
    0.63367691780778806487E-01
    0.63367691780778750976E-01
    0.63367520105293395627E-01
    0.63367551050071413421E-01
    0.63367602265327102606E-01
    0.63367623793248797903E-01
    0.63367591912722787129E-01
    0.63367616356401298972E-01
    0.63367576016784138426E-01
    0.63367537187453984449E-01
    0.63367497002592892974E-01
    0.63367478426361659172E-01
    0.63367498642971240019E-01
    0.63367484061169987442E-01
    0.63367535721573817198E-01
    0.63367547347935995750E-01
    0.63367719523092252976E-01
    0.63367773704040966654E-01
    0.63367862980750755408E-01
    0.63367900185718209483E-01
    0.63367844427804700946E-01
    0.63367886082998259312E-01
    0.63367816546067809447E-01
    0.63367749597051797883E-01
    0.63367679985516456309E-01
    0.63367647778967514660E-01
    0.63367682667374816696E-01
    0.63367656920388121256E-01
    0.63367747111946329253E-01
    0.63367767277412528903E-01
    0.63367599772750457521E-01
    0.63367629879621648059E-01
    0.63367700196427234616E-01
    0.63367717476155507872E-01
    0.63367661163616750830E-01
    0.63367672707824368450E-01
    0.63367612667990652620E-01
    0.63367579431386392153E-01
    0.63367527944195145562E-01
    0.63367514712520028874E-01
    0.63367551302527053148E-01
    0.63367545489825247151E-01
    0.63367597341327797089E-01
    0.63367606038093465814E-01
    0.63367852281646638857E-01
    0.63367907970603445933E-01
    0.63368031671401287008E-01
    0.63368063550929207284E-01
    0.63367965258738653822E-01
    0.63367985917197569568E-01
    0.63367881154971800184E-01
    0.63367822599255302363E-01
    0.63367732823636668815E-01
    0.63367708826683480372E-01
    0.63367771408071218997E-01
    0.63367758658366121760E-01
    0.63367852402481675278E-01
    0.63367868280094968858E-01
    0.63368066282915011533E-01
    0.63368158499875551493E-01
    0.63368312277350985484E-01
    0.63368373466692093365E-01
    0.63368276138248302853E-01
    0.63368344236808968328E-01
    0.63368226511608657936E-01
    0.63368113576557416611E-01
    0.63367995029537882434E-01
    0.63367940097564703916E-01
    0.63368000722516970580E-01
    0.63367957424919754694E-01
    0.63368111110565700228E-01
    0.63368144865452197267E-01
    0.63368659011288880345E-01
    0.63368809140872062180E-01
    0.63369069526103022350E-01
    0.63369163975460982008E-01
    0.63368995136680553171E-01
    0.63369100305924713767E-01
    0.63368906833171936843E-01
    0.63368722391597437360E-01
    0.63368525321936972072E-01
    0.63368434715437085836E-01
    0.63368539182894700890E-01
    0.63368470425328587980E-01
    0.63368723844060725892E-01
    0.63368777912973434097E-01
    0.63368301960711859167E-01
    0.63368400590462489741E-01
    0.63368620148901474987E-01
    0.63368674361715796040E-01
    0.63368497929605763219E-01
    0.63368529008420312887E-01
    0.63368345638915357654E-01
    0.63368246494344193653E-01
    0.63368090049057232416E-01
    0.63368048956088968149E-01
    0.63368159056218509306E-01
    0.63368136507227487697E-01
    0.63368301387772468791E-01
    0.63368328449078123454E-01
    0.63369098135581364284E-01
    0.63369264618586010340E-01
    0.63369652727603961728E-01
    0.63369735666207779867E-01
    0.63369415670365872306E-01
    0.63369451482906569151E-01
    0.63369132634894839717E-01
    0.63368973115040083677E-01
    0.63368703424026326387E-01
    0.63368637351564088833E-01
    0.63368834696790068972E-01
    0.63368802323249109887E-01
    0.63369081624697246036E-01
    0.63369124015107636261E-01
    0.63367751394612009674E-01
    0.63367784748977903919E-01
    0.63367885319383546183E-01
    0.63367900810210528451E-01
    0.63367811126621209628E-01
    0.63367812352941810250E-01
    0.63367722551325972313E-01
    0.63367688689583159811E-01
    0.63367616994475198244E-01
    0.63367607026471123310E-01
    0.63367666584697307508E-01
    0.63367669358233638666E-01
    0.63367729116981560966E-01
    0.63367736204228142238E-01
    0.63368095861022669113E-01
    0.63368162699458774334E-01
    0.63368340177951523740E-01
    0.63368374417060946424E-01
    0.63368219923779098290E-01
    0.63368227467476667680E-01
    0.63368069790573786082E-01
    0.63368006540243784763E-01
    0.63367880484314548228E-01
    0.63367859545046714698E-01
    0.63367959506043319839E-01
    0.63367956650564480348E-01
    0.63368070962482161979E-01
    0.63368086223648770194E-01
    0.63368011741562618733E-01
    0.63368048735632634405E-01
    0.63368195677317981640E-01
    0.63368207817456251307E-01
    0.63368068614366016011E-01
    0.63368057319507439806E-01
    0.63367923580785925908E-01
    0.63367885245690841467E-01
    0.63367781550748181196E-01
    0.63367774571532670125E-01
    0.63367869294012946213E-01
    0.63367885211614558005E-01
    0.63367957841402658414E-01
    0.63367963083977130179E-01
    0.63368491565732792958E-01
    0.63368573994766239088E-01
    0.63368827609549288615E-01
    0.63368866832627365748E-01
    0.63368636650664930676E-01
    0.63368634446211546951E-01
    0.63368402383797539645E-01
    0.63368323687410021972E-01
    0.63368143056019607395E-01
    0.63368122359187303849E-01
    0.63368275126452863755E-01
    0.63368285304107194178E-01
    0.63368431693869423094E-01
    0.63368447971740529678E-01
    0.63368721269116773387E-01
    0.63368849207138505664E-01
    0.63369169952600779006E-01
    0.63369235990531624925E-01
    0.63368958255303559080E-01
    0.63368971771996421283E-01
    0.63368689137251896226E-01
    0.63368576062104053914E-01
    0.63368351380511028781E-01
    0.63368312148479877255E-01
    0.63368487277088325627E-01
    0.63368475677343771846E-01
    0.63368688099270445435E-01
    0.63368717058308848822E-01
    0.63369867115548164649E-01
    0.63370100757618896825E-01
    0.63370687860294122595E-01
    0.63370801163160517255E-01
    0.63370286950986967622E-01
    0.63370294185081901817E-01
    0.63369783249169198136E-01
    0.63369591943412573176E-01
    0.63369189688265992189E-01
    0.63369123149805653417E-01
    0.63369440964193807231E-01
    0.63369420591843653168E-01
    0.63369803749664971315E-01
    0.63369853122655958599E-01
    0.63369363395200911659E-01
    0.63369537772294606826E-01
    0.63369996511401877060E-01
    0.63370089491514777769E-01
    0.63369684719792582217E-01
    0.63369697579975806101E-01
    0.63369278782187288268E-01
    0.63369125706997014857E-01
    0.63368800393158841722E-01
    0.63368753460248838927E-01
    0.63369013715434963085E-01
    0.63369008758738562537E-01
    0.63369300113430448995E-01
    0.63369338033308131308E-01
    0.63370997656999467074E-01
    0.63371347226602259273E-01
    0.63372204448621433093E-01
    0.63372392885020445430E-01
    0.63371642225697605300E-01
    0.63371666719347435892E-01
    0.63370891116380556607E-01
    0.63370608299453623502E-01
    0.63370009899326423808E-01
    0.63369917835464917300E-01
    0.63370386424536365166E-01
    0.63370355569832684250E-01
    0.63370919981265136367E-01
    0.63370995700190210775E-01
    0.63367616356402867162E-01
    0.63367591912724230419E-01
    0.63367623793250352215E-01
    0.63367602265328532019E-01
    0.63367551050072620789E-01
    0.63367520105294394828E-01
    0.63367484061170847864E-01
    0.63367498642972225342E-01
    0.63367478426362616739E-01
    0.63367497002593919930E-01
    0.63367537187455219572E-01
    0.63367576016785595594E-01
    0.63367547347937244751E-01
    0.63367535721574982932E-01
    0.63367672707825950518E-01
    0.63367661163618235753E-01
    0.63367717476157131573E-01
    0.63367700196428705661E-01
    0.63367629879622869304E-01
    0.63367599772751428966E-01
    0.63367545489826093696E-01
    0.63367551302528010715E-01
    0.63367514712520930931E-01
    0.63367527944196144762E-01
    0.63367579431387627276E-01
    0.63367612667992054276E-01
    0.63367606038094728693E-01
    0.63367597341328990579E-01
    0.63367886083001201403E-01
    0.63367844427807351604E-01
    0.63367900185721068307E-01
    0.63367862980753406066E-01
    0.63367773704043228733E-01
    0.63367719523094195866E-01
    0.63367656920389800468E-01
    0.63367682667376662442E-01
    0.63367647778969235506E-01
    0.63367679985518371444E-01
    0.63367749597054087718E-01
    0.63367816546070543371E-01
    0.63367767277414832616E-01
    0.63367747111948508065E-01
    0.63367985917200581047E-01
    0.63367965258741498769E-01
    0.63368063550932371419E-01
    0.63368031671404298488E-01
    0.63367907970605971690E-01
    0.63367852281648762158E-01
    0.63367758658367911995E-01
    0.63367771408073189643E-01
    0.63367708826685242851E-01
    0.63367732823638625583E-01
    0.63367822599257675464E-01
    0.63367881154974492475E-01
    0.63367868280097466860E-01
    0.63367852402484048380E-01
    0.63367812352943475585E-01
    0.63367811126622722306E-01
    0.63367900810212235418E-01
    0.63367885319385072740E-01
    0.63367784748979111287E-01
    0.63367751394612925608E-01
    0.63367669358234318677E-01
    0.63367666584698181809E-01
    0.63367607026471955978E-01
    0.63367616994476155812E-01
    0.63367688689584381057E-01
    0.63367722551327471114E-01
    0.63367736204229377361E-01
    0.63367729116982712823E-01
    0.63368057319509105141E-01
    0.63368068614367320524E-01
    0.63368207817457625208E-01
    0.63368195677319036352E-01
    0.63368048735633411561E-01
    0.63368011741562993433E-01
    0.63367885211614766172E-01
    0.63367869294013501325E-01
    0.63367774571533225236E-01
    0.63367781550748999986E-01
    0.63367885245691951690E-01
    0.63367923580787466342E-01
    0.63367963083978143257E-01
    0.63367957841403504959E-01
    0.63368227467480206516E-01
    0.63368219923782428959E-01
    0.63368374417064748938E-01
    0.63368340177955062575E-01
    0.63368162699461633158E-01
    0.63368095861025083848E-01
    0.63367956650566423238E-01
    0.63367959506045498652E-01
    0.63367859545048629832E-01
    0.63367880484316699286E-01
    0.63368006540246463176E-01
    0.63368069790576908584E-01
    0.63368086223651573508E-01
    0.63368070962484812636E-01
    0.63368634446215627021E-01
    0.63368636650668580534E-01
    0.63368866832631320918E-01
    0.63368827609552799696E-01
    0.63368573994769014646E-01
    0.63368491565734930138E-01
    0.63368285304108804001E-01
    0.63368275126454973178E-01
    0.63368122359189274495E-01
    0.63368143056021966619E-01
    0.63368323687412977940E-01
    0.63368402383801189504E-01
    0.63368447971743499525E-01
    0.63368431693872143140E-01
    0.63368344236814116988E-01
    0.63368276138253062935E-01
    0.63368373466697186513E-01
    0.63368312277355731688E-01
    0.63368158499879659318E-01
    0.63368066282918605880E-01
    0.63367957424922849441E-01
    0.63368000722520398393E-01
    0.63367940097567937441E-01
    0.63367995029541407392E-01
    0.63368113576561579947E-01
    0.63368226511613487406E-01
    0.63368144865456402237E-01
    0.63368111110569683153E-01
    0.63368529008425836246E-01
    0.63368497929611078412E-01
    0.63368674361721805122E-01
    0.63368620148907220391E-01
    0.63368400590467249822E-01
    0.63368301960716022503E-01
    0.63368136507230915511E-01
    0.63368159056222228553E-01
    0.63368048956092312696E-01
    0.63368090049060854518E-01
    0.63368246494348495768E-01
    0.63368345638920201002E-01
    0.63368328449082689247E-01
    0.63368301387776868050E-01
    0.63369100305933734329E-01
    0.63368995136688976988E-01
    0.63369163975470141348E-01
    0.63369069526111571067E-01
    0.63368809140879403530E-01
    0.63368659011295333516E-01
    0.63368470425334097462E-01
    0.63368539182900765483E-01
    0.63368434715442734095E-01
    0.63368525321943189321E-01
    0.63368722391604723199E-01
    0.63368906833180360660E-01
    0.63368777912980844835E-01
    0.63368723844067775808E-01
    0.63369451482916491769E-01
    0.63369415670375670024E-01
    0.63369735666219118020E-01
    0.63369652727614883547E-01
    0.63369264618595017025E-01
    0.63369098135589385645E-01
    0.63368802323255646325E-01
    0.63368834696797021744E-01
    0.63368637351570195060E-01
    0.63368703424032890581E-01
    0.63368973115047938505E-01
    0.63369132634903554968E-01
    0.63369124015116073956E-01
    0.63369081624705433931E-01
    0.63368971772003401810E-01
    0.63368958255310317562E-01
    0.63369235990539382608E-01
    0.63369169952608120355E-01
    0.63368849207144528624E-01
    0.63368721269122033068E-01
    0.63368475677347976815E-01
    0.63368487277092891419E-01
    0.63368312148483846302E-01
    0.63368351380515330895E-01
    0.63368576062109382985E-01
    0.63368689137257960819E-01
    0.63368717058314580348E-01
    0.63368688099275954917E-01
    0.63369697579984549107E-01
    0.63369684719800756234E-01
    0.63370089491524006498E-01
    0.63369996511410370266E-01
    0.63369537772301504086E-01
    0.63369363395206657064E-01
    0.63369008758743072818E-01
    0.63369013715440167256E-01
    0.63368753460253515741E-01
    0.63368800393164115281E-01
    0.63369125707003523540E-01
    0.63369278782194934929E-01