# vtk DataFile Version 3.0
LAPLACIEN  2D
ASCII
DATASET UNSTRUCTURED_GRID
FIELD FieldData 1
TIME 1 1 double
8.3000
 POINTS        7297  float
   1.5625000000000000E-002  0.96875000000000000        0.0000000000000000     
   3.1250000000000000E-002  0.96875000000000000        0.0000000000000000     
   3.1250000000000000E-002  0.98437500000000000        0.0000000000000000     
   9.3749999999999997E-003  0.97812500000000002        0.0000000000000000     
   2.0312500000000001E-002  0.97968750000000004        0.0000000000000000     
   2.1874999999999999E-002  0.99062499999999998        0.0000000000000000     
   1.0937499999999999E-002  0.98906249999999996        0.0000000000000000     
   4.6875000000000000E-002  0.96875000000000000        0.0000000000000000     
   6.2500000000000000E-002  0.96875000000000000        0.0000000000000000     
   6.2500000000000000E-002  0.98437500000000000        0.0000000000000000     
   4.0625000000000001E-002  0.97812500000000002        0.0000000000000000     
   5.1562499999999997E-002  0.97968750000000004        0.0000000000000000     
   5.3124999999999999E-002  0.99062499999999998        0.0000000000000000     
   4.2187500000000003E-002  0.98906249999999996        0.0000000000000000     
   1.5625000000000000E-002  0.93750000000000000        0.0000000000000000     
   3.1250000000000000E-002  0.93750000000000000        0.0000000000000000     
   3.1250000000000000E-002  0.95312500000000000        0.0000000000000000     
   9.3749999999999997E-003  0.94687500000000002        0.0000000000000000     
   2.0312500000000001E-002  0.94843750000000004        0.0000000000000000     
   2.1874999999999999E-002  0.95937499999999998        0.0000000000000000     
   1.0937499999999999E-002  0.95781249999999996        0.0000000000000000     
   4.6875000000000000E-002  0.93750000000000000        0.0000000000000000     
   6.2500000000000000E-002  0.93750000000000000        0.0000000000000000     
   6.2500000000000000E-002  0.95312500000000000        0.0000000000000000     
   4.0625000000000001E-002  0.94687500000000002        0.0000000000000000     
   5.1562499999999997E-002  0.94843750000000004        0.0000000000000000     
   5.3124999999999999E-002  0.95937499999999998        0.0000000000000000     
   4.2187500000000003E-002  0.95781249999999996        0.0000000000000000     
   7.8125000000000000E-002  0.96875000000000000        0.0000000000000000     
   9.3750000000000000E-002  0.96875000000000000        0.0000000000000000     
   9.3750000000000000E-002  0.98437500000000000        0.0000000000000000     
   7.1874999999999994E-002  0.97812500000000002        0.0000000000000000     
   8.2812499999999997E-002  0.97968750000000004        0.0000000000000000     
   8.4375000000000006E-002  0.99062499999999998        0.0000000000000000     
   7.3437500000000003E-002  0.98906249999999996        0.0000000000000000     
  0.10937500000000000       0.96875000000000000        0.0000000000000000     
  0.12500000000000000       0.96875000000000000        0.0000000000000000     
  0.12500000000000000       0.98437500000000000        0.0000000000000000     
  0.10312499999999999       0.97812500000000002        0.0000000000000000     
  0.11406250000000000       0.97968750000000004        0.0000000000000000     
  0.11562500000000001       0.99062499999999998        0.0000000000000000     
  0.10468750000000000       0.98906249999999996        0.0000000000000000     
   7.8125000000000000E-002  0.93750000000000000        0.0000000000000000     
   9.3750000000000000E-002  0.93750000000000000        0.0000000000000000     
   9.3750000000000000E-002  0.95312500000000000        0.0000000000000000     
   7.1874999999999994E-002  0.94687500000000002        0.0000000000000000     
   8.2812499999999997E-002  0.94843750000000004        0.0000000000000000     
   8.4375000000000006E-002  0.95937499999999998        0.0000000000000000     
   7.3437500000000003E-002  0.95781249999999996        0.0000000000000000     
  0.10937500000000000       0.93750000000000000        0.0000000000000000     
  0.12500000000000000       0.93750000000000000        0.0000000000000000     
  0.12500000000000000       0.95312500000000000        0.0000000000000000     
  0.10312499999999999       0.94687500000000002        0.0000000000000000     
  0.11406250000000000       0.94843750000000004        0.0000000000000000     
  0.11562500000000001       0.95937499999999998        0.0000000000000000     
  0.10468750000000000       0.95781249999999996        0.0000000000000000     
   1.5625000000000000E-002  0.90625000000000000        0.0000000000000000     
   3.1250000000000000E-002  0.90625000000000000        0.0000000000000000     
   3.1250000000000000E-002  0.92187500000000000        0.0000000000000000     
   9.3749999999999997E-003  0.91562500000000002        0.0000000000000000     
   2.0312500000000001E-002  0.91718750000000004        0.0000000000000000     
   2.1874999999999999E-002  0.92812499999999998        0.0000000000000000     
   1.0937499999999999E-002  0.92656249999999996        0.0000000000000000     
   4.6875000000000000E-002  0.90625000000000000        0.0000000000000000     
   6.2500000000000000E-002  0.90625000000000000        0.0000000000000000     
   6.2500000000000000E-002  0.92187500000000000        0.0000000000000000     
   4.0625000000000001E-002  0.91562500000000002        0.0000000000000000     
   5.1562499999999997E-002  0.91718750000000004        0.0000000000000000     
   5.3124999999999999E-002  0.92812499999999998        0.0000000000000000     
   4.2187500000000003E-002  0.92656249999999996        0.0000000000000000     
   1.5625000000000000E-002  0.87500000000000000        0.0000000000000000     
   3.1250000000000000E-002  0.87500000000000000        0.0000000000000000     
   3.1250000000000000E-002  0.89062500000000000        0.0000000000000000     
   9.3749999999999997E-003  0.88437500000000002        0.0000000000000000     
   2.0312500000000001E-002  0.88593750000000004        0.0000000000000000     
   2.1874999999999999E-002  0.89687499999999998        0.0000000000000000     
   1.0937499999999999E-002  0.89531249999999996        0.0000000000000000     
   4.6875000000000000E-002  0.87500000000000000        0.0000000000000000     
   6.2500000000000000E-002  0.87500000000000000        0.0000000000000000     
   6.2500000000000000E-002  0.89062500000000000        0.0000000000000000     
   4.0625000000000001E-002  0.88437500000000002        0.0000000000000000     
   5.1562499999999997E-002  0.88593750000000004        0.0000000000000000     
   5.3124999999999999E-002  0.89687499999999998        0.0000000000000000     
   4.2187500000000003E-002  0.89531249999999996        0.0000000000000000     
   7.8125000000000000E-002  0.90625000000000000        0.0000000000000000     
   9.3750000000000000E-002  0.90625000000000000        0.0000000000000000     
   9.3750000000000000E-002  0.92187500000000000        0.0000000000000000     
   7.1874999999999994E-002  0.91562500000000002        0.0000000000000000     
   8.2812499999999997E-002  0.91718750000000004        0.0000000000000000     
   8.4375000000000006E-002  0.92812499999999998        0.0000000000000000     
   7.3437500000000003E-002  0.92656249999999996        0.0000000000000000     
  0.10937500000000000       0.90625000000000000        0.0000000000000000     
  0.12500000000000000       0.90625000000000000        0.0000000000000000     
  0.12500000000000000       0.92187500000000000        0.0000000000000000     
  0.10312499999999999       0.91562500000000002        0.0000000000000000     
  0.11406250000000000       0.91718750000000004        0.0000000000000000     
  0.11562500000000001       0.92812499999999998        0.0000000000000000     
  0.10468750000000000       0.92656249999999996        0.0000000000000000     
   7.8125000000000000E-002  0.87500000000000000        0.0000000000000000     
   9.3750000000000000E-002  0.87500000000000000        0.0000000000000000     
   9.3750000000000000E-002  0.89062500000000000        0.0000000000000000     
   7.1874999999999994E-002  0.88437500000000002        0.0000000000000000     
   8.2812499999999997E-002  0.88593750000000004        0.0000000000000000     
   8.4375000000000006E-002  0.89687499999999998        0.0000000000000000     
   7.3437500000000003E-002  0.89531249999999996        0.0000000000000000     
  0.10937500000000000       0.87500000000000000        0.0000000000000000     
  0.12500000000000000       0.87500000000000000        0.0000000000000000     
  0.12500000000000000       0.89062500000000000        0.0000000000000000     
  0.10312499999999999       0.88437500000000002        0.0000000000000000     
  0.11406250000000000       0.88593750000000004        0.0000000000000000     
  0.11562500000000001       0.89687499999999998        0.0000000000000000     
  0.10468750000000000       0.89531249999999996        0.0000000000000000     
  0.14062500000000000       0.96875000000000000        0.0000000000000000     
  0.15625000000000000       0.96875000000000000        0.0000000000000000     
  0.15625000000000000       0.98437500000000000        0.0000000000000000     
  0.13437499999999999       0.97812500000000002        0.0000000000000000     
  0.14531250000000001       0.97968750000000004        0.0000000000000000     
  0.14687500000000001       0.99062499999999998        0.0000000000000000     
  0.13593749999999999       0.98906249999999996        0.0000000000000000     
  0.17187500000000000       0.96875000000000000        0.0000000000000000     
  0.18750000000000000       0.96875000000000000        0.0000000000000000     
  0.18750000000000000       0.98437500000000000        0.0000000000000000     
  0.16562499999999999       0.97812500000000002        0.0000000000000000     
  0.17656250000000001       0.97968750000000004        0.0000000000000000     
[...]
 CELL_DATA       14336
 SCALARS Tumor_cells float
 LOOKUP_TABLE default
    0.23485990689138674936E-01
    0.23485990485734575817E-01
    0.23485992037154818091E-01
    0.23485992037153718276E-01
    0.23485990485733736211E-01
    0.23485990689134966097E-01
    0.23485989455526656844E-01
    0.23485988728002397258E-01
    0.23485987942130304162E-01
    0.23485987942127157374E-01
    0.23485988728004968118E-01
    0.23485989455528058500E-01
    0.23485989341337727698E-01
    0.23485989341336895031E-01
    0.23485995776191440076E-01
    0.23485997132273277177E-01
    0.23486000809322529065E-01
    0.23486001828096247229E-01
    0.23485999074374284967E-01
    0.23486000400083726497E-01
    0.23485997508231489656E-01
    0.23485995100509384631E-01
    0.23485992560449236305E-01
    0.23485991644595825834E-01
    0.23485993232029045430E-01
    0.23485993033383337908E-01
    0.23485995515018065483E-01
    0.23485996062651760818E-01
    0.23486000400097909596E-01
    0.23485999074385335156E-01
    0.23486001828107744976E-01
    0.23486000809331004924E-01
    0.23485997132279466670E-01
    0.23485995776193764606E-01
    0.23485993033385728357E-01
    0.23485993232033239991E-01
    0.23485991644600613670E-01
    0.23485992560454641703E-01
    0.23485995100518051310E-01
    0.23485997508242973525E-01
    0.23485996062660052797E-01
    0.23485995515024893354E-01
    0.23486007199681101232E-01
    0.23486007786470638331E-01
    0.23486013515371356730E-01
    0.23486013515369223020E-01
    0.23486007786467043984E-01
    0.23486007199672562923E-01
    0.23486002114170012600E-01
    0.23486000661525268524E-01
    0.23485996874126575246E-01
    0.23485996874127706285E-01
    0.23486000661528456945E-01
    0.23486002114177281092E-01
    0.23486003781806669838E-01
    0.23486003781805629004E-01
    0.23486009353832701385E-01
    0.23486013010509572407E-01
    0.23486020160005598861E-01
    0.23486022826380195672E-01
    0.23486018101387708124E-01
    0.23486021306538085868E-01
    0.23486015657324894879E-01
    0.23486010409373470759E-01
    0.23486004981364421579E-01
    0.23486002681689530092E-01
    0.23486005580606841153E-01
    0.23486004183037541282E-01
    0.23486010515865012038E-01
    0.23486011960722710801E-01
    0.23486036441351151871E-01
    0.23486043791657817276E-01
    0.23486056393814170457E-01
    0.23486061523367150750E-01
    0.23486053576542653687E-01
    0.23486059486158797349E-01
    0.23486049524509795133E-01
    0.23486040042360604302E-01
    0.23486030182587686044E-01
    0.23486025698348161200E-01
    0.23486030762089157159E-01
    0.23486027408702137703E-01
    0.23486039845555077565E-01
    0.23486042636756361557E-01
    0.23486024940606593792E-01
    0.23486027790567749751E-01
    0.23486037819026278628E-01
    0.23486039161592271035E-01
    0.23486030252354454795E-01
    0.23486030774472810290E-01
    0.23486021976470351780E-01
    0.23486018080839766303E-01
    0.23486010871611846806E-01
    0.23486009781918372463E-01
    0.23486015814574125876E-01
    0.23486016486386211005E-01
    0.23486022011254627934E-01
    0.23486022702339612311E-01
    0.23486058484920479400E-01
    0.23486065032713561440E-01
    0.23486082262556849665E-01
    0.23486085838882383992E-01
    0.23486071608613649786E-01
    0.23486073902514451733E-01
    0.23486059087702806925E-01
    0.23486051268243973017E-01
    0.23486038585137238022E-01
    0.23486035705066497098E-01
    0.23486045235364318845E-01
    0.23486044687525787361E-01
    0.23486056393619666322E-01
    0.23486058237563813000E-01
    0.23486021306570566830E-01
    0.23486018101415994525E-01
    0.23486022826409672093E-01
    0.23486020160030929294E-01
    0.23486013010530628481E-01
    0.23486009353848282671E-01
    0.23486004183051363559E-01
    0.23486005580624174510E-01
    0.23486002681705992617E-01
    0.23486004981383371698E-01
    0.23486010409397038712E-01
    0.23486015657353316588E-01
    0.23486011960746261407E-01
    0.23486010515886605876E-01
    0.23486030774499604828E-01
    0.23486030252375281885E-01
    0.23486039161612310561E-01
    0.23486037819041120922E-01
    0.23486027790579049740E-01
    0.23486024940611357342E-01
    0.23486016486390481894E-01
    0.23486015814583934003E-01
    0.23486009781929110402E-01
    0.23486010871626342156E-01
    0.23486018080857939266E-01
    0.23486021976494596275E-01
    0.23486022702355970754E-01
    0.23486022011268332249E-01
    0.23486059486216907116E-01
    0.23486053576595434383E-01
    0.23486061523421905561E-01
    0.23486056393863731506E-01
    0.23486043791701157607E-01
    0.23486036441387345142E-01
    0.23486027408734937855E-01
    0.23486030762126811067E-01
    0.23486025698383997118E-01
    0.23486030182627251617E-01
    0.23486040042406581413E-01
    0.23486049524562433582E-01
    0.23486042636802595407E-01
    0.23486039845598723208E-01
    0.23486073902566892424E-01
    0.23486071608658978110E-01
    0.23486085838927722724E-01
    0.23486082262595908698E-01
    0.23486065032747204667E-01
    0.23486058484945754321E-01
    0.23486044687549213067E-01
    0.23486045235394378133E-01
    0.23486035705096698634E-01
    0.23486038585172262089E-01
    0.23486051268284593302E-01
    0.23486059087751257751E-01
    0.23486058237602878973E-01
    0.23486056393655453667E-01
    0.23486055423881570942E-01
    0.23486057625374191088E-01
    0.23486072465567612438E-01
    0.23486072465564424017E-01
    0.23486057625368355478E-01
    0.23486055423867911729E-01
    0.23486041886341683244E-01
    0.23486038742856468059E-01
    0.23486028343789940032E-01
    0.23486028343792333950E-01
    0.23486038742861793660E-01
    0.23486041886354242642E-01
    0.23486047326032318677E-01
    0.23486047326030649873E-01
    0.23486101248846192463E-01
    0.23486107778867108820E-01
    0.23486132726707825702E-01
    0.23486135060293858445E-01
    0.23486111846039103845E-01
    0.23486110630179492936E-01
    0.23486088255447522960E-01
    0.23486081008189139269E-01
    0.23486063288678311889E-01
    0.23486061700611515768E-01
    0.23486077510923211026E-01
    0.23486079897369768754E-01
    0.23486092659645130265E-01
    0.23486093766863880977E-01
    0.23486110630218829526E-01
    0.23486111846069471915E-01
    0.23486135060322373830E-01
    0.23486132726728895653E-01
    0.23486107778883599101E-01
    0.23486101248853148704E-01
    0.23486079897376256620E-01
    0.23486077510938205976E-01
    0.23486061700628512589E-01
    0.23486063288701338608E-01
    0.23486081008216898314E-01
    0.23486088255484330323E-01
    0.23486093766888253842E-01
    0.23486092659665572246E-01
    0.23486177506506500379E-01
    0.23486183683409135592E-01
    0.23486221247558895092E-01
    0.23486221247554638081E-01
    0.23486183683401086475E-01
    0.23486177506487754957E-01
    0.23486143360454500573E-01
    0.23486136004162262020E-01
    0.23486109939524039969E-01
    0.23486109939527582274E-01
    0.23486136004169769903E-01
    0.23486143360472229447E-01
    0.23486157794569730017E-01
    0.23486157794567457530E-01
    0.23486084957713010413E-01
    0.23486098146493328276E-01
    0.23486119939256720757E-01
    0.23486129103418781905E-01
    0.23486115555722223563E-01
    0.23486125965238850710E-01
    0.23486108804488904644E-01
    0.23486092266249022908E-01
    0.23486075141104161695E-01
    0.23486067215690253213E-01
    0.23486075829174956481E-01
    0.23486069601678909863E-01
    0.23486091632193440565E-01
    0.23486096586905570727E-01
    0.23486169761242691595E-01
    0.23486192774895216923E-01
    0.23486230641968752764E-01
    0.23486246430443540739E-01
    0.23486222805376814893E-01
    0.23486240487582292491E-01
    0.23486210995727532097E-01
    0.23486182577183864484E-01
    0.23486153017085363570E-01
    0.23486139327817682348E-01
    0.23486154139292420018E-01
    0.23486143186349731776E-01
    0.23486181507916290695E-01
    0.23486190071999007989E-01
    0.23486118784320900166E-01
    0.23486131594195998329E-01
    0.23486161457240733313E-01
    0.23486168805790651193E-01
    0.23486144917346948868E-01
    0.23486149848817760438E-01
    0.23486124347755609615E-01
    0.23486110195605740952E-01
    0.23486088287357535787E-01
    0.23486082640359264018E-01
    0.23486098199071644976E-01
    0.23486095707634022794E-01
    0.23486117784445120771E-01
    0.23486121489799866024E-01
    0.23486225969730989416E-01
    0.23486249592439660538E-01
    0.23486301991501763731E-01
    0.23486315512656417981E-01
    0.23486273912242627143E-01
    0.23486282703202437938E-01
    0.23486238326906928170E-01
    0.23486213473124108175E-01
    0.23486175393684135398E-01
    0.23486165190635680672E-01
    0.23486191719350429929E-01
    0.23486186284476621988E-01
    0.23486226070613999695E-01
    0.23486232813192810948E-01
    0.23486316790297914053E-01
    0.23486355861416691876E-01
    0.23486420943525137400E-01
    0.23486446858783503744E-01
    0.23486405694833987351E-01
    0.23486434537587062149E-01
    0.23486384713997537216E-01
    0.23486336886913327521E-01
    0.23486286672656411789E-01
    0.23486263389370199556E-01
    0.23486289061703649605E-01
    0.23486270694327727321E-01
    0.23486335822572316362E-01
    0.23486350123745624446E-01
    0.23486567607233617416E-01
    0.23486631110771351294E-01
    0.23486741163107775765E-01
    0.23486781108714719496E-01
    0.23486709779781185514E-01
    0.23486754258292746878E-01
    0.23486672484781874470E-01
    0.23486594497028671219E-01
    0.23486511158108454994E-01
    0.23486472823313606084E-01
    0.23486516990952013839E-01
    0.23486487878719701505E-01
    0.23486595083246523258E-01
    0.23486617954757142701E-01
    0.23486416393605911296E-01
    0.23486458146607304409E-01
    0.23486550986380808764E-01
    0.23486573939987751003E-01
    0.23486499377105850977E-01
    0.23486512572541373006E-01
    0.23486435034631891056E-01
    0.23486393048131885136E-01
    0.23486326834874726721E-01
    0.23486309409580727325E-01
    0.23486355985374456068E-01
    0.23486346403031883867E-01
    0.23486416220579148240E-01
    0.23486427686828785510E-01
    0.23486753016173922415E-01
    0.23486823397357990684E-01
    0.23486987336882200056E-01
    0.23487022411288631385E-01
    0.23486887290483978580E-01
    0.23486902484959194803E-01
    0.23486767801417850893E-01
    0.23486700343423684567E-01
    0.23486586360617782432E-01
    0.23486558393800222727E-01
    0.23486641769282355641E-01
    0.23486628033646064079E-01
    0.23486746128311575960E-01
    0.23486764063184732004E-01
    0.23486183102980059262E-01
    0.23486197255292527025E-01
    0.23486239888845853591E-01
    0.23486246460508397593E-01
    0.23486208463081949260E-01
    0.23486209006878231570E-01
    0.23486170928435450705E-01
    0.23486156537857266757E-01
    0.23486126093526033670E-01
    0.23486121846919297274E-01
    0.23486147129529309774E-01
    0.23486148296577531724E-01
    0.23486173672787408195E-01
    0.23486176685526105601E-01
    0.23486329051516822292E-01
    0.23486357352353784411E-01
    0.23486432440202899968E-01
    0.23486446935587660528E-01
    0.23486381600904614880E-01
    0.23486384826393751080E-01
    0.23486318108544085997E-01
    0.23486291300713307839E-01
    0.23486237907916776568E-01
    0.23486229016862144453E-01
    0.23486271345132442995E-01
    0.23486270118080979086E-01
    0.23486318543552649890E-01
    0.23486325013223112446E-01
    0.23486293399394581743E-01
    0.23486309062632923506E-01
    0.23486371257343562069E-01
    0.23486376396093640306E-01
    0.23486317487493146156E-01
    0.23486312717666085054E-01
    0.23486256087713385660E-01
    0.23486239836487187577E-01
    0.23486195887549840555E-01
    0.23486192922807933720E-01
    0.23486233066161973926E-01
    0.23486239809126480127E-01
    0.23486270579258290703E-01
    0.23486272802065846776E-01
    0.23486496406274950249E-01
    0.23486531257369037268E-01
    0.23486638461970261310E-01
    0.23486655040185669407E-01
    0.23486557759335613405E-01
    0.23486556844147851025E-01
    0.23486458735502761114E-01
    0.23486425435391221350E-01
    0.23486349019127647497E-01
    0.23486340251127391099E-01
    0.23486404876677351161E-01
    0.23486409178060142777E-01
    0.23486471099202013008E-01
    0.23486477986545139379E-01
    0.23486593572387456930E-01
    0.23486647661954639793E-01
    0.23486783190650051961E-01
    0.23486811112320662986E-01
    0.23486693793722313028E-01
    0.23486699552639798277E-01
    0.23486580124685518811E-01
    0.23486532282141082267E-01
    0.23486437278884032820E-01
    0.23486420659240205000E-01
    0.23486494692050410155E-01
    0.23486489760183540398E-01
    0.23486579598042695710E-01
    0.23486591853303404737E-01
    0.23487077667323479763E-01
    0.23487176360294868827E-01
    0.23487424252106165606E-01
    0.23487472120706783668E-01
    0.23487255048175885441E-01
    0.23487258163930015836E-01
    0.23487042429809406457E-01
    0.23486961581517612485E-01
    0.23486791669546452921E-01
    0.23486763523989224317E-01
    0.23486897742053459981E-01
    0.23486889095513215769E-01
    0.23487050974335697828E-01
    0.23487071845081246291E-01
    0.23486864828249451320E-01
    0.23486938486045667862E-01
    0.23487132221398650256E-01
    0.23487171492810977186E-01
    0.23487000570815482620E-01
    0.23487006027262946617E-01
    0.23486829148442932291E-01
    0.23486764456921986610E-01
    0.23486627001572165513E-01
    0.23486607153559949102E-01
    0.23486717115644161619E-01
    0.23486715011191344749E-01
    0.23486838113263016486E-01
    0.23486854137348734534E-01
    0.23487554915423092261E-01
    0.23487702499814234330E-01
    0.23488064345000080058E-01
    0.23488143902590071649E-01
    0.23487827063872021571E-01
    0.23487837443987465841E-01
    0.23487510041381286924E-01
    0.23487390605824810808E-01
    0.23487137947508528180E-01
    0.23487099049297743836E-01
    0.23487296888259935612E-01
    0.23487283843231197833E-01
    0.23487522156585453198E-01
    0.23487554134070446482E-01
    0.23486125965329694709E-01
    0.23486115555806631738E-01
    0.23486129103505913596E-01
    0.23486119939337642137E-01
    0.23486098146566186662E-01
    0.23486084957777014770E-01
    0.23486069601738067403E-01
    0.23486075829240136981E-01
    0.23486067215752807341E-01
    0.23486075141171524477E-01
    0.23486092266324642974E-01
    0.23486108804572886077E-01
    0.23486096586981725087E-01
    0.23486091632266340584E-01
    0.23486149848902976994E-01
    0.23486144917423904671E-01
    0.23486168805868477827E-01
    0.23486161457311170025E-01
    0.23486131594259215122E-01
    0.23486118784374003521E-01
    0.23486095707683819767E-01
    0.23486098199129255143E-01
    0.23486082640416190703E-01
    0.23486088287420384818E-01
    0.23486110195676011131E-01
    0.23486124347835382609E-01
    0.23486121489868831691E-01
    0.23486117784510200657E-01
    0.23486240487712774921E-01
    0.23486222805499747807E-01
    0.23486246430569991672E-01
    0.23486230642087938675E-01
    0.23486192775004587768E-01
    0.23486169761341515322E-01
    0.23486143186442352132E-01
    0.23486154139392173557E-01
    0.23486139327914032360E-01
    0.23486153017187559600E-01
    0.23486182577296111501E-01
    0.23486210995849812755E-01
    0.23486190072112011346E-01
    0.23486181508025453374E-01
    0.23486282703327292926E-01
    0.23486273912358197891E-01
    0.23486315512773598552E-01
    0.23486301991610648854E-01
    0.23486249592539445302E-01
    0.23486225969819061327E-01
    0.23486186284559871368E-01
    0.23486191719442647829E-01
    0.23486165190726372015E-01
    0.23486175393781862780E-01
    0.23486213473231005305E-01
    0.23486238327025024675E-01
    0.23486232813298705407E-01
    0.23486226070715369996E-01
    0.23486209006950378719E-01
    0.23486208463144080116E-01
    0.23486246460569449451E-01
    0.23486239888898443468E-01
    0.23486197255338629036E-01
    0.23486183103014902918E-01
    0.23486148296610453307E-01
    0.23486147129571883357E-01
    0.23486121846963064347E-01
    0.23486126093576923518E-01
    0.23486156537914727738E-01
    0.23486170928503715544E-01
    0.23486176685580433671E-01
    0.23486173672837212106E-01
    0.23486312717717793691E-01
    0.23486317487532985815E-01
    0.23486376396130517058E-01
    0.23486371257370845800E-01
    0.23486309062654545099E-01
    0.23486293399403741083E-01
    0.23486239809135160683E-01
    0.23486233066182079371E-01
    0.23486192922831175545E-01
    0.23486195887581273745E-01
    0.23486239836524452906E-01
    0.23486256087762630990E-01
    0.23486272802098136919E-01
    0.23486270579285421778E-01
    0.23486384826505796869E-01
    0.23486381601005509867E-01
    0.23486446935688385512E-01
    0.23486432440294090912E-01
    0.23486357352436686846E-01
    0.23486329051586748995E-01
    0.23486270118147540426E-01
    0.23486271345209735334E-01
    0.23486229016939863534E-01
    0.23486237908002569053E-01
    0.23486291300807579652E-01
    0.23486318108650761083E-01
    0.23486325013314549720E-01
    0.23486318543638900341E-01
    0.23486556844239652592E-01
    0.23486557759414484342E-01
    0.23486655040262423982E-01
    0.23486638462036371622E-01
    0.23486531257427573777E-01
    0.23486496406319293251E-01
    0.23486409178102535950E-01
    0.23486404876732321079E-01
    0.23486340251184657790E-01
    0.23486349019194205368E-01
    0.23486425435465446698E-01
    0.23486458735590701186E-01
    0.23486477986614680974E-01
    0.23486471099265774504E-01
    0.23486434537763830471E-01
    0.23486405695002172261E-01
    0.23486446858955945666E-01
    0.23486420943689339386E-01
    0.23486355861569351011E-01
    0.23486316790438437063E-01
    0.23486270694460638364E-01
    0.23486289061844797116E-01
    0.23486263389507194138E-01
    0.23486286672800268938E-01
    0.23486336887068970380E-01
    0.23486384714164830478E-01
    0.23486350123902259568E-01
    0.23486335822724524469E-01
    0.23486512572712638786E-01
    0.23486499377266829847E-01
    0.23486573940151213996E-01
    0.23486550986534956292E-01
    0.23486458146750602977E-01
    0.23486416393735800451E-01
    0.23486346403155607815E-01
    0.23486355985508161615E-01
    0.23486309409712153445E-01
    0.23486326835014132569E-01
    0.23486393048282254437E-01
    0.23486435034795041799E-01
    0.23486427686978426227E-01
    0.23486416220723727033E-01
    0.23486754258522285488E-01
    0.23486709780001165798E-01
    0.23486781108939747825E-01
    0.23486741163323651693E-01
    0.23486631110973914954E-01
    0.23486567607422494108E-01
    0.23486487878899568044E-01
    0.23486516991141181965E-01
    0.23486472823497871881E-01
    0.23486511158300582558E-01
    0.23486594497234287993E-01
    0.23486672485000723715E-01
    0.23486617954963987659E-01
    0.23486595083448379151E-01
    0.23486902485183532713E-01
    0.23486887290697127523E-01
    0.23487022411505235897E-01
    0.23486987337088569699E-01
    0.23486823397551620518E-01
    0.23486753016352598933E-01
    0.23486628033817017608E-01
    0.23486641769464328133E-01
    0.23486558393979065779E-01
    0.23486586360805559309E-01
    0.23486700343624235948E-01
    0.23486767801632665170E-01
    0.23486764063384846235E-01
    0.23486746128506132136E-01
    0.23486699552798591395E-01
    0.23486693793869042879E-01
    0.23486811112468062440E-01
    0.23486783190787029196E-01
    0.23486647662081378690E-01
    0.23486593572499624150E-01
    0.23486489760290770595E-01
    0.23486494692169491982E-01
    0.23486420659358790697E-01
    0.23486437279011791734E-01
    0.23486532282279082989E-01
    0.23486580124837591610E-01
    0.23486591853438917865E-01
    0.23486579598172470373E-01
    0.23487006027402123481E-01
    0.23487000570940653327E-01
    0.23487171492935023792E-01
    0.23487132221511025643E-01
    0.23486938486148505739E-01
    0.23486864828336367905E-01
    0.23486715011274698212E-01
    0.23486717115741215928E-01
    0.23486607153658443231E-01
    0.23486627001680950022E-01
    0.23486764457040388426E-01
    0.23486829148576693349E-01