# vtk DataFile Version 3.0
LAPLACIEN  2D
ASCII
DATASET UNSTRUCTURED_GRID
FIELD FieldData 1
TIME 1 1 double
15.1000
 POINTS        7297  float
   1.5625000000000000E-002  0.96875000000000000        0.0000000000000000     
   3.1250000000000000E-002  0.96875000000000000        0.0000000000000000     
   3.1250000000000000E-002  0.98437500000000000        0.0000000000000000     
   9.3749999999999997E-003  0.97812500000000002        0.0000000000000000     
   2.0312500000000001E-002  0.97968750000000004        0.0000000000000000     
   2.1874999999999999E-002  0.99062499999999998        0.0000000000000000     
   1.0937499999999999E-002  0.98906249999999996        0.0000000000000000     
   4.6875000000000000E-002  0.96875000000000000        0.0000000000000000     
   6.2500000000000000E-002  0.96875000000000000        0.0000000000000000     
   6.2500000000000000E-002  0.98437500000000000        0.0000000000000000     
   4.0625000000000001E-002  0.97812500000000002        0.0000000000000000     
   5.1562499999999997E-002  0.97968750000000004        0.0000000000000000     
   5.3124999999999999E-002  0.99062499999999998        0.0000000000000000     
   4.2187500000000003E-002  0.98906249999999996        0.0000000000000000     
   1.5625000000000000E-002  0.93750000000000000        0.0000000000000000     
   3.1250000000000000E-002  0.93750000000000000        0.0000000000000000     
   3.1250000000000000E-002  0.95312500000000000        0.0000000000000000     
   9.3749999999999997E-003  0.94687500000000002        0.0000000000000000     
   2.0312500000000001E-002  0.94843750000000004        0.0000000000000000     
   2.1874999999999999E-002  0.95937499999999998        0.0000000000000000     
   1.0937499999999999E-002  0.95781249999999996        0.0000000000000000     
   4.6875000000000000E-002  0.93750000000000000        0.0000000000000000     
   6.2500000000000000E-002  0.93750000000000000        0.0000000000000000     
   6.2500000000000000E-002  0.95312500000000000        0.0000000000000000     
   4.0625000000000001E-002  0.94687500000000002        0.0000000000000000     
   5.1562499999999997E-002  0.94843750000000004        0.0000000000000000     
   5.3124999999999999E-002  0.95937499999999998        0.0000000000000000     
   4.2187500000000003E-002  0.95781249999999996        0.0000000000000000     
   7.8125000000000000E-002  0.96875000000000000        0.0000000000000000     
   9.3750000000000000E-002  0.96875000000000000        0.0000000000000000     
   9.3750000000000000E-002  0.98437500000000000        0.0000000000000000     
   7.1874999999999994E-002  0.97812500000000002        0.0000000000000000     
   8.2812499999999997E-002  0.97968750000000004        0.0000000000000000     
   8.4375000000000006E-002  0.99062499999999998        0.0000000000000000     
   7.3437500000000003E-002  0.98906249999999996        0.0000000000000000     
  0.10937500000000000       0.96875000000000000        0.0000000000000000     
  0.12500000000000000       0.96875000000000000        0.0000000000000000     
  0.12500000000000000       0.98437500000000000        0.0000000000000000     
  0.10312499999999999       0.97812500000000002        0.0000000000000000     
  0.11406250000000000       0.97968750000000004        0.0000000000000000     
  0.11562500000000001       0.99062499999999998        0.0000000000000000     
  0.10468750000000000       0.98906249999999996        0.0000000000000000     
   7.8125000000000000E-002  0.93750000000000000        0.0000000000000000     
   9.3750000000000000E-002  0.93750000000000000        0.0000000000000000     
   9.3750000000000000E-002  0.95312500000000000        0.0000000000000000     
   7.1874999999999994E-002  0.94687500000000002        0.0000000000000000     
   8.2812499999999997E-002  0.94843750000000004        0.0000000000000000     
   8.4375000000000006E-002  0.95937499999999998        0.0000000000000000     
   7.3437500000000003E-002  0.95781249999999996        0.0000000000000000     
  0.10937500000000000       0.93750000000000000        0.0000000000000000     
  0.12500000000000000       0.93750000000000000        0.0000000000000000     
  0.12500000000000000       0.95312500000000000        0.0000000000000000     
  0.10312499999999999       0.94687500000000002        0.0000000000000000     
  0.11406250000000000       0.94843750000000004        0.0000000000000000     
  0.11562500000000001       0.95937499999999998        0.0000000000000000     
  0.10468750000000000       0.95781249999999996        0.0000000000000000     
   1.5625000000000000E-002  0.90625000000000000        0.0000000000000000     
   3.1250000000000000E-002  0.90625000000000000        0.0000000000000000     
   3.1250000000000000E-002  0.92187500000000000        0.0000000000000000     
   9.3749999999999997E-003  0.91562500000000002        0.0000000000000000     
   2.0312500000000001E-002  0.91718750000000004        0.0000000000000000     
   2.1874999999999999E-002  0.92812499999999998        0.0000000000000000     
   1.0937499999999999E-002  0.92656249999999996        0.0000000000000000     
   4.6875000000000000E-002  0.90625000000000000        0.0000000000000000     
   6.2500000000000000E-002  0.90625000000000000        0.0000000000000000     
   6.2500000000000000E-002  0.92187500000000000        0.0000000000000000     
   4.0625000000000001E-002  0.91562500000000002        0.0000000000000000     
   5.1562499999999997E-002  0.91718750000000004        0.0000000000000000     
   5.3124999999999999E-002  0.92812499999999998        0.0000000000000000     
   4.2187500000000003E-002  0.92656249999999996        0.0000000000000000     
   1.5625000000000000E-002  0.87500000000000000        0.0000000000000000     
   3.1250000000000000E-002  0.87500000000000000        0.0000000000000000     
   3.1250000000000000E-002  0.89062500000000000        0.0000000000000000     
   9.3749999999999997E-003  0.88437500000000002        0.0000000000000000     
   2.0312500000000001E-002  0.88593750000000004        0.0000000000000000     
   2.1874999999999999E-002  0.89687499999999998        0.0000000000000000     
   1.0937499999999999E-002  0.89531249999999996        0.0000000000000000     
   4.6875000000000000E-002  0.87500000000000000        0.0000000000000000     
   6.2500000000000000E-002  0.87500000000000000        0.0000000000000000     
   6.2500000000000000E-002  0.89062500000000000        0.0000000000000000     
   4.0625000000000001E-002  0.88437500000000002        0.0000000000000000     
   5.1562499999999997E-002  0.88593750000000004        0.0000000000000000     
   5.3124999999999999E-002  0.89687499999999998        0.0000000000000000     
   4.2187500000000003E-002  0.89531249999999996        0.0000000000000000     
   7.8125000000000000E-002  0.90625000000000000        0.0000000000000000     
   9.3750000000000000E-002  0.90625000000000000        0.0000000000000000     
   9.3750000000000000E-002  0.92187500000000000        0.0000000000000000     
   7.1874999999999994E-002  0.91562500000000002        0.0000000000000000     
   8.2812499999999997E-002  0.91718750000000004        0.0000000000000000     
   8.4375000000000006E-002  0.92812499999999998        0.0000000000000000     
   7.3437500000000003E-002  0.92656249999999996        0.0000000000000000     
  0.10937500000000000       0.90625000000000000        0.0000000000000000     
  0.12500000000000000       0.90625000000000000        0.0000000000000000     
  0.12500000000000000       0.92187500000000000        0.0000000000000000     
  0.10312499999999999       0.91562500000000002        0.0000000000000000     
  0.11406250000000000       0.91718750000000004        0.0000000000000000     
  0.11562500000000001       0.92812499999999998        0.0000000000000000     
  0.10468750000000000       0.92656249999999996        0.0000000000000000     
   7.8125000000000000E-002  0.87500000000000000        0.0000000000000000     
   9.3750000000000000E-002  0.87500000000000000        0.0000000000000000     
   9.3750000000000000E-002  0.89062500000000000        0.0000000000000000     
   7.1874999999999994E-002  0.88437500000000002        0.0000000000000000     
   8.2812499999999997E-002  0.88593750000000004        0.0000000000000000     
   8.4375000000000006E-002  0.89687499999999998        0.0000000000000000     
   7.3437500000000003E-002  0.89531249999999996        0.0000000000000000     
  0.10937500000000000       0.87500000000000000        0.0000000000000000     
  0.12500000000000000       0.87500000000000000        0.0000000000000000     
  0.12500000000000000       0.89062500000000000        0.0000000000000000     
  0.10312499999999999       0.88437500000000002        0.0000000000000000     
  0.11406250000000000       0.88593750000000004        0.0000000000000000     
  0.11562500000000001       0.89687499999999998        0.0000000000000000     
  0.10468750000000000       0.89531249999999996        0.0000000000000000     
  0.14062500000000000       0.96875000000000000        0.0000000000000000     
  0.15625000000000000       0.96875000000000000        0.0000000000000000     
  0.15625000000000000       0.98437500000000000        0.0000000000000000     
  0.13437499999999999       0.97812500000000002        0.0000000000000000     
  0.14531250000000001       0.97968750000000004        0.0000000000000000     
  0.14687500000000001       0.99062499999999998        0.0000000000000000     
  0.13593749999999999       0.98906249999999996        0.0000000000000000     
  0.17187500000000000       0.96875000000000000        0.0000000000000000     
  0.18750000000000000       0.96875000000000000        0.0000000000000000     
  0.18750000000000000       0.98437500000000000        0.0000000000000000     
  0.16562499999999999       0.97812500000000002        0.0000000000000000     
  0.17656250000000001       0.97968750000000004        0.0000000000000000     
[...]
 CELL_DATA       14336
 SCALARS Tumor_cells float
 LOOKUP_TABLE default
    0.44618711840695365889E-01
    0.44618711493986613903E-01
    0.44618714239209621153E-01
    0.44618714239209045225E-01
    0.44618711493988570671E-01
    0.44618711840693388304E-01
    0.44618709667170179667E-01
    0.44618708379142245357E-01
    0.44618706988373536826E-01
    0.44618706988361782340E-01
    0.44618708379148372400E-01
    0.44618709667167792687E-01
    0.44618709465685801874E-01
    0.44618709465683865922E-01
    0.44618720875738010490E-01
    0.44618723283496600218E-01
    0.44618729819828693850E-01
    0.44618731631908832569E-01
    0.44618726728915647506E-01
    0.44618729075201708778E-01
    0.44618723938727102019E-01
    0.44618719668640512144E-01
    0.44618715159308083851E-01
    0.44618713552452025917E-01
    0.44618716354096130128E-01
    0.44618716010264368454E-01
    0.44618720411136139625E-01
    0.44618721374143500980E-01
    0.44618729075202888390E-01
    0.44618726728916022206E-01
    0.44618731631909672175E-01
    0.44618729819829082428E-01
    0.44618723283497481458E-01
    0.44618720875737538645E-01
    0.44618716010265749294E-01
    0.44618716354095179499E-01
    0.44618713552453885540E-01
    0.44618715159306931994E-01
    0.44618719668641823595E-01
    0.44618723938727532230E-01
    0.44618721374144416913E-01
    0.44618720411136403303E-01
    0.44618741219507339346E-01
    0.44618742274528513936E-01
    0.44618752511021680940E-01
    0.44618752511021500529E-01
    0.44618742274528416791E-01
    0.44618741219506645457E-01
    0.44618732151472120795E-01
    0.44618729567643330980E-01
    0.44618722829756062020E-01
    0.44618722829755534665E-01
    0.44618729567643920786E-01
    0.44618732151472308145E-01
    0.44618735130069100969E-01
    0.44618735130068920558E-01
    0.44618745050545589870E-01
    0.44618751573111931075E-01
    0.44618764352641407389E-01
    0.44618769116955961374E-01
    0.44618760661158843317E-01
    0.44618766384778241196E-01
    0.44618756286129761246E-01
    0.44618746918211903141E-01
    0.44618737233384497820E-01
    0.44618733144707128924E-01
    0.44618738307705969881E-01
    0.44618735824389944844E-01
    0.44618747113263225457E-01
    0.44618749687840700280E-01
    0.44618793513084280267E-01
    0.44618806687761719543E-01
    0.44618829314064072100E-01
    0.44618838519796082120E-01
    0.44618824234542699136E-01
    0.44618834836857940163E-01
    0.44618816946809802815E-01
    0.44618799941908510176E-01
    0.44618782269513032612E-01
    0.44618774243310441174E-01
    0.44618783317635676844E-01
    0.44618777319851775365E-01
    0.44618799597626192244E-01
    0.44618804600309543151E-01
    0.44618772961716950121E-01
    0.44618778063591893468E-01
    0.44618796044576185256E-01
    0.44618798444772629630E-01
    0.44618782457251926488E-01
    0.44618783375082474163E-01
    0.44618767611329115952E-01
    0.44618760653457135990E-01
    0.44618747767021099682E-01
    0.44618745826196584692E-01
    0.44618756617018834332E-01
    0.44618757824756327679E-01
    0.44618767702024629551E-01
    0.44618768935256770958E-01
    0.44618833159647222630E-01
    0.44618844921882346022E-01
    0.44618875926654109898E-01
    0.44618882351947941611E-01
    0.44618856719912676490E-01
    0.44618860819281805363E-01
    0.44618834167217354125E-01
    0.44618820137424734795E-01
    0.44618797366575327357E-01
    0.44618792210983457269E-01
    0.44618809330402159352E-01
    0.44618808363221365565E-01
    0.44618829371362286884E-01
    0.44618832677705076717E-01
    0.44618766384780399192E-01
    0.44618760661160612735E-01
    0.44618769116957890386E-01
    0.44618764352643031090E-01
    0.44618751573113374365E-01
    0.44618745050546443354E-01
    0.44618735824391075884E-01
    0.44618738307706851121E-01
    0.44618733144708433436E-01
    0.44618737233385517837E-01
    0.44618746918213547659E-01
    0.44618756286131544542E-01
    0.44618749687842268470E-01
    0.44618747113264592419E-01
    0.44618783375084243581E-01
    0.44618782457253251816E-01
    0.44618798444773941081E-01
    0.44618796044577142823E-01
    0.44618778063592670624E-01
    0.44618772961717199921E-01
    0.44618757824756695440E-01
    0.44618756617019368627E-01
    0.44618745826197438176E-01
    0.44618747767021904593E-01
    0.44618760653458384990E-01
    0.44618767611330635570E-01
    0.44618768935257860364E-01
    0.44618767702025517730E-01
    0.44618834836861825943E-01
    0.44618824234546203278E-01
    0.44618838519799731979E-01
    0.44618829314067375014E-01
    0.44618806687764606123E-01
    0.44618793513086618674E-01
    0.44618777319853933361E-01
    0.44618783317638112396E-01
    0.44618774243312835093E-01
    0.44618782269515613881E-01
    0.44618799941911597984E-01
    0.44618816946813348590E-01
    0.44618804600312644837E-01
    0.44618799597629071885E-01
    0.44618860819285337260E-01
    0.44618856719915701847E-01
    0.44618882351951001664E-01
    0.44618875926656760555E-01
    0.44618844921884608101E-01
    0.44618833159648887965E-01
    0.44618808363222919877E-01
    0.44618809330404102242E-01
    0.44618792210985455671E-01
    0.44618797366577610253E-01
    0.44618820137427447903E-01
    0.44618834167220580711E-01
    0.44618832677707678802E-01
    0.44618829371364666925E-01
    0.44618827673589052385E-01
    0.44618831639568416747E-01
    0.44618858335538739979E-01
    0.44618858335538538751E-01
    0.44618831639568048986E-01
    0.44618827673588157268E-01
    0.44618803351044906969E-01
    0.44618797715848423913E-01
    0.44618779061096347505E-01
    0.44618779061096465466E-01
    0.44618797715848805552E-01
    0.44618803351045718819E-01
    0.44618813129562166775E-01
    0.44618813129562048814E-01
    0.44618910191545714528E-01
    0.44618921963470892234E-01
    0.44618966967082444863E-01
    0.44618971173408461528E-01
    0.44618929282809520476E-01
    0.44618927070367964127E-01
    0.44618886734355545087E-01
    0.44618873699189341708E-01
    0.44618841804878607571E-01
    0.44618838956360276637E-01
    0.44618867417425947530E-01
    0.44618871718102824653E-01
    0.44618894701751926624E-01
    0.44618896692965127893E-01
    0.44618927070370670296E-01
    0.44618929282811636838E-01
    0.44618971173410508502E-01
    0.44618966967083971420E-01
    0.44618921963472051029E-01
    0.44618910191546214128E-01
    0.44618871718103240986E-01
    0.44618867417426932853E-01
    0.44618838956361407677E-01
    0.44618841804880127189E-01
    0.44618873699191236026E-01
    0.44618886734358077784E-01
    0.44618896692966807105E-01
    0.44618894701753335219E-01
    0.44619047849824060303E-01
    0.44619059020047702191E-01
    0.44619126926121875643E-01
    0.44619126926121563392E-01
    0.44619059020047112385E-01
    0.44619047849822714158E-01
    0.44618986170444525918E-01
    0.44618972896897278468E-01
    0.44618925862714396702E-01
    0.44618925862714646502E-01
    0.44618972896897840519E-01
    0.44618986170445837369E-01
    0.44619012244446178139E-01
    0.44619012244446004667E-01
    0.44618880681702118018E-01
    0.44618904415937181429E-01
    0.44618943689575044087E-01
    0.44618960199468274408E-01
    0.44618935756946288829E-01
    0.44618954505691435508E-01
    0.44618923571672214345E-01
    0.44618893792575851920E-01
    0.44618862972943214296E-01
    0.44618848724313278642E-01
    0.44618864227331460348E-01
    0.44618853041121397940E-01
    0.44618892664771099554E-01
    0.44618901581983352878E-01
    0.44619033595443710616E-01
    0.44619075140760806886E-01
    0.44619143583077981730E-01
    0.44619172108636508123E-01
    0.44619129369514835826E-01
    0.44619161310117463892E-01
    0.44619107999331254766E-01
    0.44619056669425262440E-01
    0.44619003296674293602E-01
    0.44618978600940648049E-01
    0.44619005347442196319E-01
    0.44618985602471308849E-01
    0.44619054759087221906E-01
    0.44619070221014203725E-01
    0.44618941743339107786E-01
    0.44618964832528133779E-01
    0.44619018741336023692E-01
    0.44619031993778077161E-01
    0.44618988830248056121E-01
    0.44618997691668264849E-01
    0.44618951660378922131E-01
    0.44618926170302622425E-01
    0.44618886689850520422E-01
    0.44618876539554035154E-01
    0.44618904590458897952E-01
    0.44618900126962512953E-01
    0.44618939892408872316E-01
    0.44618946563221149881E-01
    0.44619135329444191418E-01
    0.44619178026865748132E-01
    0.44619272844969887215E-01
    0.44619297289905317239E-01
    0.44619221959126958987E-01
    0.44619237809568751407E-01
    0.44619157507870765844E-01
    0.44619112610810897357E-01
    0.44619043787890333430E-01
    0.44619025385034698228E-01
    0.44619073351413254813E-01
    0.44619063567586117469E-01
    0.44619135442720316009E-01
    0.44619147618250712406E-01
    0.44619299429039117888E-01
    0.44619370124143367673E-01
    0.44619487992726039605E-01
    0.44619534901447543973E-01
    0.44619460306151749462E-01
    0.44619512511628302287E-01
    0.44619422274231011760E-01
    0.44619335703344746580E-01
    0.44619244829835785771E-01
    0.44619202718886405434E-01
    0.44619249187066958862E-01
    0.44619215990368985003E-01
    0.44619333806842284562E-01
    0.44619359683464657196E-01
    0.44619753753159685505E-01
    0.44619868827773634390E-01
    0.44620068391078182568E-01
    0.44620140787362289059E-01
    0.44620011391831200520E-01
    0.44620092003538967818E-01
    0.44619943721134182335E-01
    0.44619802356945632849E-01
    0.44619651311263629212E-01
    0.44619581862468955802E-01
    0.44619661927510996524E-01
    0.44619609219318935589E-01
    0.44619803462265697491E-01
    0.44619844906057783140E-01
    0.44619480016687196322E-01
    0.44619555625943774224E-01
    0.44619723899333260664E-01
    0.44619765464254709797E-01
    0.44619630254855373319E-01
    0.44619654093869483280E-01
    0.44619513555633552593E-01
    0.44619437552681655290E-01
    0.44619317639521746677E-01
    0.44619286133008875805E-01
    0.44619370511468088580E-01
    0.44619353213345092080E-01
    0.44619479606501540048E-01
    0.44619500354394346642E-01
    0.44620090237868149929E-01
    0.44620217847486730312E-01
    0.44620515285730966148E-01
    0.44620578866451952871E-01
    0.44620333639931654413E-01
    0.44620361107344089224E-01
    0.44620116749800924072E-01
    0.44619994478914945524E-01
    0.44619787785349092346E-01
    0.44619737135478572398E-01
    0.44619888368787760657E-01
    0.44619863537722917468E-01
    0.44620077618042881806E-01
    0.44620110113999876533E-01
    0.44619057950071421004E-01
    0.44619083521804783765E-01
    0.44619160609117781979E-01
    0.44619172487959775364E-01
    0.44619103753776402643E-01
    0.44619104705891504681E-01
    0.44619035871642259705E-01
    0.44619009905422855888E-01
    0.44618954942541914910E-01
    0.44618947296094287058E-01
    0.44618992948218819117E-01
    0.44618995068755086530E-01
    0.44619040885367430849E-01
    0.44619046321012718892E-01
    0.44619321980385658055E-01
    0.44619373218025948358E-01
    0.44619509238199780987E-01
    0.44619535490092003538E-01
    0.44619417097622092461E-01
    0.44619422897778579507E-01
    0.44619302052403338188E-01
    0.44619253560837401906E-01
    0.44619156940761364738E-01
    0.44619140882389544955E-01
    0.44619217490651813529E-01
    0.44619215290833680321E-01
    0.44619302919439607358E-01
    0.44619314621696257173E-01
    0.44619257472202640546E-01
    0.44619285826495408420E-01
    0.44619398438404636598E-01
    0.44619407746537095849E-01
    0.44619301071303782424E-01
    0.44619292425420419013E-01
    0.44619189927929514550E-01
    0.44619160539570372481E-01
    0.44619081061464463400E-01
    0.44619075708132449609E-01
    0.44619148304231824598E-01
    0.44619160501066824909E-01
    0.44619216169736283795E-01
    0.44619220190175383489E-01
    0.44619625193136433494E-01
    0.44619688370809013067E-01
    0.44619882724419461517E-01
    0.44619912793460766998E-01
    0.44619736409717641878E-01
    0.44619734740287096686E-01
    0.44619556902166485068E-01
    0.44619496576977495106E-01
    0.44619358144722828796E-01
    0.44619342274237222545E-01
    0.44619459341231647309E-01
    0.44619467131456126696E-01
    0.44619579331107973863E-01
    0.44619591811640560430E-01
    0.44619801306554775222E-01
    0.44619899371875583471E-01
    0.44620145179799043655E-01
    0.44620195807329780802E-01
    0.44619982976276319209E-01
    0.44619993361521982644E-01
    0.44619776762055626818E-01
    0.44619690081594380604E-01
    0.44619517884551811171E-01
    0.44619487803749420529E-01
    0.44619622007661029206E-01
    0.44619613099320887262E-01
    0.44619775919946313980E-01
    0.44619798122679729668E-01
    0.44620679468882727681E-01
    0.44620858549075222144E-01
    0.44621308480116569917E-01
    0.44621395336448613222E-01
    0.44621001283190665776E-01
    0.44621006859410533574E-01
    0.44620615302345650877E-01
    0.44620468667753522551E-01
    0.44620160389988415550E-01
    0.44620109379759714807E-01
    0.44620352923737387207E-01
    0.44620337283545093154E-01
    0.44620630956077420026E-01
    0.44620668805653011801E-01
    0.44620293315868933548E-01
    0.44620426966367747468E-01
    0.44620778508667295614E-01
    0.44620849785170710322E-01
    0.44620539616225397828E-01
    0.44620549503224769816E-01
    0.44620228568594738627E-01
    0.44620111237259653392E-01
    0.44619861932891351219E-01
    0.44619825951369894435E-01
    0.44620025379832464751E-01
    0.44620021559399460076E-01
    0.44620244861746156950E-01
    0.44620273931328176265E-01
    0.44621545733775039300E-01
    0.44621813661135274753E-01
    0.44622470589549219355E-01
    0.44622615035805536510E-01
    0.44622039792287043758E-01
    0.44622058609304009191E-01
    0.44621464230693103081E-01
    0.44621247461309417048E-01
    0.44620788877173384046E-01
    0.44620718301526023086E-01
    0.44621077377219188487E-01
    0.44621053697533510918E-01
    0.44621486273461803684E-01
    0.44621544316944372621E-01
    0.44618954505697694390E-01
    0.44618935756952061988E-01
    0.44618960199474269612E-01
    0.44618943689580581324E-01
    0.44618904415942142738E-01
    0.44618880681706434010E-01
    0.44618853041125360048E-01
    0.44618864227335845729E-01
    0.44618848724317483612E-01
    0.44618862972947759271E-01
    0.44618893792581014457E-01
    0.44618923571678015261E-01
    0.44618901581988536231E-01
    0.44618892664776053925E-01
    0.44618997691674211481E-01
    0.44618988830253433764E-01
    0.44619031993783593582E-01
    0.44619018741341054390E-01
    0.44618964832532567732E-01
    0.44618941743342785400E-01
    0.44618900126965885256E-01
    0.44618904590462825366E-01
    0.44618876539557879302E-01
    0.44618886689854773964E-01
    0.44618926170307438017E-01
    0.44618951660384410796E-01
    0.44618946563225916901E-01
    0.44618939892413361781E-01
    0.44619161310126921605E-01
    0.44619129369523655160E-01
    0.44619172108645639707E-01
    0.44619143583086544325E-01
    0.44619075140768578447E-01
    0.44619033595450656449E-01
    0.44618985602477692631E-01
    0.44619005347449156029E-01
    0.44618978600947323265E-01
    0.44619003296681433723E-01
    0.44619056669433242168E-01
    0.44619107999340094917E-01
    0.44619070221022232026E-01
    0.44619054759094931017E-01
    0.44619237809577889931E-01
    0.44619221959135514644E-01
    0.44619297289914192084E-01
    0.44619272844978165315E-01
    0.44619178026873165810E-01
    0.44619135329450665406E-01
    0.44619063567592050223E-01
    0.44619073351419846762E-01
    0.44619025385041082010E-01
    0.44619043787897223752E-01
    0.44619112610818571774E-01
    0.44619157507879272928E-01
    0.44619147618258428456E-01
    0.44619135442727712870E-01
    0.44619104705896805996E-01
    0.44619103753781017008E-01
    0.44619172487964466056E-01
    0.44619160609121841232E-01
    0.44619083521808253212E-01
    0.44619057950074050845E-01
    0.44618995068757452693E-01
    0.44618992948221858352E-01
    0.44618947296097340172E-01
    0.44618954942545474562E-01
    0.44619009905426984530E-01
    0.44619035871647200198E-01
    0.44619046321016694878E-01
    0.44619040885371080707E-01
    0.44619292425424512960E-01
    0.44619301071306988193E-01
    0.44619407746540162840E-01
    0.44619398438406940310E-01
    0.44619285826497170899E-01
    0.44619257472203438519E-01
    0.44619160501067463287E-01
    0.44619148304233351154E-01
    0.44619075708134177394E-01
    0.44619081061466850380E-01
    0.44619160539573286817E-01
    0.44619189927933400330E-01
    0.44619220190177937002E-01
    0.44619216169738427913E-01
    0.44619422897787454352E-01
    0.44619417097630197089E-01
    0.44619535490100441233E-01
    0.44619509238207448465E-01
    0.44619373218032706840E-01
    0.44619321980391334070E-01
    0.44619215290838822041E-01
    0.44619217490657753222E-01
    0.44619140882395325054E-01
    0.44619156940767741581E-01
    0.44619253560844653050E-01
    0.44619302052411588533E-01
    0.44619314621703466683E-01
    0.44619302919446428290E-01
    0.44619734740295215192E-01
    0.44619736409724733428E-01
    0.44619912793468018142E-01
    0.44619882724425782849E-01
    0.44619688370814342138E-01
    0.44619625193140492747E-01
    0.44619467131459665532E-01
    0.44619459341236261674E-01
    0.44619342274241857726E-01
    0.44619358144728261950E-01
    0.44619496576983802560E-01
    0.44619556902174055402E-01
    0.44619591811646631963E-01
    0.44619579331113524978E-01
    0.44619512511641999664E-01
    0.44619460306164669683E-01
    0.44619534901460922161E-01
    0.44619487992738696147E-01
    0.44619370124154900115E-01
    0.44619299429049574801E-01
    0.44619215990378650882E-01
    0.44619249187077353325E-01
    0.44619202718896425197E-01
    0.44619244829846409217E-01
    0.44619335703356514944E-01
    0.44619422274243945858E-01
    0.44619359683476508827E-01
    0.44619333806853726798E-01
    0.44619654093883125145E-01
    0.44619630254868300478E-01
    0.44619765464268310029E-01
    0.44619723899346125373E-01
    0.44619555625955306666E-01
    0.44619480016697535274E-01
    0.44619353213354528975E-01
    0.44619370511478288754E-01
    0.44619286133018652707E-01
    0.44619317639532168895E-01
    0.44619437552693229365E-01
    0.44619513555646209135E-01
    0.44619500354406073372E-01
    0.44619479606512857384E-01
    0.44620092003558431415E-01
    0.44620011391849706550E-01
    0.44620140787381620817E-01
    0.44620068391096556759E-01
    0.44619868827790384880E-01
    0.44619753753174992705E-01
    0.44619609219333049299E-01
    0.44619661927526067802E-01
    0.44619581862483430335E-01
    0.44619651311278964168E-01
    0.44619802356962508239E-01
    0.44619943721152639793E-01
    0.44619844906074811186E-01
    0.44619803462282212059E-01
    0.44620361107363962216E-01
    0.44620333639950826576E-01
    0.44620578866472429547E-01
    0.44620515285750568524E-01
    0.44620217847504216324E-01
    0.44620090237884060813E-01
    0.44619863537737308734E-01
    0.44619888368803081735E-01
    0.44619737135493088565E-01
    0.44619787785364441179E-01
    0.44619994478931980508E-01
    0.44620116749819367652E-01
    0.44620110114017327851E-01
    0.44620077618059840463E-01
    0.44619993361536013088E-01
    0.44619982976289503107E-01
    0.44620195807343727978E-01
    0.44620145179812088776E-01
    0.44619899371887095096E-01
    0.44619801306564919885E-01
    0.44619613099329956396E-01
    0.44619622007671042030E-01
    0.44619487803758975386E-01
    0.44619517884562122367E-01
    0.44619690081606031007E-01
    0.44619776762068609488E-01
    0.44619798122691546605E-01
    0.44619775919957631316E-01
    0.44620549503239043121E-01
    0.44620539616238442948E-01
    0.44620849785184525660E-01
    0.44620778508679882768E-01
    0.44620426966378620715E-01
    0.44620293315878051255E-01
    0.44620021559407481437E-01
    0.44620025379841755930E-01
    0.44619825951378845608E-01
    0.44619861932901322410E-01
    0.44620111237271095628E-01
    0.44620228568607860076E-01