# vtk DataFile Version 3.0
LAPLACIEN  2D
ASCII
DATASET UNSTRUCTURED_GRID
FIELD FieldData 1
TIME 1 1 double
14.9000
 POINTS        7297  float
   1.5625000000000000E-002  0.96875000000000000        0.0000000000000000     
   3.1250000000000000E-002  0.96875000000000000        0.0000000000000000     
   3.1250000000000000E-002  0.98437500000000000        0.0000000000000000     
   9.3749999999999997E-003  0.97812500000000002        0.0000000000000000     
   2.0312500000000001E-002  0.97968750000000004        0.0000000000000000     
   2.1874999999999999E-002  0.99062499999999998        0.0000000000000000     
   1.0937499999999999E-002  0.98906249999999996        0.0000000000000000     
   4.6875000000000000E-002  0.96875000000000000        0.0000000000000000     
   6.2500000000000000E-002  0.96875000000000000        0.0000000000000000     
   6.2500000000000000E-002  0.98437500000000000        0.0000000000000000     
   4.0625000000000001E-002  0.97812500000000002        0.0000000000000000     
   5.1562499999999997E-002  0.97968750000000004        0.0000000000000000     
   5.3124999999999999E-002  0.99062499999999998        0.0000000000000000     
   4.2187500000000003E-002  0.98906249999999996        0.0000000000000000     
   1.5625000000000000E-002  0.93750000000000000        0.0000000000000000     
   3.1250000000000000E-002  0.93750000000000000        0.0000000000000000     
   3.1250000000000000E-002  0.95312500000000000        0.0000000000000000     
   9.3749999999999997E-003  0.94687500000000002        0.0000000000000000     
   2.0312500000000001E-002  0.94843750000000004        0.0000000000000000     
   2.1874999999999999E-002  0.95937499999999998        0.0000000000000000     
   1.0937499999999999E-002  0.95781249999999996        0.0000000000000000     
   4.6875000000000000E-002  0.93750000000000000        0.0000000000000000     
   6.2500000000000000E-002  0.93750000000000000        0.0000000000000000     
   6.2500000000000000E-002  0.95312500000000000        0.0000000000000000     
   4.0625000000000001E-002  0.94687500000000002        0.0000000000000000     
   5.1562499999999997E-002  0.94843750000000004        0.0000000000000000     
   5.3124999999999999E-002  0.95937499999999998        0.0000000000000000     
   4.2187500000000003E-002  0.95781249999999996        0.0000000000000000     
   7.8125000000000000E-002  0.96875000000000000        0.0000000000000000     
   9.3750000000000000E-002  0.96875000000000000        0.0000000000000000     
   9.3750000000000000E-002  0.98437500000000000        0.0000000000000000     
   7.1874999999999994E-002  0.97812500000000002        0.0000000000000000     
   8.2812499999999997E-002  0.97968750000000004        0.0000000000000000     
   8.4375000000000006E-002  0.99062499999999998        0.0000000000000000     
   7.3437500000000003E-002  0.98906249999999996        0.0000000000000000     
  0.10937500000000000       0.96875000000000000        0.0000000000000000     
  0.12500000000000000       0.96875000000000000        0.0000000000000000     
  0.12500000000000000       0.98437500000000000        0.0000000000000000     
  0.10312499999999999       0.97812500000000002        0.0000000000000000     
  0.11406250000000000       0.97968750000000004        0.0000000000000000     
  0.11562500000000001       0.99062499999999998        0.0000000000000000     
  0.10468750000000000       0.98906249999999996        0.0000000000000000     
   7.8125000000000000E-002  0.93750000000000000        0.0000000000000000     
   9.3750000000000000E-002  0.93750000000000000        0.0000000000000000     
   9.3750000000000000E-002  0.95312500000000000        0.0000000000000000     
   7.1874999999999994E-002  0.94687500000000002        0.0000000000000000     
   8.2812499999999997E-002  0.94843750000000004        0.0000000000000000     
   8.4375000000000006E-002  0.95937499999999998        0.0000000000000000     
   7.3437500000000003E-002  0.95781249999999996        0.0000000000000000     
  0.10937500000000000       0.93750000000000000        0.0000000000000000     
  0.12500000000000000       0.93750000000000000        0.0000000000000000     
  0.12500000000000000       0.95312500000000000        0.0000000000000000     
  0.10312499999999999       0.94687500000000002        0.0000000000000000     
  0.11406250000000000       0.94843750000000004        0.0000000000000000     
  0.11562500000000001       0.95937499999999998        0.0000000000000000     
  0.10468750000000000       0.95781249999999996        0.0000000000000000     
   1.5625000000000000E-002  0.90625000000000000        0.0000000000000000     
   3.1250000000000000E-002  0.90625000000000000        0.0000000000000000     
   3.1250000000000000E-002  0.92187500000000000        0.0000000000000000     
   9.3749999999999997E-003  0.91562500000000002        0.0000000000000000     
   2.0312500000000001E-002  0.91718750000000004        0.0000000000000000     
   2.1874999999999999E-002  0.92812499999999998        0.0000000000000000     
   1.0937499999999999E-002  0.92656249999999996        0.0000000000000000     
   4.6875000000000000E-002  0.90625000000000000        0.0000000000000000     
   6.2500000000000000E-002  0.90625000000000000        0.0000000000000000     
   6.2500000000000000E-002  0.92187500000000000        0.0000000000000000     
   4.0625000000000001E-002  0.91562500000000002        0.0000000000000000     
   5.1562499999999997E-002  0.91718750000000004        0.0000000000000000     
   5.3124999999999999E-002  0.92812499999999998        0.0000000000000000     
   4.2187500000000003E-002  0.92656249999999996        0.0000000000000000     
   1.5625000000000000E-002  0.87500000000000000        0.0000000000000000     
   3.1250000000000000E-002  0.87500000000000000        0.0000000000000000     
   3.1250000000000000E-002  0.89062500000000000        0.0000000000000000     
   9.3749999999999997E-003  0.88437500000000002        0.0000000000000000     
   2.0312500000000001E-002  0.88593750000000004        0.0000000000000000     
   2.1874999999999999E-002  0.89687499999999998        0.0000000000000000     
   1.0937499999999999E-002  0.89531249999999996        0.0000000000000000     
   4.6875000000000000E-002  0.87500000000000000        0.0000000000000000     
   6.2500000000000000E-002  0.87500000000000000        0.0000000000000000     
   6.2500000000000000E-002  0.89062500000000000        0.0000000000000000     
   4.0625000000000001E-002  0.88437500000000002        0.0000000000000000     
   5.1562499999999997E-002  0.88593750000000004        0.0000000000000000     
   5.3124999999999999E-002  0.89687499999999998        0.0000000000000000     
   4.2187500000000003E-002  0.89531249999999996        0.0000000000000000     
   7.8125000000000000E-002  0.90625000000000000        0.0000000000000000     
   9.3750000000000000E-002  0.90625000000000000        0.0000000000000000     
   9.3750000000000000E-002  0.92187500000000000        0.0000000000000000     
   7.1874999999999994E-002  0.91562500000000002        0.0000000000000000     
   8.2812499999999997E-002  0.91718750000000004        0.0000000000000000     
   8.4375000000000006E-002  0.92812499999999998        0.0000000000000000     
   7.3437500000000003E-002  0.92656249999999996        0.0000000000000000     
  0.10937500000000000       0.90625000000000000        0.0000000000000000     
  0.12500000000000000       0.90625000000000000        0.0000000000000000     
  0.12500000000000000       0.92187500000000000        0.0000000000000000     
  0.10312499999999999       0.91562500000000002        0.0000000000000000     
  0.11406250000000000       0.91718750000000004        0.0000000000000000     
  0.11562500000000001       0.92812499999999998        0.0000000000000000     
  0.10468750000000000       0.92656249999999996        0.0000000000000000     
   7.8125000000000000E-002  0.87500000000000000        0.0000000000000000     
   9.3750000000000000E-002  0.87500000000000000        0.0000000000000000     
   9.3750000000000000E-002  0.89062500000000000        0.0000000000000000     
   7.1874999999999994E-002  0.88437500000000002        0.0000000000000000     
   8.2812499999999997E-002  0.88593750000000004        0.0000000000000000     
   8.4375000000000006E-002  0.89687499999999998        0.0000000000000000     
   7.3437500000000003E-002  0.89531249999999996        0.0000000000000000     
  0.10937500000000000       0.87500000000000000        0.0000000000000000     
  0.12500000000000000       0.87500000000000000        0.0000000000000000     
  0.12500000000000000       0.89062500000000000        0.0000000000000000     
  0.10312499999999999       0.88437500000000002        0.0000000000000000     
  0.11406250000000000       0.88593750000000004        0.0000000000000000     
  0.11562500000000001       0.89687499999999998        0.0000000000000000     
  0.10468750000000000       0.89531249999999996        0.0000000000000000     
  0.14062500000000000       0.96875000000000000        0.0000000000000000     
  0.15625000000000000       0.96875000000000000        0.0000000000000000     
  0.15625000000000000       0.98437500000000000        0.0000000000000000     
  0.13437499999999999       0.97812500000000002        0.0000000000000000     
  0.14531250000000001       0.97968750000000004        0.0000000000000000     
  0.14687500000000001       0.99062499999999998        0.0000000000000000     
  0.13593749999999999       0.98906249999999996        0.0000000000000000     
  0.17187500000000000       0.96875000000000000        0.0000000000000000     
  0.18750000000000000       0.96875000000000000        0.0000000000000000     
  0.18750000000000000       0.98437500000000000        0.0000000000000000     
  0.16562499999999999       0.97812500000000002        0.0000000000000000     
  0.17656250000000001       0.97968750000000004        0.0000000000000000     
[...]
 CELL_DATA       14336
 SCALARS Tumor_cells float
 LOOKUP_TABLE default
    0.45441949972183662276E-01
    0.45441949602805627173E-01
    0.45441952528567461367E-01
    0.45441952528566746661E-01
    0.45441949602807785169E-01
    0.45441949972181490403E-01
    0.45441947655777727155E-01
    0.45441946283040407506E-01
    0.45441944800774937419E-01
    0.45441944800762162915E-01
    0.45441946283047068844E-01
    0.45441947655775159765E-01
    0.45441947441078926750E-01
    0.45441947441076845082E-01
    0.45441959601870834939E-01
    0.45441962168199366567E-01
    0.45441969134934950825E-01
    0.45441971066501621324E-01
    0.45441965840650293262E-01
    0.45441968341586036484E-01
    0.45441962866727698966E-01
    0.45441958315477364028E-01
    0.45441953509239213505E-01
    0.45441951796767722505E-01
    0.45441954782644365662E-01
    0.45441954416200788791E-01
    0.45441959106826669557E-01
    0.45441960133199545135E-01
    0.45441968341587340996E-01
    0.45441965840650751229E-01
    0.45441971066502419296E-01
    0.45441969134935526753E-01
    0.45441962168200282501E-01
    0.45441959601870411667E-01
    0.45441954416202211264E-01
    0.45441954782643408095E-01
    0.45441951796769741723E-01
    0.45441953509237992259E-01
    0.45441958315478793440E-01
    0.45441962866728212445E-01
    0.45441960133200558214E-01
    0.45441959106826919357E-01
    0.45441981285482560549E-01
    0.45441982409901660045E-01
    0.45441993320827996083E-01
    0.45441993320827503422E-01
    0.45441982409901666984E-01
    0.45441981285481609920E-01
    0.45441971620097068585E-01
    0.45441968866051014875E-01
    0.45441961684514843578E-01
    0.45441961684514149689E-01
    0.45441968866051722642E-01
    0.45441971620097124096E-01
    0.45441974794797147796E-01
    0.45441974794797009018E-01
    0.45441985369411783124E-01
    0.45441992322396949910E-01
    0.45442005944794736094E-01
    0.45442011023891094867E-01
    0.45442002010526984235E-01
    0.45442008112174053780E-01
    0.45441997347114612693E-01
    0.45441987361097002651E-01
    0.45441977037574576848E-01
    0.45441972679268374802E-01
    0.45441978182517626939E-01
    0.45441975535262024710E-01
    0.45441987568706300460E-01
    0.45441990313235057497E-01
    0.45442037030154751320E-01
    0.45442051075704391339E-01
    0.45442075196546215243E-01
    0.45442085011510036097E-01
    0.45442069782988446514E-01
    0.45442081086668854872E-01
    0.45442062014275308446E-01
    0.45442043885601850206E-01
    0.45442025045871713151E-01
    0.45442016489535351498E-01
    0.45442026162711299242E-01
    0.45442019768301457339E-01
    0.45442043517937208419E-01
    0.45442048851366087514E-01
    0.45442015119577183757E-01
    0.45442020558203337355E-01
    0.45442039725123985205E-01
    0.45442042284226533133E-01
    0.45442025242499420323E-01
    0.45442026221683848308E-01
    0.45442009418149027777E-01
    0.45442002000896729308E-01
    0.45441988264780255879E-01
    0.45441986195785537272E-01
    0.45441997697730399097E-01
    0.45441998984812013995E-01
    0.45442009513684905597E-01
    0.45442010828458667682E-01
    0.45442079290018984328E-01
    0.45442091830175758427E-01
    0.45442124882448052536E-01
    0.45442131733755990186E-01
    0.45442104409874055360E-01
    0.45442108782007217815E-01
    0.45442080369663913342E-01
    0.45442065411982347778E-01
    0.45442041137562137754E-01
    0.45442035640883171599E-01
    0.45442053889597093519E-01
    0.45442052857397413623E-01
    0.45442075253991187633E-01
    0.45442078779319446113E-01
    0.45442008112176579537E-01
    0.45442002010528989575E-01
    0.45442011023893509603E-01
    0.45442005944796422245E-01
    0.45441992322398726267E-01
    0.45441985369412608853E-01
    0.45441975535263454122E-01
    0.45441978182518640017E-01
    0.45441972679269887481E-01
    0.45441977037575742582E-01
    0.45441987361098890030E-01
    0.45441997347116694361E-01
    0.45441990313236819976E-01
    0.45441987568707944978E-01
    0.45442026221685631604E-01
    0.45442025242501120352E-01
    0.45442042284227671112E-01
    0.45442039725125511762E-01
    0.45442020558204065939E-01
    0.45442015119577842952E-01
    0.45441998984812145834E-01
    0.45441997697731162376E-01
    0.45441986195786300551E-01
    0.45441988264781386919E-01
    0.45442002000898054637E-01
    0.45442009418151005362E-01
    0.45442010828460020766E-01
    0.45442009513685877042E-01
    0.45442081086673261070E-01
    0.45442069782992498828E-01
    0.45442085011513998205E-01
    0.45442075196550239802E-01
    0.45442051075707583230E-01
    0.45442037030157686472E-01
    0.45442019768303774929E-01
    0.45442026162714199700E-01
    0.45442016489538029911E-01
    0.45442025045874662181E-01
    0.45442043885605326592E-01
    0.45442062014279339943E-01
    0.45442048851369695739E-01
    0.45442043517940407249E-01
    0.45442108782011596257E-01
    0.45442104409877323579E-01
    0.45442131733760049439E-01
    0.45442124882450543599E-01
    0.45442091830178596434E-01
    0.45442079290020427618E-01
    0.45442052857399647947E-01
    0.45442053889599147432E-01
    0.45442035640885759806E-01
    0.45442041137564517794E-01
    0.45442065411985629875E-01
    0.45442080369667285644E-01
    0.45442078779322339632E-01
    0.45442075253994018702E-01
    0.45442073440423058628E-01
    0.45442077667597370605E-01
    0.45442106124895860486E-01
    0.45442106124895020880E-01
    0.45442077667597197133E-01
    0.45442073440421532071E-01
    0.45442047513313550688E-01
    0.45442041506074726254E-01
    0.45442021621029844713E-01
    0.45442021621029650424E-01
    0.45442041506075413204E-01
    0.45442047513314078044E-01
    0.45442057936366665738E-01
    0.45442057936366617166E-01
    0.45442161403865505287E-01
    0.45442173953920202145E-01
    0.45442221929582568563E-01
    0.45442226415192583933E-01
    0.45442181758994719398E-01
    0.45442179402738841487E-01
    0.45442136403050469029E-01
    0.45442122505456067350E-01
    0.45442088505317355940E-01
    0.45442085467962273215E-01
    0.45442115807073038547E-01
    0.45442120390829135457E-01
    0.45442144893021604868E-01
    0.45442147016361303380E-01
    0.45442179402741325611E-01
    0.45442181758997494956E-01
    0.45442226415194138245E-01
    0.45442221929585108198E-01
    0.45442173953921194407E-01
    0.45442161403866775105E-01
    0.45442120390829024434E-01
    0.45442115807074523470E-01
    0.45442085467963105883E-01
    0.45442088505319618019E-01
    0.45442122505457947790E-01
    0.45442136403053945415E-01
    0.45442147016363350354E-01
    0.45442144893023124486E-01
    0.45442308153947702509E-01
    0.45442320060916439883E-01
    0.45442392452446980777E-01
    0.45442392452445565243E-01
    0.45442320060916266411E-01
    0.45442308153945239202E-01
    0.45442242400660914914E-01
    0.45442228249640205517E-01
    0.45442178109500845629E-01
    0.45442178109500429295E-01
    0.45442228249641301863E-01
    0.45442242400661587987E-01
    0.45442270195520217957E-01
    0.45442270195520127751E-01
    0.45442129959859689503E-01
    0.45442155265053858770E-01
    0.45442197135975442857E-01
    0.45442214739650765853E-01
    0.45442188681272213668E-01
    0.45442208671634988504E-01
    0.45442175690883442052E-01
    0.45442143941399705531E-01
    0.45442111083367424385E-01
    0.45442095892293435377E-01
    0.45442112419791076683E-01
    0.45442100492804733680E-01
    0.45442142737908787498E-01
    0.45442152245411489286E-01
    0.45442292991231841848E-01
    0.45442337288455744715E-01
    0.45442410260696321223E-01
    0.45442440676944292899E-01
    0.45442395110139879866E-01
    0.45442429167107681320E-01
    0.45442372326785031300E-01
    0.45442317598037719473E-01
    0.45442260692241956410E-01
    0.45442234361550308541E-01
    0.45442262877278608024E-01
    0.45442241823683837687E-01
    0.45442315559578380646E-01
    0.45442332045755762238E-01
    0.45442195049171386911E-01
    0.45442219667400668426E-01
    0.45442277140255671330E-01
    0.45442291272081519748E-01
    0.45442245256613091053E-01
    0.45442254707623828958E-01
    0.45442205632841133067E-01
    0.45442178454836695822E-01
    0.45442136364226747014E-01
    0.45442125541503203268E-01
    0.45442155444790292840E-01
    0.45442150683682167034E-01
    0.45442193080890959378E-01
    0.45442200194009532699E-01
    0.45442401441719799948E-01
    0.45442446968722127743E-01
    0.45442548060500694007E-01
    0.45442574127734912393E-01
    0.45442493815659283640E-01
    0.45442510720480354391E-01
    0.45442425105398663587E-01
    0.45442377233500953759E-01
    0.45442303856526866657E-01
    0.45442284233615820588E-01
    0.45442335370551992235E-01
    0.45442324934961919602E-01
    0.45442401570917355380E-01
    0.45442414554125211412E-01
    0.45442576425480600555E-01
    0.45442651804724787379E-01
    0.45442777477779507100E-01
    0.45442827495649706915E-01
    0.45442747962907308057E-01
    0.45442803627899791552E-01
    0.45442707414515767783E-01
    0.45442615109562108089E-01
    0.45442518218109427541E-01
    0.45442473317943314626E-01
    0.45442522861735556994E-01
    0.45442487464249142759E-01
    0.45442613085168205578E-01
    0.45442640676363992014E-01
    0.45443060838347593133E-01
    0.45443183537401635186E-01
    0.45443396315706229005E-01
    0.45443473509521728482E-01
    0.45443335547855505385E-01
    0.45443421500674735514E-01
    0.45443263398236809214E-01
    0.45443112670565465050E-01
    0.45442951621247548721E-01
    0.45442877572054847513E-01
    0.45442962937788017319E-01
    0.45442906735550410435E-01
    0.45443113846314976689E-01
    0.45443158035976122244E-01
    0.45442768946576901634E-01
    0.45442849567409224210E-01
    0.45443028979683171287E-01
    0.45443073302412269332E-01
    0.45442929147376263932E-01
    0.45442954571874166758E-01
    0.45442804730788759204E-01
    0.45442723691031777777E-01
    0.45442595839358064513E-01
    0.45442562243600485850E-01
    0.45442652203337242922E-01
    0.45442633753583323852E-01
    0.45442768521471062215E-01
    0.45442790645676391093E-01
    0.45443419574889475088E-01
    0.45443555641813140888E-01
    0.45443872772179587372E-01
    0.45443940569950547204E-01
    0.45443679113958954097E-01
    0.45443708408541956534E-01
    0.45443447873635987866E-01
    0.45443317500700908251E-01
    0.45443097121198844368E-01
    0.45443043113064608696E-01
    0.45443204354193085515E-01
    0.45443177870458477396E-01
    0.45443406135386638089E-01
    0.45443440786410195520E-01
    0.45442318924929260560E-01
    0.45442346189874069373E-01
    0.45442428372703964901E-01
    0.45442441040586360745E-01
    0.45442367765354381437E-01
    0.45442368785431237754E-01
    0.45442295401282348233E-01
    0.45442267714952203073E-01
    0.45442209119197676803E-01
    0.45442200965310104721E-01
    0.45442249632108584756E-01
    0.45442251889711300639E-01
    0.45442300738165297691E-01
    0.45442306534756074510E-01
    0.45442600417521288036E-01
    0.45442655050467066491E-01
    0.45442800068302126315E-01
    0.45442828063481793821E-01
    0.45442701843915064841E-01
    0.45442708036241646896E-01
    0.45442579197337691632E-01
    0.45442527491580377019E-01
    0.45442424479897922107E-01
    0.45442407355445559036E-01
    0.45442489026419785603E-01
    0.45442486674871857000E-01
    0.45442580107328010841E-01
    0.45442592586687174938E-01
    0.45442531624385842925E-01
    0.45442561854349930450E-01
    0.45442681909501805859E-01
    0.45442691835983171911E-01
    0.45442578111856264667E-01
    0.45442568899505771107E-01
    0.45442459627524911525E-01
    0.45442428292942482759E-01
    0.45442343562096879084E-01
    0.45442337853219855193E-01
    0.45442415244894271420E-01
    0.45442428245909861906E-01
    0.45442487595933216127E-01
    0.45442491883461812174E-01
    0.45442923658653017194E-01
    0.45442991020753997766E-01
    0.45443198228031660146E-01
    0.45443230293380286466E-01
    0.45443042249559126300E-01
    0.45443040480204609233E-01
    0.45442850880974466898E-01
    0.45442786558048078871E-01
    0.45442638970152868239E-01
    0.45442622045546096632E-01
    0.45442746849291823508E-01
    0.45442755148153601841E-01
    0.45442874775840837176E-01
    0.45442888085216945337E-01
    0.45443111466181525249E-01
    0.45443216031229256846E-01
    0.45443478106474873013E-01
    0.45443532094355809647E-01
    0.45443305185464744067E-01
    0.45443316270097802723E-01
    0.45443085336917724004E-01
    0.45442992910592200362E-01
    0.45442809316636134653E-01
    0.45442777239014270352E-01
    0.45442920317631203819E-01
    0.45442910809681456852E-01
    0.45443084417965462496E-01
    0.45443108094611960046E-01
    0.45444047765322369281E-01
    0.45444238713140731878E-01
    0.45444718426029616365E-01
    0.45444811044386565491E-01
    0.45444390917669531815E-01
    0.45444396878239562421E-01
    0.45443979404325485216E-01
    0.45443823051361985355E-01
    0.45443494365811139268E-01
    0.45443439970592990063E-01
    0.45443699626950710690E-01
    0.45443682937407268996E-01
    0.45443996066747524565E-01
    0.45444036427793495225E-01
    0.45443635985692940049E-01
    0.45443778491136038733E-01
    0.45444153292744690620E-01
    0.45444229298226855585E-01
    0.45443898616829146719E-01
    0.45443909175004106038E-01
    0.45443567006968423050E-01
    0.45443441899126774119E-01
    0.45443176098401288909E-01
    0.45443137727958590744E-01
    0.45443350342352556437E-01
    0.45443346256580148534E-01
    0.45443584348905573245E-01
    0.45443615347927970860E-01
    0.45444971295603944772E-01
    0.45445256973089001584E-01
    0.45445957375737630612E-01
    0.45446111400037896011E-01
    0.45445498102372423876E-01
    0.45445518188332881260E-01
    0.45444884476339215962E-01
    0.45444653342380014749E-01
    0.45444164406703430048E-01
    0.45444089147946412077E-01
    0.45444471974362084243E-01
    0.45444446707783359152E-01
    0.45444907936060770226E-01
    0.45444969829765313740E-01
    0.45442208671642225770E-01
    0.45442188681278791740E-01
    0.45442214739657968425E-01
    0.45442197135981486633E-01
    0.45442155265059687441E-01
    0.45442129959864331623E-01
    0.45442100492809528456E-01
    0.45442112419795996359E-01
    0.45442095892298320359E-01
    0.45442111083372621616E-01
    0.45442143941405666041E-01
    0.45442175690890061757E-01
    0.45442152245417331835E-01
    0.45442142737914560657E-01
    0.45442254707630198862E-01
    0.45442245256619509530E-01
    0.45442291272087188825E-01
    0.45442277140262110624E-01
    0.45442219667405435446E-01
    0.45442195049176209443E-01
    0.45442150683685497703E-01
    0.45442155444795073738E-01
    0.45442125541507220887E-01
    0.45442136364231951184E-01
    0.45442178454841990198E-01
    0.45442205632847829100E-01
    0.45442200194015118508E-01
    0.45442193080896003954E-01
    0.45442429167118394973E-01
    0.45442395110150073101E-01
    0.45442440676954395928E-01
    0.45442410260706549152E-01
    0.45442337288464480782E-01
    0.45442292991240217093E-01
    0.45442241823690873725E-01
    0.45442262877286740408E-01
    0.45442234361557920508E-01
    0.45442260692250192877E-01
    0.45442317598046816363E-01
    0.45442372326795162085E-01
    0.45442332045765101989E-01
    0.45442315559587109774E-01
    0.45442510720491387233E-01
    0.45442493815668734414E-01
    0.45442574127745834212E-01
    0.45442548060509319052E-01
    0.45442446968730981771E-01
    0.45442401441726433531E-01
    0.45442324934969434425E-01
    0.45442335370559187868E-01
    0.45442284233623599088E-01
    0.45442303856534360662E-01
    0.45442377233510057588E-01
    0.45442425105407989461E-01
    0.45442414554133905846E-01
    0.45442401570925973486E-01
    0.45442368785438065626E-01
    0.45442367765359162335E-01
    0.45442441040592640444E-01
    0.45442428372707545370E-01
    0.45442346189878496387E-01
    0.45442318924931349167E-01
    0.45442251889714853352E-01
    0.45442249632111630930E-01
    0.45442200965314261119E-01
    0.45442209119201111556E-01
    0.45442267714957330915E-01
    0.45442295401287247092E-01
    0.45442306534760466830E-01
    0.45442300738169599805E-01
    0.45442568899509303004E-01
    0.45442578111860539025E-01
    0.45442691835985350723E-01
    0.45442681909505747151E-01
    0.45442561854351325168E-01
    0.45442531624387917655E-01
    0.45442428245909514961E-01
    0.45442415244896609827E-01
    0.45442337853220909905E-01
    0.45442343562100522003E-01
    0.45442428292945209745E-01
    0.45442459627530372435E-01
    0.45442491883464886104E-01
    0.45442487595935519840E-01
    0.45442708036250736847E-01
    0.45442701843924807048E-01
    0.45442828063490106616E-01
    0.45442800068312028117E-01
    0.45442655050474123346E-01
    0.45442600417528837553E-01
    0.45442486674876637898E-01
    0.45442489026427064502E-01
    0.45442407355451318318E-01
    0.45442424479905992041E-01
    0.45442527491588113886E-01
    0.45442579197347975073E-01
    0.45442592586695508550E-01
    0.45442580107335588113E-01
    0.45443040480215156351E-01
    0.45443042249566391322E-01
    0.45443230293390049490E-01
    0.45443198228037183506E-01
    0.45442991020760811760E-01
    0.45442923658656160513E-01
    0.45442755148159007239E-01
    0.45442746849296361544E-01
    0.45442622045552528987E-01
    0.45442638970157912814E-01
    0.45442786558055933699E-01
    0.45442850880981738859E-01
    0.45442888085223676065E-01
    0.45442874775847331981E-01
    0.45442803627915459574E-01
    0.45442747962921921367E-01
    0.45442827495665388815E-01
    0.45442777477793495911E-01
    0.45442651804738186383E-01
    0.45442576425492112180E-01
    0.45442487464260605812E-01
    0.45442522861747262908E-01
    0.45442473317954840129E-01
    0.45442518218121528972E-01
    0.45442615109575583421E-01
    0.45442707414530436605E-01
    0.45442640676377328568E-01
    0.45442613085181424171E-01
    0.45442954571889057624E-01
    0.45442929147391328271E-01
    0.45443073302426757742E-01
    0.45443028979698721348E-01
    0.45442849567421866874E-01
    0.45442768946589572054E-01
    0.45442633753593253410E-01
    0.45442652203349323536E-01
    0.45442562243611143991E-01
    0.45442595839370526767E-01
    0.45442723691044684120E-01
    0.45442804730803754154E-01
    0.45442790645689949691E-01
    0.45442768521483829780E-01
    0.45443421500696669357E-01
    0.45443335547876592684E-01
    0.45443473509543100275E-01
    0.45443396315727566104E-01
    0.45443183537420356322E-01
    0.45443060838365509357E-01
    0.45442906735566009069E-01
    0.45442962937805322921E-01
    0.45442877572071216363E-01
    0.45442951621264986162E-01
    0.45443112670584533130E-01
    0.45443263398257757735E-01
    0.45443158035995613597E-01
    0.45443113846333496597E-01
    0.45443708408565139378E-01
    0.45443679113980152418E-01
    0.45443940569974673738E-01
    0.45443872772200480381E-01
    0.45443555641833360825E-01
    0.45443419574906308844E-01
    0.45443177870475748303E-01
    0.45443204354209933149E-01
    0.45443043113081733886E-01
    0.45443097121215671186E-01
    0.45443317500720552260E-01
    0.45443447873656221681E-01
    0.45443440786429693812E-01
    0.45443406135405955970E-01
    0.45443316270114761379E-01
    0.45443305185478975738E-01
    0.45443532094372948715E-01
    0.45443478106488112422E-01
    0.45443216031242940345E-01
    0.45443111466191607462E-01
    0.45442910809692975416E-01
    0.45442920317641889716E-01
    0.45442777239026101166E-01
    0.45442809316646903817E-01
    0.45442992910605953250E-01
    0.45443085336931379747E-01
    0.45443108094625116189E-01
    0.45443084417978396594E-01
    0.45443909175018455671E-01
    0.45443898616844662086E-01
    0.45444229298240351733E-01
    0.45444153292760587626E-01
    0.45443778491147251986E-01
    0.45443635985704895763E-01
    0.45443346256587510701E-01
    0.45443350342363880712E-01
    0.45443137727967305994E-01
    0.45443176098413896880E-01
    0.45443441899138813100E-01
    0.45443567006984680878E-01