# vtk DataFile Version 3.0
LAPLACIEN  2D
ASCII
DATASET UNSTRUCTURED_GRID
FIELD FieldData 1
TIME 1 1 double
4.4000
 POINTS        7297  float
   1.5625000000000000E-002  0.96875000000000000        0.0000000000000000     
   3.1250000000000000E-002  0.96875000000000000        0.0000000000000000     
   3.1250000000000000E-002  0.98437500000000000        0.0000000000000000     
   9.3749999999999997E-003  0.97812500000000002        0.0000000000000000     
   2.0312500000000001E-002  0.97968750000000004        0.0000000000000000     
   2.1874999999999999E-002  0.99062499999999998        0.0000000000000000     
   1.0937499999999999E-002  0.98906249999999996        0.0000000000000000     
   4.6875000000000000E-002  0.96875000000000000        0.0000000000000000     
   6.2500000000000000E-002  0.96875000000000000        0.0000000000000000     
   6.2500000000000000E-002  0.98437500000000000        0.0000000000000000     
   4.0625000000000001E-002  0.97812500000000002        0.0000000000000000     
   5.1562499999999997E-002  0.97968750000000004        0.0000000000000000     
   5.3124999999999999E-002  0.99062499999999998        0.0000000000000000     
   4.2187500000000003E-002  0.98906249999999996        0.0000000000000000     
   1.5625000000000000E-002  0.93750000000000000        0.0000000000000000     
   3.1250000000000000E-002  0.93750000000000000        0.0000000000000000     
   3.1250000000000000E-002  0.95312500000000000        0.0000000000000000     
   9.3749999999999997E-003  0.94687500000000002        0.0000000000000000     
   2.0312500000000001E-002  0.94843750000000004        0.0000000000000000     
   2.1874999999999999E-002  0.95937499999999998        0.0000000000000000     
   1.0937499999999999E-002  0.95781249999999996        0.0000000000000000     
   4.6875000000000000E-002  0.93750000000000000        0.0000000000000000     
   6.2500000000000000E-002  0.93750000000000000        0.0000000000000000     
   6.2500000000000000E-002  0.95312500000000000        0.0000000000000000     
   4.0625000000000001E-002  0.94687500000000002        0.0000000000000000     
   5.1562499999999997E-002  0.94843750000000004        0.0000000000000000     
   5.3124999999999999E-002  0.95937499999999998        0.0000000000000000     
   4.2187500000000003E-002  0.95781249999999996        0.0000000000000000     
   7.8125000000000000E-002  0.96875000000000000        0.0000000000000000     
   9.3750000000000000E-002  0.96875000000000000        0.0000000000000000     
   9.3750000000000000E-002  0.98437500000000000        0.0000000000000000     
   7.1874999999999994E-002  0.97812500000000002        0.0000000000000000     
   8.2812499999999997E-002  0.97968750000000004        0.0000000000000000     
   8.4375000000000006E-002  0.99062499999999998        0.0000000000000000     
   7.3437500000000003E-002  0.98906249999999996        0.0000000000000000     
  0.10937500000000000       0.96875000000000000        0.0000000000000000     
  0.12500000000000000       0.96875000000000000        0.0000000000000000     
  0.12500000000000000       0.98437500000000000        0.0000000000000000     
  0.10312499999999999       0.97812500000000002        0.0000000000000000     
  0.11406250000000000       0.97968750000000004        0.0000000000000000     
  0.11562500000000001       0.99062499999999998        0.0000000000000000     
  0.10468750000000000       0.98906249999999996        0.0000000000000000     
   7.8125000000000000E-002  0.93750000000000000        0.0000000000000000     
   9.3750000000000000E-002  0.93750000000000000        0.0000000000000000     
   9.3750000000000000E-002  0.95312500000000000        0.0000000000000000     
   7.1874999999999994E-002  0.94687500000000002        0.0000000000000000     
   8.2812499999999997E-002  0.94843750000000004        0.0000000000000000     
   8.4375000000000006E-002  0.95937499999999998        0.0000000000000000     
   7.3437500000000003E-002  0.95781249999999996        0.0000000000000000     
  0.10937500000000000       0.93750000000000000        0.0000000000000000     
  0.12500000000000000       0.93750000000000000        0.0000000000000000     
  0.12500000000000000       0.95312500000000000        0.0000000000000000     
  0.10312499999999999       0.94687500000000002        0.0000000000000000     
  0.11406250000000000       0.94843750000000004        0.0000000000000000     
  0.11562500000000001       0.95937499999999998        0.0000000000000000     
  0.10468750000000000       0.95781249999999996        0.0000000000000000     
   1.5625000000000000E-002  0.90625000000000000        0.0000000000000000     
   3.1250000000000000E-002  0.90625000000000000        0.0000000000000000     
   3.1250000000000000E-002  0.92187500000000000        0.0000000000000000     
   9.3749999999999997E-003  0.91562500000000002        0.0000000000000000     
   2.0312500000000001E-002  0.91718750000000004        0.0000000000000000     
   2.1874999999999999E-002  0.92812499999999998        0.0000000000000000     
   1.0937499999999999E-002  0.92656249999999996        0.0000000000000000     
   4.6875000000000000E-002  0.90625000000000000        0.0000000000000000     
   6.2500000000000000E-002  0.90625000000000000        0.0000000000000000     
   6.2500000000000000E-002  0.92187500000000000        0.0000000000000000     
   4.0625000000000001E-002  0.91562500000000002        0.0000000000000000     
   5.1562499999999997E-002  0.91718750000000004        0.0000000000000000     
   5.3124999999999999E-002  0.92812499999999998        0.0000000000000000     
   4.2187500000000003E-002  0.92656249999999996        0.0000000000000000     
   1.5625000000000000E-002  0.87500000000000000        0.0000000000000000     
   3.1250000000000000E-002  0.87500000000000000        0.0000000000000000     
   3.1250000000000000E-002  0.89062500000000000        0.0000000000000000     
   9.3749999999999997E-003  0.88437500000000002        0.0000000000000000     
   2.0312500000000001E-002  0.88593750000000004        0.0000000000000000     
   2.1874999999999999E-002  0.89687499999999998        0.0000000000000000     
   1.0937499999999999E-002  0.89531249999999996        0.0000000000000000     
   4.6875000000000000E-002  0.87500000000000000        0.0000000000000000     
   6.2500000000000000E-002  0.87500000000000000        0.0000000000000000     
   6.2500000000000000E-002  0.89062500000000000        0.0000000000000000     
   4.0625000000000001E-002  0.88437500000000002        0.0000000000000000     
   5.1562499999999997E-002  0.88593750000000004        0.0000000000000000     
   5.3124999999999999E-002  0.89687499999999998        0.0000000000000000     
   4.2187500000000003E-002  0.89531249999999996        0.0000000000000000     
   7.8125000000000000E-002  0.90625000000000000        0.0000000000000000     
   9.3750000000000000E-002  0.90625000000000000        0.0000000000000000     
   9.3750000000000000E-002  0.92187500000000000        0.0000000000000000     
   7.1874999999999994E-002  0.91562500000000002        0.0000000000000000     
   8.2812499999999997E-002  0.91718750000000004        0.0000000000000000     
   8.4375000000000006E-002  0.92812499999999998        0.0000000000000000     
   7.3437500000000003E-002  0.92656249999999996        0.0000000000000000     
  0.10937500000000000       0.90625000000000000        0.0000000000000000     
  0.12500000000000000       0.90625000000000000        0.0000000000000000     
  0.12500000000000000       0.92187500000000000        0.0000000000000000     
  0.10312499999999999       0.91562500000000002        0.0000000000000000     
  0.11406250000000000       0.91718750000000004        0.0000000000000000     
  0.11562500000000001       0.92812499999999998        0.0000000000000000     
  0.10468750000000000       0.92656249999999996        0.0000000000000000     
   7.8125000000000000E-002  0.87500000000000000        0.0000000000000000     
   9.3750000000000000E-002  0.87500000000000000        0.0000000000000000     
   9.3750000000000000E-002  0.89062500000000000        0.0000000000000000     
   7.1874999999999994E-002  0.88437500000000002        0.0000000000000000     
   8.2812499999999997E-002  0.88593750000000004        0.0000000000000000     
   8.4375000000000006E-002  0.89687499999999998        0.0000000000000000     
   7.3437500000000003E-002  0.89531249999999996        0.0000000000000000     
  0.10937500000000000       0.87500000000000000        0.0000000000000000     
  0.12500000000000000       0.87500000000000000        0.0000000000000000     
  0.12500000000000000       0.89062500000000000        0.0000000000000000     
  0.10312499999999999       0.88437500000000002        0.0000000000000000     
  0.11406250000000000       0.88593750000000004        0.0000000000000000     
  0.11562500000000001       0.89687499999999998        0.0000000000000000     
  0.10468750000000000       0.89531249999999996        0.0000000000000000     
  0.14062500000000000       0.96875000000000000        0.0000000000000000     
  0.15625000000000000       0.96875000000000000        0.0000000000000000     
  0.15625000000000000       0.98437500000000000        0.0000000000000000     
  0.13437499999999999       0.97812500000000002        0.0000000000000000     
  0.14531250000000001       0.97968750000000004        0.0000000000000000     
  0.14687500000000001       0.99062499999999998        0.0000000000000000     
  0.13593749999999999       0.98906249999999996        0.0000000000000000     
  0.17187500000000000       0.96875000000000000        0.0000000000000000     
  0.18750000000000000       0.96875000000000000        0.0000000000000000     
  0.18750000000000000       0.98437500000000000        0.0000000000000000     
  0.16562499999999999       0.97812500000000002        0.0000000000000000     
  0.17656250000000001       0.97968750000000004        0.0000000000000000     
[...]
 CELL_DATA       14336
 SCALARS Tumor_cells float
 LOOKUP_TABLE default
    0.15755658483798010844E-01
    0.15755650331644038137E-01
    0.15755699777234882103E-01
    0.15755699777230566111E-01
    0.15755650331637827827E-01
    0.15755658483783231000E-01
    0.15755617396421565252E-01
    0.15755592589064601472E-01
    0.15755565938224625616E-01
    0.15755565938224032341E-01
    0.15755592589069240123E-01
    0.15755617396431127047E-01
    0.15755612824326824251E-01
    0.15755612824325065241E-01
    0.15755812681560805305E-01
    0.15755853516569415934E-01
    0.15755955402711008945E-01
    0.15755985327221482678E-01
    0.15755913440440503376E-01
    0.15755953663637703444E-01
    0.15755872532073098014E-01
    0.15755799037272710111E-01
    0.15755719850051391751E-01
    0.15755689229691772352E-01
    0.15755738571887570321E-01
    0.15755730559780131012E-01
    0.15755808772493135050E-01
    0.15755826456679122155E-01
    0.15755953663701447592E-01
    0.15755913440490681987E-01
    0.15755985327273173968E-01
    0.15755955402749186739E-01
    0.15755853516596803748E-01
    0.15755812681571893658E-01
    0.15755730559789578316E-01
    0.15755738571907935974E-01
    0.15755689229711652283E-01
    0.15755719850077700567E-01
    0.15755799037311033622E-01
    0.15755872532125386049E-01
    0.15755826456716231360E-01
    0.15755808772524217826E-01
    0.15756108971237279409E-01
    0.15756117961734022320E-01
    0.15756242838650905830E-01
    0.15756242838641670162E-01
    0.15756117961717622244E-01
    0.15756108971199275087E-01
    0.15755986374214853152E-01
    0.15755945704433043514E-01
    0.15755843529890390525E-01
    0.15755843529896295524E-01
    0.15755945704446924771E-01
    0.15755986374247982901E-01
    0.15756023405206643490E-01
    0.15756023405202188720E-01
    0.15756168000800672979E-01
    0.15756255721633548317E-01
    0.15756407803826928682E-01
    0.15756465994793588531E-01
    0.15756372671668988916E-01
    0.15756443207536680734E-01
    0.15756324116068139846E-01
    0.15756204118381279822E-01
    0.15756074449367638707E-01
    0.15756014252475390031E-01
    0.15756085586080829236E-01
    0.15756045990731184364E-01
    0.15756203893951919309E-01
    0.15756238486972180129E-01
    0.15756714474264431336E-01
    0.15756845675052592176E-01
    0.15757044291523865376E-01
    0.15757128169321499983E-01
    0.15757014870601694645E-01
    0.15757112892142124266E-01
    0.15756959008848894777E-01
    0.15756796248070099181E-01
    0.15756619746409381705E-01
    0.15756531887002447889E-01
    0.15756623938157351267E-01
    0.15756554852334712230E-01
    0.15756787051668913469E-01
    0.15756837223371046586E-01
    0.15756466981863812699E-01
    0.15756522833009985879E-01
    0.15756698439414511259E-01
    0.15756726507218106470E-01
    0.15756579414068917766E-01
    0.15756600241048565603E-01
    0.15756439088404759763E-01
    0.15756352151104397602E-01
    0.15756199134412549046E-01
    0.15756169755994427206E-01
    0.15756294531065764830E-01
    0.15756303888655436712E-01
    0.15756420612605081394E-01
    0.15756437389669159660E-01
    0.15757017628351497468E-01
    0.15757116965985074747E-01
    0.15757340246287353247E-01
    0.15757393856552306260E-01
    0.15757225425927601919E-01
    0.15757273141739282230E-01
    0.15757076119617605819E-01
    0.15756946584505857750E-01
    0.15756746033615640079E-01
    0.15756689258678270582E-01
    0.15756835619724480352E-01
    0.15756815963155357957E-01
    0.15757007037395527604E-01
    0.15757039272226127519E-01
    0.15756443207682876290E-01
    0.15756372671796390478E-01
    0.15756465994926187324E-01
    0.15756407803941042262E-01
    0.15756255721728156666E-01
    0.15756168000870998669E-01
    0.15756045990792902356E-01
    0.15756085586159172818E-01
    0.15756014252549278842E-01
    0.15756074449453299352E-01
    0.15756204118487358162E-01
    0.15756324116196315094E-01
    0.15756238487078258470E-01
    0.15756203894049098518E-01
    0.15756600241169080312E-01
    0.15756579414162561609E-01
    0.15756726507308287805E-01
    0.15756698439481211377E-01
    0.15756522833060841032E-01
    0.15756466981884997142E-01
    0.15756303888674688674E-01
    0.15756294531109778234E-01
    0.15756169756042642111E-01
    0.15756199134477712198E-01
    0.15756352151186106547E-01
    0.15756439088513825297E-01
    0.15756437389742642546E-01
    0.15756420612666736936E-01
    0.15757112892404012000E-01
    0.15757014870839528703E-01
    0.15757128169568181131E-01
    0.15757044291747138165E-01
    0.15756845675247797139E-01
    0.15756714474427370443E-01
    0.15756554852482337198E-01
    0.15756623938326993345E-01
    0.15756531887163839623E-01
    0.15756619746587628011E-01
    0.15756796248277336187E-01
    0.15756959009086215356E-01
    0.15756837223579459734E-01
    0.15756787051865533966E-01
    0.15757273141975509934E-01
    0.15757225426131695606E-01
    0.15757393856756580358E-01
    0.15757340246463222982E-01
    0.15757116966136547331E-01
    0.15757017628465302267E-01
    0.15756815963260551589E-01
    0.15756835619859795722E-01
    0.15756689258814043919E-01
    0.15756746033773409710E-01
    0.15756946584688742707E-01
    0.15757076119835834033E-01
    0.15757039272401959090E-01
    0.15757007037556634843E-01
    0.15756962715477079717E-01
    0.15756989046621139999E-01
    0.15757187927190871579E-01
    0.15757187927176622561E-01
    0.15756989046594775672E-01
    0.15756962715415746834E-01
    0.15756760179297057967E-01
    0.15756704536840897973E-01
    0.15756528310294743572E-01
    0.15756528310305738250E-01
    0.15756704536864736543E-01
    0.15756760179353727913E-01
    0.15756838727557717639E-01
    0.15756838727550338125E-01
    0.15757521316214440077E-01
    0.15757591548333761688E-01
    0.15757840000098499722E-01
    0.15757865612743223588E-01
    0.15757643404187032798E-01
    0.15757643455347383060E-01
    0.15757403209680220790E-01
    0.15757304847587891988E-01
    0.15757079883946197713E-01
    0.15757052617727227567E-01
    0.15757251672942968607E-01
    0.15757278599783743067E-01
    0.15757432245723707043E-01
    0.15757447675313125679E-01
    0.15757643455524449755E-01
    0.15757643404323853908E-01
    0.15757865612871572308E-01
    0.15757840000193423791E-01
    0.15757591548408025200E-01
    0.15757521316245720611E-01
    0.15757278599813025199E-01
    0.15757251673010438942E-01
    0.15757052617803801731E-01
    0.15757079884049805807E-01
    0.15757304847712927387E-01
    0.15757403209846070763E-01
    0.15757447675422860817E-01
    0.15757432245815806982E-01
    0.15758215739448425130E-01
    0.15758259997883203307E-01
    0.15758534551296918963E-01
    0.15758534551277739860E-01
    0.15758259997847006567E-01
    0.15758215739363971852E-01
    0.15757932727642632448E-01
    0.15757862511659403298E-01
    0.15757612805277113055E-01
    0.15757612805293141900E-01
    0.15757862511693133262E-01
    0.15757932727722523403E-01
    0.15758053330427079092E-01
    0.15758053330416806059E-01
    0.15757437067361133171E-01
    0.15757607265199757851E-01
    0.15757848268544011328E-01
    0.15757954830460406404E-01
    0.15757822955830710909E-01
    0.15757945290577075187E-01
    0.15757760129932088522E-01
    0.15757558935436587200E-01
    0.15757340082560206823E-01
    0.15757227177828177916E-01
    0.15757338284824579794E-01
    0.15757242777003268447E-01
    0.15757541999453179848E-01
    0.15757606099772773767E-01
    0.15758319117516444291E-01
    0.15758523698154103948E-01
    0.15758803624921064596E-01
    0.15758929772839210676E-01
    0.15758779907193935094E-01
    0.15758923208370675950E-01
    0.15758709820054641465E-01
    0.15758474494634810287E-01
    0.15758217669546173423E-01
    0.15758082507046411447E-01
    0.15758211200810199465E-01
    0.15758092664122733823E-01
    0.15758451427667474060E-01
    0.15758527741617307100E-01
    0.15757747881257784528E-01
    0.15757886504373225939E-01
    0.15758154428398080810E-01
    0.15758230560980482360E-01
    0.15758040904454494874E-01
    0.15758111728076871355E-01
    0.15757881183622236831E-01
    0.15757713641610118782E-01
    0.15757469425468791785E-01
    0.15757388059957844889E-01
    0.15757555096184514692E-01
    0.15757509617587730361E-01
    0.15757768237626638974E-01
    0.15757814209636296365E-01
    0.15758644566480416865E-01
    0.15758818237877628143E-01
    0.15759129337034265272E-01
    0.15759224772950827104E-01
    0.15759012115238762303E-01
    0.15759101680679944019E-01
    0.15758838651921638907E-01
    0.15758637696383821086E-01
    0.15758353015003480346E-01
    0.15758250201251655653E-01
    0.15758437954268476877E-01
    0.15758370604399010717E-01
    0.15758689718182079115E-01
    0.15758747535786436084E-01
    0.15759346082085991247E-01
    0.15759580842481028112E-01
    0.15759897953952984456E-01
    0.15760040607685651265E-01
    0.15759871798652090591E-01
    0.15760032833758992610E-01
    0.15759793145401563425E-01
    0.15759527216078334649E-01
    0.15759235926295224461E-01
    0.15759081007544403774E-01
    0.15759226631021170523E-01
    0.15759088670163522855E-01
    0.15759500141285406188E-01
    0.15759587026110320751E-01
    0.15760509747738564446E-01
    0.15760771145061490406E-01
    0.15761127332169836551E-01
    0.15761283294844757180E-01
    0.15761091461902201893E-01
    0.15761266984598405749E-01
    0.15761001031297489083E-01
    0.15760706582877689885E-01
    0.15760382330386187022E-01
    0.15760209598409780779E-01
    0.15760373082759158297E-01
    0.15760219438975726219E-01
    0.15760678575173065613E-01
    0.15760774592240643643E-01
    0.15759700029802762439E-01
    0.15759905268893634189E-01
    0.15760262274743773447E-01
    0.15760373776731881335E-01
    0.15760132021130603824E-01
    0.15760234891095840914E-01
    0.15759937156321283946E-01
    0.15759707031880697270E-01
    0.15759382914901358397E-01
    0.15759261923911208059E-01
    0.15759472651247666969E-01
    0.15759388011333717861E-01
    0.15759761985010840857E-01
    0.15759829715812089662E-01
    0.15760920209137056075E-01
    0.15761154879639516918E-01
    0.15761568211999456290E-01
    0.15761691782895395630E-01
    0.15761406957334429119E-01
    0.15761515341152356612E-01
    0.15761174765469093684E-01
    0.15760919146123292256E-01
    0.15760552357376052951E-01
    0.15760416545971833030E-01
    0.15760657202699548951E-01
    0.15760561207226603253E-01
    0.15760986970828162052E-01
    0.15761062458282844995E-01
    0.15758265593786298375E-01
    0.15758376012826650486E-01
    0.15758672422737356883E-01
    0.15758720874621934271E-01
    0.15758474085952968446E-01
    0.15758496684747755334E-01
    0.15758219628867458501E-01
    0.15758082716006243523E-01
    0.15757811793812734336E-01
    0.15757760000999227606E-01
    0.15757981979011608659E-01
    0.15757983548418178638E-01
    0.15758206222404112784E-01
    0.15758235423131983222E-01
    0.15759187622547198709E-01
    0.15759335303418511853E-01
    0.15759681417089384942E-01
    0.15759750343686138030E-01
    0.15759474231218512097E-01
    0.15759514820052993034E-01
    0.15759198857506203501E-01
    0.15759027384382551934E-01
    0.15758711538790111384E-01
    0.15758638227089980660E-01
    0.15758884903395345423E-01
    0.15758864943439115924E-01
    0.15759151647449308464E-01
    0.15759192978777158273E-01
    0.15758982196391293357E-01
    0.15759067870040038145E-01
    0.15759394937869077025E-01
    0.15759418377638310244E-01
    0.15759114945904713345E-01
    0.15759093018898429756E-01
    0.15758768750096390637E-01
    0.15758658823315920688E-01
    0.15758359775585085299E-01
    0.15758335042093399997E-01
    0.15758610683887688819E-01
    0.15758655932878333494E-01
    0.15758848012240443681E-01
    0.15758861995907615799E-01
    0.15759941533570645533E-01
    0.15760067802052132174E-01
    0.15760452837070039467E-01
    0.15760499086508870242E-01
    0.15760159083063426944E-01
    0.15760155947264955362E-01
    0.15759784324761973162E-01
    0.15759636767336476088E-01
    0.15759286533867270658E-01
    0.15759239506015650795E-01
    0.15759544721723150323E-01
    0.15759568391683586447E-01
    0.15759829853140849137E-01
    0.15759856771685828991E-01
    0.15760291735925410078E-01
    0.15760476060746399923E-01
    0.15760881273781866124E-01
    0.15760968925269180918E-01
    0.15760651186723650952E-01
    0.15760703876880433755E-01
    0.15760340321536031594E-01
    0.15760137081780260099E-01
    0.15759772915025189316E-01
    0.15759681074999129513E-01
    0.15759958391047740323E-01
    0.15759921405282123485E-01
    0.15760270507205662721E-01
    0.15760322464020884436E-01
    0.15761609024202569845E-01
    0.15761833360928144410E-01
    0.15762322146012749252E-01
    0.15762427063317416276E-01
    0.15762040396974451306E-01
    0.15762095571786795267E-01
    0.15761663327584007205E-01
    0.15761429590895461444E-01
    0.15761004835995188339E-01
    0.15760897504482975634E-01
    0.15761220163158097540E-01
    0.15761172076300216521E-01
    0.15761588699023800636E-01
    0.15761649844347157268E-01
    0.15761113836266878868E-01
    0.15761285363704812673E-01
    0.15761746704159061011E-01
    0.15761817821946494389E-01
    0.15761421931759469345E-01
    0.15761433469157159343E-01
    0.15760997072075042663E-01
    0.15760810887392454754E-01
    0.15760399521061663891E-01
    0.15760331734579840351E-01
    0.15760676553825306301E-01
    0.15760681384665534144E-01
    0.15761018317555868656E-01
    0.15761058086093307495E-01
    0.15762566719706265495E-01
    0.15762797658986835853E-01
    0.15763379377232395601E-01
    0.15763481229314806054E-01
    0.15762985962059890277E-01
    0.15763005030105508436E-01
    0.15762464156325147607E-01
    0.15762233083934294037E-01
    0.15761734528157725355E-01
    0.15761646255522367838E-01
    0.15762054666045771656E-01
    0.15762043582764933419E-01
    0.15762476587702595882E-01
    0.15762530408392188414E-01
    0.15757945290986782177E-01
    0.15757822956211291893E-01
    0.15757954830853338618E-01
    0.15757848268908792450E-01
    0.15757607265528196516E-01
    0.15757437067649541357E-01
    0.15757242777269864220E-01
    0.15757338285118421134E-01
    0.15757227178110153748E-01
    0.15757340082863918740E-01
    0.15757558935777592202E-01
    0.15757760130310886210E-01
    0.15757606100116099829E-01
    0.15757541999781913417E-01
    0.15758111728460925255E-01
    0.15758040904801328547E-01
    0.15758230561331024872E-01
    0.15758154428715469286E-01
    0.15757886504657953042E-01
    0.15757747881497072284E-01
    0.15757509617811912145E-01
    0.15757555096444043202E-01
    0.15757388060214226611E-01
    0.15757469425752033965E-01
    0.15757713641926799492E-01
    0.15757881183981973378E-01
    0.15757814209947054729E-01
    0.15757768237919876630E-01
    0.15758923208959007417E-01
    0.15758779907748269450E-01
    0.15758929773409272035E-01
    0.15758803625458436826E-01
    0.15758523698647212974E-01
    0.15758319117962077405E-01
    0.15758092664540306049E-01
    0.15758211201260034079E-01
    0.15758082507480928453E-01
    0.15758217670007099859E-01
    0.15758474495141016475E-01
    0.15758709820606019852E-01
    0.15758527742126909876E-01
    0.15758451428159798990E-01
    0.15759101681242653620E-01
    0.15759012115759408329E-01
    0.15759224773478564680E-01
    0.15759129337524321185E-01
    0.15758818238327067240E-01
    0.15758644566876971183E-01
    0.15758370604774182833E-01
    0.15758437954684016008E-01
    0.15758250201660578549E-01
    0.15758353015443947454E-01
    0.15758637696865720329E-01
    0.15758838652453976970E-01
    0.15758747536263502387E-01
    0.15758689718638935889E-01
    0.15758496685072682919E-01
    0.15758474086232560768E-01
    0.15758720874896579162E-01
    0.15758672422973830918E-01
    0.15758376013034175456E-01
    0.15758265593943075744E-01
    0.15757983548566462800E-01
    0.15757981979203302542E-01
    0.15757760001196427502E-01
    0.15757811794041821918E-01
    0.15758082716265088552E-01
    0.15758219629174830684E-01
    0.15758235423376665968E-01
    0.15758206222628346610E-01
    0.15759093019130782087E-01
    0.15759114946083719461E-01
    0.15759418377803827149E-01
    0.15759394937991486052E-01
    0.15759067870137137557E-01
    0.15758982196432350792E-01
    0.15758655932917448039E-01
    0.15758610683978185873E-01
    0.15758335042198000353E-01
    0.15758359775726614449E-01
    0.15758658823483484568E-01
    0.15758768750317838497E-01
    0.15758861996052864196E-01
    0.15758848012362332291E-01
    0.15759514820556652648E-01
    0.15759474231671993100E-01
    0.15759750344138075129E-01
    0.15759681417498599271E-01
    0.15759335303790811267E-01
    0.15759187622861273864E-01
    0.15758864943738418174E-01
    0.15758884903743088091E-01
    0.15758638227439759893E-01
    0.15758711539176475935E-01
    0.15759027384806677946E-01
    0.15759198857986250059E-01
    0.15759192979188214878E-01
    0.15759151647837220389E-01
    0.15760155947676161153E-01
    0.15760159083416422354E-01
    0.15760499086851790379E-01
    0.15760452837365299811E-01
    0.15760067802314085827E-01
    0.15759941533769077082E-01
    0.15759568391873764182E-01
    0.15759544721969758613E-01
    0.15759239506272875592E-01
    0.15759286534166108001E-01
    0.15759636767669379931E-01
    0.15759784325156178664E-01
    0.15759856771997513697E-01
    0.15759829853426485236E-01
    0.15760032834555161296E-01
    0.15759871799409696375E-01
    0.15760040608462172473E-01
    0.15759897954692538707E-01
    0.15759580843168797398E-01
    0.15759346082719210419E-01
    0.15759088670762706752E-01
    0.15759226631657404644E-01
    0.15759081008162031251E-01
    0.15759235926943719608E-01
    0.15759527216779693759E-01
    0.15759793146155085669E-01
    0.15759587026816103406E-01
    0.15759500141971364423E-01
    0.15760234891866474471E-01
    0.15760132021854611484E-01
    0.15760373777466210599E-01
    0.15760262275436136281E-01
    0.15759905269537837630E-01
    0.15759700030386989550E-01
    0.15759388011890595321E-01
    0.15759472651849681935E-01
    0.15759261924503286528E-01
    0.15759382915529425440E-01
    0.15759707032557804945E-01
    0.15759937157055810969E-01
    0.15759829716485415640E-01
    0.15759761985661414202E-01
    0.15761266985629837634E-01
    0.15761091462890831211E-01
    0.15761283295855344627E-01
    0.15761127333139442891E-01
    0.15760771145972247986E-01
    0.15760509748588134860E-01
    0.15760219439785626977E-01
    0.15760373083610595274E-01
    0.15760209599239499018E-01
    0.15760382331250960553E-01
    0.15760706583802460562E-01
    0.15761001032280973211E-01
    0.15760774593170809310E-01
    0.15760678576081016411E-01
    0.15761515342158433778E-01
    0.15761406958289692765E-01
    0.15761691783864120731E-01
    0.15761568212922211218E-01
    0.15761154880506954984E-01
    0.15760920209937863412E-01
    0.15760561207994332883E-01
    0.15760657203516898611E-01
    0.15760416546776088997E-01
    0.15760552358220492053E-01
    0.15760919147023925990E-01
    0.15761174766433690142E-01
    0.15761062459180734396E-01
    0.15760986971700911841E-01
    0.15760703877592232430E-01
    0.15760651187380708693E-01
    0.15760968925927969914E-01
    0.15760881274393651053E-01
    0.15760476061313661439E-01
    0.15760291736427359255E-01
    0.15759921405763235164E-01
    0.15759958391582080256E-01
    0.15759681075532154526E-01
    0.15759772915599247478E-01
    0.15760137082399729852E-01
    0.15760340322218426706E-01
    0.15760322464628363781E-01
    0.15760270507787447342E-01
    0.15761433469776816446E-01
    0.15761421932316325989E-01
    0.15761817822496613367E-01
    0.15761746704657176449E-01
    0.15761285364161957412E-01
    0.15761113836653350972E-01
    0.15760681385037673963E-01
    0.15760676554258681858E-01
    0.15760331735020477462E-01
    0.15760399521548389135E-01
    0.15760810887920938261E-01
    0.15760997072671860397E-01