# vtk DataFile Version 3.0
LAPLACIEN  2D
ASCII
DATASET UNSTRUCTURED_GRID
FIELD FieldData 1
TIME 1 1 double
5.3000
 POINTS        7297  float
   1.5625000000000000E-002  0.96875000000000000        0.0000000000000000     
   3.1250000000000000E-002  0.96875000000000000        0.0000000000000000     
   3.1250000000000000E-002  0.98437500000000000        0.0000000000000000     
   9.3749999999999997E-003  0.97812500000000002        0.0000000000000000     
   2.0312500000000001E-002  0.97968750000000004        0.0000000000000000     
   2.1874999999999999E-002  0.99062499999999998        0.0000000000000000     
   1.0937499999999999E-002  0.98906249999999996        0.0000000000000000     
   4.6875000000000000E-002  0.96875000000000000        0.0000000000000000     
   6.2500000000000000E-002  0.96875000000000000        0.0000000000000000     
   6.2500000000000000E-002  0.98437500000000000        0.0000000000000000     
   4.0625000000000001E-002  0.97812500000000002        0.0000000000000000     
   5.1562499999999997E-002  0.97968750000000004        0.0000000000000000     
   5.3124999999999999E-002  0.99062499999999998        0.0000000000000000     
   4.2187500000000003E-002  0.98906249999999996        0.0000000000000000     
   1.5625000000000000E-002  0.93750000000000000        0.0000000000000000     
   3.1250000000000000E-002  0.93750000000000000        0.0000000000000000     
   3.1250000000000000E-002  0.95312500000000000        0.0000000000000000     
   9.3749999999999997E-003  0.94687500000000002        0.0000000000000000     
   2.0312500000000001E-002  0.94843750000000004        0.0000000000000000     
   2.1874999999999999E-002  0.95937499999999998        0.0000000000000000     
   1.0937499999999999E-002  0.95781249999999996        0.0000000000000000     
   4.6875000000000000E-002  0.93750000000000000        0.0000000000000000     
   6.2500000000000000E-002  0.93750000000000000        0.0000000000000000     
   6.2500000000000000E-002  0.95312500000000000        0.0000000000000000     
   4.0625000000000001E-002  0.94687500000000002        0.0000000000000000     
   5.1562499999999997E-002  0.94843750000000004        0.0000000000000000     
   5.3124999999999999E-002  0.95937499999999998        0.0000000000000000     
   4.2187500000000003E-002  0.95781249999999996        0.0000000000000000     
   7.8125000000000000E-002  0.96875000000000000        0.0000000000000000     
   9.3750000000000000E-002  0.96875000000000000        0.0000000000000000     
   9.3750000000000000E-002  0.98437500000000000        0.0000000000000000     
   7.1874999999999994E-002  0.97812500000000002        0.0000000000000000     
   8.2812499999999997E-002  0.97968750000000004        0.0000000000000000     
   8.4375000000000006E-002  0.99062499999999998        0.0000000000000000     
   7.3437500000000003E-002  0.98906249999999996        0.0000000000000000     
  0.10937500000000000       0.96875000000000000        0.0000000000000000     
  0.12500000000000000       0.96875000000000000        0.0000000000000000     
  0.12500000000000000       0.98437500000000000        0.0000000000000000     
  0.10312499999999999       0.97812500000000002        0.0000000000000000     
  0.11406250000000000       0.97968750000000004        0.0000000000000000     
  0.11562500000000001       0.99062499999999998        0.0000000000000000     
  0.10468750000000000       0.98906249999999996        0.0000000000000000     
   7.8125000000000000E-002  0.93750000000000000        0.0000000000000000     
   9.3750000000000000E-002  0.93750000000000000        0.0000000000000000     
   9.3750000000000000E-002  0.95312500000000000        0.0000000000000000     
   7.1874999999999994E-002  0.94687500000000002        0.0000000000000000     
   8.2812499999999997E-002  0.94843750000000004        0.0000000000000000     
   8.4375000000000006E-002  0.95937499999999998        0.0000000000000000     
   7.3437500000000003E-002  0.95781249999999996        0.0000000000000000     
  0.10937500000000000       0.93750000000000000        0.0000000000000000     
  0.12500000000000000       0.93750000000000000        0.0000000000000000     
  0.12500000000000000       0.95312500000000000        0.0000000000000000     
  0.10312499999999999       0.94687500000000002        0.0000000000000000     
  0.11406250000000000       0.94843750000000004        0.0000000000000000     
  0.11562500000000001       0.95937499999999998        0.0000000000000000     
  0.10468750000000000       0.95781249999999996        0.0000000000000000     
   1.5625000000000000E-002  0.90625000000000000        0.0000000000000000     
   3.1250000000000000E-002  0.90625000000000000        0.0000000000000000     
   3.1250000000000000E-002  0.92187500000000000        0.0000000000000000     
   9.3749999999999997E-003  0.91562500000000002        0.0000000000000000     
   2.0312500000000001E-002  0.91718750000000004        0.0000000000000000     
   2.1874999999999999E-002  0.92812499999999998        0.0000000000000000     
   1.0937499999999999E-002  0.92656249999999996        0.0000000000000000     
   4.6875000000000000E-002  0.90625000000000000        0.0000000000000000     
   6.2500000000000000E-002  0.90625000000000000        0.0000000000000000     
   6.2500000000000000E-002  0.92187500000000000        0.0000000000000000     
   4.0625000000000001E-002  0.91562500000000002        0.0000000000000000     
   5.1562499999999997E-002  0.91718750000000004        0.0000000000000000     
   5.3124999999999999E-002  0.92812499999999998        0.0000000000000000     
   4.2187500000000003E-002  0.92656249999999996        0.0000000000000000     
   1.5625000000000000E-002  0.87500000000000000        0.0000000000000000     
   3.1250000000000000E-002  0.87500000000000000        0.0000000000000000     
   3.1250000000000000E-002  0.89062500000000000        0.0000000000000000     
   9.3749999999999997E-003  0.88437500000000002        0.0000000000000000     
   2.0312500000000001E-002  0.88593750000000004        0.0000000000000000     
   2.1874999999999999E-002  0.89687499999999998        0.0000000000000000     
   1.0937499999999999E-002  0.89531249999999996        0.0000000000000000     
   4.6875000000000000E-002  0.87500000000000000        0.0000000000000000     
   6.2500000000000000E-002  0.87500000000000000        0.0000000000000000     
   6.2500000000000000E-002  0.89062500000000000        0.0000000000000000     
   4.0625000000000001E-002  0.88437500000000002        0.0000000000000000     
   5.1562499999999997E-002  0.88593750000000004        0.0000000000000000     
   5.3124999999999999E-002  0.89687499999999998        0.0000000000000000     
   4.2187500000000003E-002  0.89531249999999996        0.0000000000000000     
   7.8125000000000000E-002  0.90625000000000000        0.0000000000000000     
   9.3750000000000000E-002  0.90625000000000000        0.0000000000000000     
   9.3750000000000000E-002  0.92187500000000000        0.0000000000000000     
   7.1874999999999994E-002  0.91562500000000002        0.0000000000000000     
   8.2812499999999997E-002  0.91718750000000004        0.0000000000000000     
   8.4375000000000006E-002  0.92812499999999998        0.0000000000000000     
   7.3437500000000003E-002  0.92656249999999996        0.0000000000000000     
  0.10937500000000000       0.90625000000000000        0.0000000000000000     
  0.12500000000000000       0.90625000000000000        0.0000000000000000     
  0.12500000000000000       0.92187500000000000        0.0000000000000000     
  0.10312499999999999       0.91562500000000002        0.0000000000000000     
  0.11406250000000000       0.91718750000000004        0.0000000000000000     
  0.11562500000000001       0.92812499999999998        0.0000000000000000     
  0.10468750000000000       0.92656249999999996        0.0000000000000000     
   7.8125000000000000E-002  0.87500000000000000        0.0000000000000000     
   9.3750000000000000E-002  0.87500000000000000        0.0000000000000000     
   9.3750000000000000E-002  0.89062500000000000        0.0000000000000000     
   7.1874999999999994E-002  0.88437500000000002        0.0000000000000000     
   8.2812499999999997E-002  0.88593750000000004        0.0000000000000000     
   8.4375000000000006E-002  0.89687499999999998        0.0000000000000000     
   7.3437500000000003E-002  0.89531249999999996        0.0000000000000000     
  0.10937500000000000       0.87500000000000000        0.0000000000000000     
  0.12500000000000000       0.87500000000000000        0.0000000000000000     
  0.12500000000000000       0.89062500000000000        0.0000000000000000     
  0.10312499999999999       0.88437500000000002        0.0000000000000000     
  0.11406250000000000       0.88593750000000004        0.0000000000000000     
  0.11562500000000001       0.89687499999999998        0.0000000000000000     
  0.10468750000000000       0.89531249999999996        0.0000000000000000     
  0.14062500000000000       0.96875000000000000        0.0000000000000000     
  0.15625000000000000       0.96875000000000000        0.0000000000000000     
  0.15625000000000000       0.98437500000000000        0.0000000000000000     
  0.13437499999999999       0.97812500000000002        0.0000000000000000     
  0.14531250000000001       0.97968750000000004        0.0000000000000000     
  0.14687500000000001       0.99062499999999998        0.0000000000000000     
  0.13593749999999999       0.98906249999999996        0.0000000000000000     
  0.17187500000000000       0.96875000000000000        0.0000000000000000     
  0.18750000000000000       0.96875000000000000        0.0000000000000000     
  0.18750000000000000       0.98437500000000000        0.0000000000000000     
  0.16562499999999999       0.97812500000000002        0.0000000000000000     
  0.17656250000000001       0.97968750000000004        0.0000000000000000     
[...]
 CELL_DATA       14336
 SCALARS Tumor_cells float
 LOOKUP_TABLE default
    0.17223378232198750803E-01
    0.17223376605155771291E-01
    0.17223386648828040157E-01
    0.17223386648824962758E-01
    0.17223376605151521218E-01
    0.17223378232188231440E-01
    0.17223369917875482743E-01
    0.17223364910197002525E-01
    0.17223359527379238088E-01
    0.17223359527378089701E-01
    0.17223364910200610750E-01
    0.17223369917881963670E-01
    0.17223369007149557514E-01
    0.17223369007148204429E-01
    0.17223409697771314975E-01
    0.17223418035907298723E-01
    0.17223439017461782130E-01
    0.17223445141913179546E-01
    0.17223430243105592591E-01
    0.17223438451838549851E-01
    0.17223421765429479391E-01
    0.17223406777377856663E-01
    0.17223390662307640903E-01
    0.17223384466502240919E-01
    0.17223394515138903266E-01
    0.17223392918033885585E-01
    0.17223408819435615663E-01
    0.17223412408581040972E-01
    0.17223438451883808786E-01
    0.17223430243141209933E-01
    0.17223445141949955683E-01
    0.17223439017488927083E-01
    0.17223418035926779668E-01
    0.17223409697779145516E-01
    0.17223392918040651006E-01
    0.17223394515153252898E-01
    0.17223384466516375446E-01
    0.17223390662326146933E-01
    0.17223406777405046719E-01
    0.17223421765466470634E-01
    0.17223412408607391422E-01
    0.17223408819457646651E-01
    0.17223471148562079919E-01
    0.17223473157176972387E-01
    0.17223499604392789042E-01
    0.17223499604386197093E-01
    0.17223473157165301167E-01
    0.17223471148535018233E-01
    0.17223445506399370775E-01
    0.17223437141152649760E-01
    0.17223416040535923649E-01
    0.17223416040540076577E-01
    0.17223437141162551561E-01
    0.17223445506422928319E-01
    0.17223453330925387467E-01
    0.17223453330922205984E-01
    0.17223483317799409553E-01
    0.17223501674576830595E-01
    0.17223533985799118623E-01
    0.17223546306593201516E-01
    0.17223526276724784867E-01
    0.17223541195831190004E-01
    0.17223515863881089932E-01
    0.17223490605065866488E-01
    0.17223463456418442591E-01
    0.17223450982867202080E-01
    0.17223465868013643904E-01
    0.17223457733459290875E-01
    0.17223490627657579710E-01
    0.17223497869180377784E-01
    0.17223600255234762513E-01
    0.17223628835720806302E-01
    0.17223672986483005293E-01
    0.17223691515032165528E-01
    0.17223665875225026983E-01
    0.17223687477460444123E-01
    0.17223653153102511798E-01
    0.17223617479474807174E-01
    0.17223579046711061380E-01
    0.17223560169131922615E-01
    0.17223580166923196239E-01
    0.17223565427220290103E-01
    0.17223615667647372562E-01
    0.17223626585131237426E-01
    0.17223547758515558165E-01
    0.17223559758606392378E-01
    0.17223598129795847367E-01
    0.17223604106161513605E-01
    0.17223571659978804266E-01
    0.17223575810041330536E-01
    0.17223540839712784406E-01
    0.17223522484595708837E-01
    0.17223489964772190769E-01
    0.17223483898312904466E-01
    0.17223510508297151800E-01
    0.17223512635823830935E-01
    0.17223537457199289413E-01
    0.17223540962635629920E-01
    0.17223669332846785335E-01
    0.17223691560191108085E-01
    0.17223743028550359685E-01
    0.17223755048282475555E-01
    0.17223715483807470333E-01
    0.17223725648712925884E-01
    0.17223680466360472702E-01
    0.17223651912535810349E-01
    0.17223607355958334142E-01
    0.17223595168758588231E-01
    0.17223627851403782579E-01
    0.17223623902165575289E-01
    0.17223666125441090130E-01
    0.17223673169596855764E-01
    0.17223541195935117287E-01
    0.17223526276815361719E-01
    0.17223546306687508023E-01
    0.17223533985880272457E-01
    0.17223501674644113579E-01
    0.17223483317849425100E-01
    0.17223457733503234890E-01
    0.17223465868069338935E-01
    0.17223450982919698282E-01
    0.17223463456479286282E-01
    0.17223490605141243692E-01
    0.17223515863972110873E-01
    0.17223497869255789683E-01
    0.17223490627726670277E-01
    0.17223575810127070979E-01
    0.17223571660045410708E-01
    0.17223604106225649801E-01
    0.17223598129843257359E-01
    0.17223559758642557893E-01
    0.17223547758530636381E-01
    0.17223512635837580353E-01
    0.17223510508328470497E-01
    0.17223483898347220766E-01
    0.17223489964818542580E-01
    0.17223522484653835951E-01
    0.17223540839790357770E-01
    0.17223540962687900607E-01
    0.17223537457243146692E-01
    0.17223687477646385663E-01
    0.17223665875393933539E-01
    0.17223691515207351782E-01
    0.17223672986641597182E-01
    0.17223628835859500913E-01
    0.17223600255350593469E-01
    0.17223565427325289445E-01
    0.17223580167043766459E-01
    0.17223560169246622531E-01
    0.17223579046837696194E-01
    0.17223617479621977644E-01
    0.17223653153270953448E-01
    0.17223626585279275258E-01
    0.17223615667787066374E-01
    0.17223725648880694461E-01
    0.17223715483952416888E-01
    0.17223755048427505376E-01
    0.17223743028675207734E-01
    0.17223691560298699105E-01
    0.17223669332927644265E-01
    0.17223623902240397382E-01
    0.17223627851499986874E-01
    0.17223595168855142939E-01
    0.17223607356070487484E-01
    0.17223651912665751545E-01
    0.17223680466515487592E-01
    0.17223673169721769732E-01
    0.17223666125555564532E-01
    0.17223657381066126426E-01
    0.17223663553064254284E-01
    0.17223709095486972737E-01
    0.17223709095476835013E-01
    0.17223663553045508862E-01
    0.17223657381022515478E-01
    0.17223611945076999080E-01
    0.17223599807699267739E-01
    0.17223561100110834632E-01
    0.17223561100118654765E-01
    0.17223599807716205579E-01
    0.17223611945117255073E-01
    0.17223629680397867237E-01
    0.17223629680392621433E-01
    0.17223787777433975654E-01
    0.17223804630828690176E-01
    0.17223865360500873606E-01
    0.17223871476556004700E-01
    0.17223816620553965284E-01
    0.17223815898983980965E-01
    0.17223758222507212778E-01
    0.17223735756550246495E-01
    0.17223683684255895049E-01
    0.17223677709063554137E-01
    0.17223723864472798711E-01
    0.17223730257326593657E-01
    0.17223766215863852563E-01
    0.17223769721788666914E-01
    0.17223815899109651273E-01
    0.17223816620651061227E-01
    0.17223871476647056866E-01
    0.17223865360568187816E-01
    0.17223804630881373728E-01
    0.17223787777456155829E-01
    0.17223730257347420747E-01
    0.17223723864520722182E-01
    0.17223677709117968943E-01
    0.17223683684329492427E-01
    0.17223735756639015765E-01
    0.17223758222624913766E-01
    0.17223769721866555998E-01
    0.17223766215929216944E-01
    0.17223961426122674778E-01
    0.17223973283062198741E-01
    0.17224046378439921562E-01
    0.17224046378426317860E-01
    0.17223973283036521364E-01
    0.17223961426062771307E-01
    0.17223888818799368283E-01
    0.17223871473653711711E-01
    0.17223809843740337661E-01
    0.17223809843751703569E-01
    0.17223871473677626609E-01
    0.17223888818855996596E-01
    0.17223919691112626190E-01
    0.17223919691105340352E-01
    0.17223762475189061810E-01
    0.17223801735556702741E-01
    0.17223859198104148754E-01
    0.17223884320455989938E-01
    0.17223851904952656305E-01
    0.17223880679808737520E-01
    0.17223836283502141214E-01
    0.17223789305023554791E-01
    0.17223738719573705030E-01
    0.17223713167762659537E-01
    0.17223738801530739939E-01
    0.17223717473331144612E-01
    0.17223785805894641088E-01
    0.17223800584448497458E-01
    0.17223975796061000848E-01
    0.17224027271086423535E-01
    0.17224101526679195390E-01
    0.17224134221290966773E-01
    0.17224092458309407661E-01
    0.17224129447884494598E-01
    0.17224072470277160957E-01
    0.17224012093263539602E-01
    0.17223947069047246955E-01
    0.17223913966641492962E-01
    0.17223946551015455880E-01
    0.17223918152381022251E-01
    0.17224007205010629512E-01
    0.17224026393800374174E-01
    0.17223840022093692137E-01
    0.17223873236194779668E-01
    0.17223940493915193550E-01
    0.17223958920316313759E-01
    0.17223909661878741839E-01
    0.17223925661719586416E-01
    0.17223867905082203972E-01
    0.17223828558454331444E-01
    0.17223770433551152670E-01
    0.17223752059237859569E-01
    0.17223792161393771533E-01
    0.17223782291567620722E-01
    0.17223843168415322452E-01
    0.17223853857604911471E-01
    0.17224069445064618677E-01
    0.17224115587619982098E-01
    0.17224204291667204181E-01
    0.17224229967689737991E-01
    0.17224165866003032788E-01
    0.17224187626328279349E-01
    0.17224112585071196108E-01
    0.17224060677997719837E-01
    0.17223985417346446281E-01
    0.17223960365176125414E-01
    0.17224010852698493079E-01
    0.17223995193243701179E-01
    0.17224077814767028982E-01
    0.17224092503615621302E-01
    0.17224253060922147668E-01
    0.17224319705614287573E-01
    0.17224417102352708453E-01
    0.17224458897840258520E-01
    0.17224403144521619607E-01
    0.17224450079581943990E-01
    0.17224376087202137448E-01
    0.17224298455901416310E-01
    0.17224214720064023876E-01
    0.17224172236121482876E-01
    0.17224214441095772599E-01
    0.17224178027643817501E-01
    0.17224292833970339389E-01
    0.17224317403525708781E-01
    0.17224617634382814735E-01
    0.17224703808576317943E-01
    0.17224835325148384751E-01
    0.17224887968137717054E-01
    0.17224809912524591260E-01
    0.17224868873034315797E-01
    0.17224770916819804462E-01
    0.17224669979468757580E-01
    0.17224560343661536599E-01
    0.17224505569540960598E-01
    0.17224562137500527143E-01
    0.17224516405957172871E-01
    0.17224665176382564918E-01
    0.17224696557355981957E-01
    0.17224377950094932332E-01
    0.17224440759400373030E-01
    0.17224562132193480674E-01
    0.17224596412043564203E-01
    0.17224507211951560481E-01
    0.17224534055323301174E-01
    0.17224432766829576857E-01
    0.17224365233070994957E-01
    0.17224265865418843247E-01
    0.17224233143073437030E-01
    0.17224299866682370175E-01
    0.17224278542404193593E-01
    0.17224389244986992170E-01
    0.17224408586444573538E-01
    0.17224804324500648384E-01
    0.17224889690572554174E-01
    0.17225064009971334522E-01
    0.17225107765084055056E-01
    0.17224974367467772024E-01
    0.17225003416076519608E-01
    0.17224860020464711347E-01
    0.17224772545808252067E-01
    0.17224636718988342587E-01
    0.17224594959015720325E-01
    0.17224689231324776667E-01
    0.17224663334004863130E-01
    0.17224812474035535587E-01
    0.17224837114671945337E-01
    0.17223973961666683846E-01
    0.17224002782271975037E-01
    0.17224082938207291305E-01
    0.17224095798233550469E-01
    0.17224027560547083837E-01
    0.17224032044811293796E-01
    0.17223958183287795681E-01
    0.17223924338847149823E-01
    0.17223856179475968003E-01
    0.17223844094140114414E-01
    0.17223900145796250394E-01
    0.17223901137583600557E-01
    0.17223957366201726737E-01
    0.17223964549705053639E-01
    0.17224231271131942855E-01
    0.17224275425726423561E-01
    0.17224384170674313793E-01
    0.17224405544600879941E-01
    0.17224315534130327232E-01
    0.17224324934594997805E-01
    0.17224226757298469193E-01
    0.17224179114111341088E-01
    0.17224088938710854085E-01
    0.17224070109686025198E-01
    0.17224140919189331184E-01
    0.17224136513546997596E-01
    0.17224218336055162337E-01
    0.17224229822982148330E-01
    0.17224172085211233302E-01
    0.17224197252297884092E-01
    0.17224294772676597420E-01
    0.17224302166618861432E-01
    0.17224210968005408684E-01
    0.17224204065501451388E-01
    0.17224110392913188905E-01
    0.17224080406758050105E-01
    0.17223998976300666092E-01
    0.17223992644645386152E-01
    0.17224067484964602354E-01
    0.17224079863917964722E-01
    0.17224133686732170240E-01
    0.17224137593475137564E-01
    0.17224470443973016742E-01
    0.17224514576741890154E-01
    0.17224649728724398395E-01
    0.17224668171895860663E-01
    0.17224547255814199459E-01
    0.17224546119222985952E-01
    0.17224418885051558104E-01
    0.17224371760614764354E-01
    0.17224261459538894176E-01
    0.17224247547537468311E-01
    0.17224342497921266842E-01
    0.17224349442267437860E-01
    0.17224434696972001219E-01
    0.17224443778424265022E-01
    0.17224593117804439663E-01
    0.17224659460206830780E-01
    0.17224815282786343912E-01
    0.17224848141738167279E-01
    0.17224719332688948753E-01
    0.17224732473711906050E-01
    0.17224593967591135535E-01
    0.17224527882140575757E-01
    0.17224403891823121537E-01
    0.17224377024928384794E-01
    0.17224472464397219684E-01
    0.17224462708153670532E-01
    0.17224580816103948061E-01
    0.17224597722708703124E-01
    0.17225125704993907855E-01
    0.17225226120814261105E-01
    0.17225464622183005864E-01
    0.17225512600555051984E-01
    0.17225311355324752355E-01
    0.17225323362889503886E-01
    0.17225114534211830725E-01
    0.17225023074639547044E-01
    0.17224843070645975279E-01
    0.17224806453189425715E-01
    0.17224946286886030217E-01
    0.17224932267545959436E-01
    0.17225105942767656581E-01
    0.17225129697883430346E-01
    0.17224907083557217807E-01
    0.17224982787662327516E-01
    0.17225183812431550667E-01
    0.17225220422050588343E-01
    0.17225045108981804076E-01
    0.17225050484661257738E-01
    0.17224864148391343804E-01
    0.17224791115958714566E-01
    0.17224633003515260610E-01
    0.17224608636017248176E-01
    0.17224738032704502155E-01
    0.17224737674973331081E-01
    0.17224873462726202761E-01
    0.17224890380321850047E-01
    0.17225588024760863509E-01
    0.17225718937735230718E-01
    0.17226042809635157965E-01
    0.17226109200856588172E-01
    0.17225828193386551884E-01
    0.17225837896373583785E-01
    0.17225542172528231222E-01
    0.17225428096034191977E-01
    0.17225184936788026646E-01
    0.17225145392510445019E-01
    0.17225339130611867777E-01
    0.17225329296621013503E-01
    0.17225551765433434054E-01
    0.17225580822078329774E-01
    0.17223880680099255130E-01
    0.17223851905222565400E-01
    0.17223884320734642039E-01
    0.17223859198362879291E-01
    0.17223801735789735085E-01
    0.17223762475393769589E-01
    0.17223717473520454985E-01
    0.17223738801739295334E-01
    0.17223713167962815401E-01
    0.17223738719789230545E-01
    0.17223789305265448102E-01
    0.17223836283770728450E-01
    0.17223800584692059573E-01
    0.17223785806127881598E-01
    0.17223925661991951880E-01
    0.17223909662124718689E-01
    0.17223958920564871877E-01
    0.17223940494140246166E-01
    0.17223873236396743114E-01
    0.17223840022263476462E-01
    0.17223782291726788540E-01
    0.17223792161577967941E-01
    0.17223752059419870225E-01
    0.17223770433752193243E-01
    0.17223828558679005890E-01
    0.17223867905337357509E-01
    0.17223853857825356661E-01
    0.17223843168623357430E-01
    0.17224129448301202933E-01
    0.17224092458702114361E-01
    0.17224134221694793051E-01
    0.17224101527059918620E-01
    0.17224027271435873171E-01
    0.17223975796376904401E-01
    0.17223918152677111792E-01
    0.17223946551334336219E-01
    0.17223913966949541687E-01
    0.17223947069373947427E-01
    0.17224012093622224906E-01
    0.17224072470667727008E-01
    0.17224026394161470743E-01
    0.17224007205359524036E-01
    0.17224187626726891048E-01
    0.17224165866371876632E-01
    0.17224229968063557022E-01
    0.17224204292014332757E-01
    0.17224115587938435695E-01
    0.17224069445345661228E-01
    0.17223995193509689799E-01
    0.17224010852993059534E-01
    0.17223960365466056688E-01
    0.17223985417658689567E-01
    0.17224060678339217501E-01
    0.17224112585448356216E-01
    0.17224092503953670336E-01
    0.17224077815090780424E-01
    0.17224032045041623440E-01
    0.17224027560745286403E-01
    0.17224095798428196852E-01
    0.17224082938374879470E-01
    0.17224002782419079588E-01
    0.17223973961777806763E-01
    0.17223901137688783780E-01
    0.17223900145932211081E-01
    0.17223844094280030270E-01
    0.17223856179638487307E-01
    0.17223924339030704384E-01
    0.17223958183505704705E-01
    0.17223964549878543334E-01
    0.17223957366360721083E-01
    0.17224204065666080116E-01
    0.17224210968132237787E-01
    0.17224302166736114861E-01
    0.17224294772763291961E-01
    0.17224197252366658939E-01
    0.17224172085240303798E-01
    0.17224079863945706420E-01
    0.17224067485028752428E-01
    0.17223992644719549050E-01
    0.17223998976400981681E-01
    0.17224080406876788457E-01
    0.17224110393070091174E-01
    0.17224137593578044830E-01
    0.17224133686818538652E-01
    0.17224324934951708993E-01
    0.17224315534451511284E-01
    0.17224405544920950301E-01
    0.17224384170964123636E-01
    0.17224275425990143162E-01
    0.17224231271354435019E-01
    0.17224136513759105704E-01
    0.17224140919435741715E-01
    0.17224070109933931061E-01
    0.17224088938984655900E-01
    0.17224179114411812541E-01
    0.17224226757638481933E-01
    0.17224229823273339013E-01
    0.17224218336329966822E-01
    0.17224546119514190512E-01
    0.17224547256064190459E-01
    0.17224668172138715011E-01
    0.17224649728933498494E-01
    0.17224514576927401482E-01
    0.17224470444113546691E-01
    0.17224349442402163424E-01
    0.17224342498095953496E-01
    0.17224247547719697543E-01
    0.17224261459750592890E-01
    0.17224371760850558377E-01
    0.17224418885330730622E-01
    0.17224443778645025932E-01
    0.17224434697174308140E-01
    0.17224450080145409930E-01
    0.17224403145057864267E-01
    0.17224458898389864020E-01
    0.17224417102876220242E-01
    0.17224319706101224453E-01
    0.17224253061370570217E-01
    0.17224178028068231477E-01
    0.17224214441546328858E-01
    0.17224172236558882992E-01
    0.17224214720523212119E-01
    0.17224298456397925394E-01
    0.17224376087735457364E-01
    0.17224317404025350775E-01
    0.17224292834455985635E-01
    0.17224534055868767624E-01
    0.17224507212464067185E-01
    0.17224596412563346337E-01
    0.17224562132683599036E-01
    0.17224440759856473465E-01
    0.17224377950508639595E-01
    0.17224278542798621139E-01
    0.17224299867108709694E-01
    0.17224233143492789083E-01
    0.17224265865863619407E-01
    0.17224365233550389259E-01
    0.17224432767349532464E-01
    0.17224408586921289427E-01
    0.17224389245447623703E-01
    0.17224868873763846816E-01
    0.17224809913223920743E-01
    0.17224887968852565373E-01
    0.17224835325834318700E-01
    0.17224703809220694856E-01
    0.17224617634984003972E-01
    0.17224516406530349794E-01
    0.17224562138103017422E-01
    0.17224505570128105514E-01
    0.17224560344273422141E-01
    0.17224669980122987722E-01
    0.17224770917515477148E-01
    0.17224696558014042369E-01
    0.17224665177024953838E-01
    0.17225003416788245425E-01
    0.17224974368143644576E-01
    0.17225107765769482465E-01
    0.17225064010624298316E-01
    0.17224889691186403423E-01
    0.17224804325067410299E-01
    0.17224663334548244442E-01
    0.17224689231903220210E-01
    0.17224594959584921261E-01
    0.17224636719585909722E-01
    0.17224772546445499266E-01
    0.17224860021147116868E-01
    0.17224837115307277402E-01
    0.17224812474653117961E-01
    0.17224732474215759953E-01
    0.17224719333154100975E-01
    0.17224848142204558094E-01
    0.17224815283219480078E-01
    0.17224659460608464367E-01
    0.17224593118159856747E-01
    0.17224462708494387569E-01
    0.17224472464775594099E-01
    0.17224377025305857153E-01
    0.17224403892229626228E-01
    0.17224527882579158955E-01
    0.17224593968074193573E-01
    0.17224597723138793115E-01
    0.17224580816515868559E-01
    0.17225050485099997061E-01
    0.17225045109376113661E-01
    0.17225220422440179480E-01
    0.17225183812784327503E-01
    0.17224982787986068550E-01
    0.17224907083830912069E-01
    0.17224737675236870271E-01
    0.17224738033011392085E-01
    0.17224608636329269418E-01
    0.17224633003859898123E-01
    0.17224791116332904828E-01
    0.17224864148813898157E-01