# vtk DataFile Version 3.0
LAPLACIEN  2D
ASCII
DATASET UNSTRUCTURED_GRID
 POINTS        7297  float
   1.5625000000000000E-002  0.96875000000000000        0.0000000000000000     
   3.1250000000000000E-002  0.96875000000000000        0.0000000000000000     
   3.1250000000000000E-002  0.98437500000000000        0.0000000000000000     
   9.3749999999999997E-003  0.97812500000000002        0.0000000000000000     
   2.0312500000000001E-002  0.97968750000000004        0.0000000000000000     
   2.1874999999999999E-002  0.99062499999999998        0.0000000000000000     
   1.0937499999999999E-002  0.98906249999999996        0.0000000000000000     
   4.6875000000000000E-002  0.96875000000000000        0.0000000000000000     
   6.2500000000000000E-002  0.96875000000000000        0.0000000000000000     
   6.2500000000000000E-002  0.98437500000000000        0.0000000000000000     
   4.0625000000000001E-002  0.97812500000000002        0.0000000000000000     
   5.1562499999999997E-002  0.97968750000000004        0.0000000000000000     
   5.3124999999999999E-002  0.99062499999999998        0.0000000000000000     
   4.2187500000000003E-002  0.98906249999999996        0.0000000000000000     
   1.5625000000000000E-002  0.93750000000000000        0.0000000000000000     
   3.1250000000000000E-002  0.93750000000000000        0.0000000000000000     
   3.1250000000000000E-002  0.95312500000000000        0.0000000000000000     
   9.3749999999999997E-003  0.94687500000000002        0.0000000000000000     
   2.0312500000000001E-002  0.94843750000000004        0.0000000000000000     
   2.1874999999999999E-002  0.95937499999999998        0.0000000000000000     
   1.0937499999999999E-002  0.95781249999999996        0.0000000000000000     
   4.6875000000000000E-002  0.93750000000000000        0.0000000000000000     
   6.2500000000000000E-002  0.93750000000000000        0.0000000000000000     
   6.2500000000000000E-002  0.95312500000000000        0.0000000000000000     
   4.0625000000000001E-002  0.94687500000000002        0.0000000000000000     
   5.1562499999999997E-002  0.94843750000000004        0.0000000000000000     
   5.3124999999999999E-002  0.95937499999999998        0.0000000000000000     
   4.2187500000000003E-002  0.95781249999999996        0.0000000000000000     
   7.8125000000000000E-002  0.96875000000000000        0.0000000000000000     
   9.3750000000000000E-002  0.96875000000000000        0.0000000000000000     
   9.3750000000000000E-002  0.98437500000000000        0.0000000000000000     
   7.1874999999999994E-002  0.97812500000000002        0.0000000000000000     
   8.2812499999999997E-002  0.97968750000000004        0.0000000000000000     
   8.4375000000000006E-002  0.99062499999999998        0.0000000000000000     
   7.3437500000000003E-002  0.98906249999999996        0.0000000000000000     
  0.10937500000000000       0.96875000000000000        0.0000000000000000     
  0.12500000000000000       0.96875000000000000        0.0000000000000000     
  0.12500000000000000       0.98437500000000000        0.0000000000000000     
  0.10312499999999999       0.97812500000000002        0.0000000000000000     
  0.11406250000000000       0.97968750000000004        0.0000000000000000     
  0.11562500000000001       0.99062499999999998        0.0000000000000000     
  0.10468750000000000       0.98906249999999996        0.0000000000000000     
   7.8125000000000000E-002  0.93750000000000000        0.0000000000000000     
   9.3750000000000000E-002  0.93750000000000000        0.0000000000000000     
   9.3750000000000000E-002  0.95312500000000000        0.0000000000000000     
   7.1874999999999994E-002  0.94687500000000002        0.0000000000000000     
   8.2812499999999997E-002  0.94843750000000004        0.0000000000000000     
   8.4375000000000006E-002  0.95937499999999998        0.0000000000000000     
   7.3437500000000003E-002  0.95781249999999996        0.0000000000000000     
  0.10937500000000000       0.93750000000000000        0.0000000000000000     
  0.12500000000000000       0.93750000000000000        0.0000000000000000     
  0.12500000000000000       0.95312500000000000        0.0000000000000000     
  0.10312499999999999       0.94687500000000002        0.0000000000000000     
  0.11406250000000000       0.94843750000000004        0.0000000000000000     
  0.11562500000000001       0.95937499999999998        0.0000000000000000     
  0.10468750000000000       0.95781249999999996        0.0000000000000000     
   1.5625000000000000E-002  0.90625000000000000        0.0000000000000000     
   3.1250000000000000E-002  0.90625000000000000        0.0000000000000000     
   3.1250000000000000E-002  0.92187500000000000        0.0000000000000000     
   9.3749999999999997E-003  0.91562500000000002        0.0000000000000000     
   2.0312500000000001E-002  0.91718750000000004        0.0000000000000000     
   2.1874999999999999E-002  0.92812499999999998        0.0000000000000000     
   1.0937499999999999E-002  0.92656249999999996        0.0000000000000000     
   4.6875000000000000E-002  0.90625000000000000        0.0000000000000000     
   6.2500000000000000E-002  0.90625000000000000        0.0000000000000000     
   6.2500000000000000E-002  0.92187500000000000        0.0000000000000000     
   4.0625000000000001E-002  0.91562500000000002        0.0000000000000000     
   5.1562499999999997E-002  0.91718750000000004        0.0000000000000000     
   5.3124999999999999E-002  0.92812499999999998        0.0000000000000000     
   4.2187500000000003E-002  0.92656249999999996        0.0000000000000000     
   1.5625000000000000E-002  0.87500000000000000        0.0000000000000000     
   3.1250000000000000E-002  0.87500000000000000        0.0000000000000000     
   3.1250000000000000E-002  0.89062500000000000        0.0000000000000000     
   9.3749999999999997E-003  0.88437500000000002        0.0000000000000000     
   2.0312500000000001E-002  0.88593750000000004        0.0000000000000000     
   2.1874999999999999E-002  0.89687499999999998        0.0000000000000000     
   1.0937499999999999E-002  0.89531249999999996        0.0000000000000000     
   4.6875000000000000E-002  0.87500000000000000        0.0000000000000000     
   6.2500000000000000E-002  0.87500000000000000        0.0000000000000000     
   6.2500000000000000E-002  0.89062500000000000        0.0000000000000000     
   4.0625000000000001E-002  0.88437500000000002        0.0000000000000000     
   5.1562499999999997E-002  0.88593750000000004        0.0000000000000000     
   5.3124999999999999E-002  0.89687499999999998        0.0000000000000000     
   4.2187500000000003E-002  0.89531249999999996        0.0000000000000000     
   7.8125000000000000E-002  0.90625000000000000        0.0000000000000000     
   9.3750000000000000E-002  0.90625000000000000        0.0000000000000000     
   9.3750000000000000E-002  0.92187500000000000        0.0000000000000000     
   7.1874999999999994E-002  0.91562500000000002        0.0000000000000000     
   8.2812499999999997E-002  0.91718750000000004        0.0000000000000000     
   8.4375000000000006E-002  0.92812499999999998        0.0000000000000000     
   7.3437500000000003E-002  0.92656249999999996        0.0000000000000000     
  0.10937500000000000       0.90625000000000000        0.0000000000000000     
  0.12500000000000000       0.90625000000000000        0.0000000000000000     
  0.12500000000000000       0.92187500000000000        0.0000000000000000     
  0.10312499999999999       0.91562500000000002        0.0000000000000000     
  0.11406250000000000       0.91718750000000004        0.0000000000000000     
  0.11562500000000001       0.92812499999999998        0.0000000000000000     
  0.10468750000000000       0.92656249999999996        0.0000000000000000     
   7.8125000000000000E-002  0.87500000000000000        0.0000000000000000     
   9.3750000000000000E-002  0.87500000000000000        0.0000000000000000     
   9.3750000000000000E-002  0.89062500000000000        0.0000000000000000     
   7.1874999999999994E-002  0.88437500000000002        0.0000000000000000     
   8.2812499999999997E-002  0.88593750000000004        0.0000000000000000     
   8.4375000000000006E-002  0.89687499999999998        0.0000000000000000     
   7.3437500000000003E-002  0.89531249999999996        0.0000000000000000     
  0.10937500000000000       0.87500000000000000        0.0000000000000000     
  0.12500000000000000       0.87500000000000000        0.0000000000000000     
  0.12500000000000000       0.89062500000000000        0.0000000000000000     
  0.10312499999999999       0.88437500000000002        0.0000000000000000     
  0.11406250000000000       0.88593750000000004        0.0000000000000000     
  0.11562500000000001       0.89687499999999998        0.0000000000000000     
  0.10468750000000000       0.89531249999999996        0.0000000000000000     
  0.14062500000000000       0.96875000000000000        0.0000000000000000     
  0.15625000000000000       0.96875000000000000        0.0000000000000000     
  0.15625000000000000       0.98437500000000000        0.0000000000000000     
  0.13437499999999999       0.97812500000000002        0.0000000000000000     
  0.14531250000000001       0.97968750000000004        0.0000000000000000     
  0.14687500000000001       0.99062499999999998        0.0000000000000000     
  0.13593749999999999       0.98906249999999996        0.0000000000000000     
  0.17187500000000000       0.96875000000000000        0.0000000000000000     
  0.18750000000000000       0.96875000000000000        0.0000000000000000     
  0.18750000000000000       0.98437500000000000        0.0000000000000000     
  0.16562499999999999       0.97812500000000002        0.0000000000000000     
  0.17656250000000001       0.97968750000000004        0.0000000000000000     
  0.17812500000000001       0.99062499999999998        0.0000000000000000     
[...]
 CELL_DATA       14336
 SCALARS Tumor_cells float
 LOOKUP_TABLE default
   -0.16665380762744882243E-14
    0.18049248476773286600E-13
   -0.43310594165632508686E-14
   -0.17911098148127832535E-14
    0.22789937788721499551E-13
    0.81765980627683305777E-14
    0.85597992762368685301E-14
    0.12799699253343823842E-13
    0.60797041665407200981E-14
    0.30720222303399238757E-14
    0.77894586772543353098E-14
    0.79348959998446807306E-14
    0.98243228710074469030E-14
    0.10704096817065620755E-13
    0.69342747087334314624E-14
    0.11506110083876714437E-13
    0.18799782567983194167E-13
   -0.59254806411545137909E-14
    0.13894324097183175496E-13
    0.16358481155532262310E-13
   -0.11824627081544785636E-13
    0.41760307352584276808E-14
    0.87771218079470121679E-14
    0.11422826942738605609E-13
    0.78811282745266470199E-14
    0.20680697348848675512E-13
    0.12956738717997909895E-13
    0.22449872749169229265E-13
    0.80369850343754483418E-14
    0.15786847718561554101E-13
   -0.73625835443198196445E-14
    0.15705280887032339308E-13
    0.90089657458756893577E-14
    0.53560962347763582189E-14
   -0.10998898883630998471E-14
    0.11754434127632182349E-13
    0.37928363314594843675E-14
    0.85257135981445561483E-14
    0.72506623690848627114E-14
    0.48544778033660217069E-14
    0.73350132240342033695E-14
    0.15076549813612252508E-13
    0.72072258271737694622E-14
    0.84537168699230097460E-14
    0.17458650059203479844E-13
    0.70166454788565368106E-14
    0.14721864772287658456E-13
    0.28637416906258766792E-14
    0.43983858293613232500E-14
    0.12168762931441919815E-13
    0.23835071787188755586E-15
   -0.33248794372709919090E-14
    0.16313987926583038181E-13
    0.72683648860294070245E-14
    0.94982693525640059417E-14
    0.61493150968355787437E-14
   -0.50888195823479015057E-15
    0.64906874718569969383E-14
    0.18157622048353232971E-13
   -0.79503325223823152584E-15
    0.97495614618203670812E-14
    0.17296322687739323931E-13
   -0.11118438193431350488E-13
    0.11537205046402367180E-13
    0.16144692367298943829E-13
   -0.23316602377327483452E-14
   -0.83761978936979664333E-14
    0.80656885789128098255E-14
    0.90083165186184531546E-14
    0.50555704205304885973E-14
   -0.79697834819417504207E-14
    0.29791885029124382468E-14
    0.10747997864733074619E-13
    0.87616878336609308824E-14
    0.23802985697373780141E-13
    0.16548436286133365370E-13
    0.36518305199146688418E-14
    0.67572526611464967313E-14
    0.15643235419968330581E-14
    0.12330803433193971677E-13
   -0.13910741610944208339E-14
    0.56574438723310310988E-14
    0.83441652037317366233E-14
    0.10578144671272956738E-13
    0.47619977770156138430E-14
    0.57208294866813201605E-14
    0.10807018694160745549E-14
   -0.44409649181228792340E-15
   -0.76905698798684478508E-15
   -0.16354935931812784028E-13
    0.58260070368269015933E-14
    0.16632948336187085113E-13
   -0.32208594932480236790E-14
    0.27875601184356176872E-15
   -0.22463567927547155609E-14
    0.15255301433036664586E-13
    0.10055521024296930444E-13
    0.19418617404538613063E-14
    0.18838030418880350463E-13
    0.13506338894860311160E-13
    0.16234260320491454414E-13
    0.45028242467153946972E-14
    0.93624262740666229755E-14
    0.14261476195491252734E-13
    0.49877702460228987246E-14
    0.12152477081458548143E-13
    0.17788915039586253947E-13
   -0.24665723477692675484E-14
    0.77737455787767470778E-14
    0.23721498492619184337E-13
    0.15972129512888083231E-13
   -0.24212462711771263412E-14
    0.21169533045004260751E-13
    0.69588579038134419891E-14
   -0.41444922153898093230E-14
    0.16062128020380431434E-13
    0.12825932301064530832E-13
   -0.27248165219985165912E-14
    0.94278436473044408980E-14
    0.61790758927865037946E-14
    0.63704820974333453427E-14
    0.77393491590925646021E-14
    0.19325720705463431587E-13
   -0.11494448243342308170E-13
   -0.38343573636689286967E-15
    0.88524632698231544293E-14
   -0.61720539051301903152E-14
    0.74367220969431429818E-14
   -0.47762271284207624254E-14
   -0.19795344427061345129E-14
   -0.11246083998976781914E-13
    0.39026360045070887202E-14
    0.18351601400124505125E-13
    0.54891579119842547899E-14
    0.79070062205330307126E-14
    0.91472966613312484983E-14
    0.79684078049358009658E-14
    0.15413236283746690380E-13
    0.67915775563067128427E-14
    0.10384085633824839708E-13
    0.21526339860823413279E-13
    0.22365410940046403675E-13
    0.10788715623743460454E-13
    0.17848889203870093778E-13
   -0.47045974390391370794E-14
   -0.97123608735002276579E-14
   -0.61598176620576217939E-14
    0.30400594069924792849E-14
    0.56935994325510106721E-14
   -0.11664088830522664910E-14
    0.60915487866272894647E-14
   -0.28477205667080845774E-14
    0.10866905543756728117E-13
    0.35353077925567804870E-14
    0.33411479716343409597E-14
    0.11408602188124859919E-13
    0.19800140016367720644E-14
    0.56807683901114460328E-14
    0.16513804569445331597E-13
    0.80647557522145988977E-14
    0.13603060610820189426E-13
    0.13684501501481156095E-13
    0.55856824063779917332E-14
    0.21832740021430074511E-13
    0.12959011519372385858E-13
    0.44941085586631034556E-14
    0.24737363606745570356E-14
    0.19388210266274189729E-13
    0.11779651777362404416E-15
    0.91197580465445581608E-14
    0.13551885520274310034E-13
    0.48080207534311404902E-14
    0.16670858141662641128E-13
    0.24121796941392609857E-14
    0.49477759587080407284E-14
    0.37791301331126616368E-14
    0.73003267662415327941E-14
    0.60688696478759111639E-14
    0.10414467288450093712E-13
   -0.69916471869702515402E-14
    0.11497634322364178110E-13
    0.14091577414378707919E-13
    0.19704897874574870198E-13
    0.17834439736045300253E-14
   -0.53296090776133277656E-14
    0.68893266287908112115E-14
    0.72032852359602247826E-14
    0.41057459409152956353E-14
   -0.19012272488312764124E-13
    0.22784358118679938962E-15
    0.18163804045975468219E-13
    0.46654321256607248229E-14
    0.37254934802075286776E-14
    0.86374831645612098372E-14
    0.38621092847094657703E-14
    0.14405332359758472577E-13
    0.11358721473224596586E-13
    0.84385548863640956497E-14
    0.10876006061545444499E-13
   -0.11145360036339798324E-13
   -0.38466246492921015921E-14
    0.61073875963620114124E-14
   -0.66313239180687658816E-15
    0.23435875082639270045E-13
    0.69005290255040492944E-14
    0.93254276325930372555E-14
    0.79811151567640301393E-14
    0.15782073193172911274E-14
    0.20421320639447641340E-13
    0.37846472955133458801E-14
    0.22556218332383317446E-13
    0.14882908970530427385E-13
    0.64006621678993649388E-14
    0.65900369620622218838E-14
    0.55367515696632056996E-14
    0.92184595176965786168E-14
    0.23761941626690577265E-14
   -0.40465152139951405021E-14
    0.14258858125828048631E-13
    0.95076519076218291503E-14
   -0.13704490838981282585E-13
    0.94893923893162182501E-14
   -0.56498525297593702386E-14
    0.50875600815697205583E-14
    0.37904760819820239997E-13
    0.93496197866193806652E-14
    0.12024830902873061426E-13
    0.10686142303714233352E-13
    0.35859000722682923612E-14
    0.12838225694239403928E-14
   -0.14601011334817262972E-15
    0.10037346735812013075E-14
    0.18903055462864895079E-14
   -0.21683254773151650574E-14
    0.17963698927115951150E-13
    0.12053415112251068459E-13
    0.40987157958836193088E-14
    0.18645373736783130550E-13
   -0.11691140430878871920E-14
    0.47764150601373191079E-14
    0.20513675835289031273E-15
    0.93880502078951115708E-14
    0.16351634505202077168E-13
    0.16948076398795679714E-13
    0.10042075034351121062E-13
    0.32789518351989099245E-15
    0.26906893484826513555E-14
    0.88405774424632373474E-14
    0.16871515046473323342E-13
    0.11713436841359648566E-13
    0.13275862253973209892E-13
    0.13855166605135725584E-13
    0.94824349246890677545E-14
    0.12373777193079640586E-13
    0.35410416006186351309E-14
   -0.37056359949277749837E-14
    0.27967830560506936036E-14
   -0.56262377762897924078E-14
    0.96897311815015402918E-14
   -0.39946562179675077677E-14
   -0.26222624094008919885E-15
   -0.13733171426842565297E-14
    0.99470620535864724719E-14
    0.80552885642344209927E-14
    0.14492414274111277164E-13
   -0.62669916315685554448E-14
   -0.13350464399475428403E-14
    0.17078946144678060613E-13
    0.14280834988455697160E-13
    0.60867110977448293474E-14
    0.24784339820247862429E-14
    0.16231064668643963743E-13
   -0.91024732334252797907E-14
    0.70452089312073983022E-14
    0.24541841624960703032E-13
   -0.68147336208821115017E-15
    0.58649582957199074243E-14
    0.84000071984471252446E-14
    0.55028680729406586588E-14
    0.27751703038999592967E-13
    0.11537685727679122222E-14
    0.47672985266049701002E-14
    0.14830039162530707624E-14
   -0.43018911824082211219E-14
    0.12133593304366268798E-13
    0.10607688035057888750E-13
    0.18910566569940865969E-13
    0.85196342918164681692E-14
    0.88181462413957803207E-14
    0.43781058820491731040E-14
    0.30054910229928197743E-13
    0.19851838212589859419E-13
    0.15041050306012843832E-15
    0.10477493440113518617E-13
    0.80555612555595430444E-14
    0.34183229267698861219E-14
    0.16897624596189589033E-14
    0.41655012481454922541E-14
    0.39577054842374501665E-14
    0.86561720481055955278E-14
    0.14845014877691593519E-13
    0.96330423515956751091E-14
    0.19049969265763134507E-13
    0.18202157094784057674E-14
    0.10461253518436697281E-13
    0.17851466553571528679E-14
    0.64469891114361682420E-14
   -0.15868944858992850800E-14
    0.35971027982382080529E-14
    0.36553685567594086431E-14
    0.45384556303225336601E-14
    0.47696727352388445572E-14
    0.88772366410526304287E-14
    0.74184685103305748223E-14
    0.12938937744062154022E-13
    0.12058556166695181577E-13
    0.92423605301824837126E-14
    0.44024825066431578642E-14
    0.87625676981655516265E-14
    0.30372499692273732662E-14
    0.15120905579904946023E-13
    0.42513638097942041617E-14
    0.98269511894817032481E-14
    0.16849854596526996690E-14
    0.82091795817180363874E-14
    0.20398912070180338736E-13
    0.18977450022952024745E-13
    0.50296450192722932703E-14
    0.64971211739833436146E-14
   -0.10293713697517546147E-13
    0.92666454463536427592E-14
    0.86852157884271284207E-14
   -0.20614067900484552779E-14
    0.13724008954030353198E-13
    0.73304622964222871546E-16
    0.42384238945122007999E-14
    0.38668121148537955059E-14
    0.25672238506529692307E-13
    0.15883941600929250943E-13
   -0.89867911656695054859E-14
    0.43938010014397259206E-14
    0.10480696041793043773E-13
    0.13037936008283987455E-13
    0.49432282072069038462E-14
    0.59830235255270301782E-14
    0.60516948745775833662E-14
    0.13858758668984486580E-13
    0.20798567068855162050E-13
   -0.17360223267018793770E-14
    0.23595678590841295225E-14
    0.11391004827481899023E-13
    0.12760358167867858140E-14
    0.49677880371224513360E-14
   -0.27761522580472675646E-15
    0.33685674277976292301E-14
    0.12562121891080531528E-13
    0.22746307780783154119E-14
    0.12774049466409203242E-13
    0.14619451200217949175E-13
   -0.67316561834148969268E-14
    0.19317007971682663056E-13
    0.94239460600387854753E-14
    0.87721605648242118486E-14
    0.49373794616792764824E-14
   -0.11158065229180693758E-14
    0.60487140249361666521E-14
    0.82609048368843706880E-14
    0.16601533893896480509E-13
   -0.25677126751997580981E-14
   -0.11657341015686655327E-13
    0.15609248215266887123E-13
    0.16798961652762923030E-13
    0.12243209549914685965E-13
    0.37550619752412900312E-14
    0.62276814215680874497E-14
    0.43357933048008784826E-14
    0.11531257565815908569E-13
   -0.63979785651788672535E-14
    0.21461407316921323473E-14
    0.70266726356574025286E-14
    0.15623793562738895833E-13
   -0.23893432491004679210E-14
   -0.99402075459963375405E-15
    0.12311084940149061936E-13
    0.93643219598602110106E-14
    0.31683524616022611546E-14
    0.97287954964618979603E-14
    0.22186743075742622539E-13
   -0.35588535038775235028E-14
   -0.13317148855929003692E-13
   -0.64117723672076556664E-14
    0.93528141975379042249E-14
    0.14717017930160847008E-13
    0.25138989940720589231E-13
    0.37808608361266672332E-14
    0.15919264492085836423E-15
    0.43335894293363837624E-14
    0.10946248276016295269E-13
    0.17719619591191157742E-13
    0.10484546143590462789E-13
   -0.11920134019411381927E-14
   -0.84890425261441635850E-15
    0.10038214645943155219E-13
    0.73854319517892984753E-14
   -0.52956477221004884862E-14
    0.10523901645143029338E-13
    0.90030783813776152588E-14
    0.36074920982233008350E-14
    0.29434121001978343386E-14
   -0.16222532559492520339E-13
    0.59244731090036631925E-14
    0.14824306247840578041E-13
   -0.76725385718282065372E-14
    0.11848420077994100407E-13
    0.90893639946133752436E-14
    0.40707964233701325655E-14
    0.94717816289448977090E-14
    0.21517411655943861042E-14
    0.57498646515812171208E-14
    0.47910595233954406304E-14
   -0.40552067620072750826E-16
    0.10998474023708942240E-13
    0.29833409955083146493E-14
    0.58559520573100352469E-14
    0.73206339249132940108E-14
    0.95872888815348794034E-14
    0.72456906872996268459E-14
    0.11381184725942688799E-13
   -0.16014331889974606266E-14
    0.61532638724931682824E-14
    0.65452036994452320513E-14
    0.87316427386925106995E-14
   -0.23833461171463397265E-14
    0.19540643242710452461E-14
    0.67254880424129968379E-14
    0.13120241479208057125E-13
    0.12686857452203040899E-13
   -0.10731749615016938586E-13
    0.10180393353713680187E-13
    0.42060342277052038831E-14
   -0.11831881743972584173E-13
    0.24400456638587499099E-13
    0.57452725608051365905E-14
   -0.19883812982159495892E-14
    0.75767105560785297498E-14
    0.10036761546015714361E-13
   -0.33078175585475325601E-14
    0.21651912599087206637E-14
    0.46472800312180202178E-14
   -0.39193315495278804003E-14
    0.38526644539348497902E-14
    0.10069730437692112834E-13
    0.12846120085882615999E-13
    0.19949947235433053463E-13
    0.45166499766853213962E-14
    0.20435672349769864607E-13
    0.28766619802365554499E-14
    0.33515553724160210418E-14
    0.50006047751604527029E-14
   -0.56775477896590067216E-14
   -0.12815220309141141841E-13
   -0.39813459001437949921E-14
    0.57908044137849626502E-14
   -0.55944544361364732619E-14
    0.13971826235562239674E-13
    0.15446423046233465367E-13
    0.57788079183276741457E-14
    0.68120647362865102910E-14
    0.14139956849319303056E-13
    0.10055010192266306695E-13
   -0.39359423476124219353E-14
    0.73052905594153451336E-14
    0.46084347263983827251E-14
    0.18055445676046245266E-13
    0.10652720922221774580E-13
    0.77416919023518533345E-14
    0.71385612130903487497E-14
    0.16531755695518613167E-13
    0.13959379549145858220E-14
    0.77675973468434655073E-15
    0.79837208467359161660E-14
   -0.80921674723103617519E-14
    0.35859797706185970986E-14
    0.68242441823510578030E-14
    0.90997870274204020043E-14
    0.71888247513939841385E-14
   -0.41240083836522974350E-14
    0.53800409116865984071E-14
    0.19811480196813956253E-13
    0.76997429565482146842E-14
    0.19167667810894902466E-14
    0.15870232984633631873E-13
    0.53379917143773428939E-14
    0.10463848643385642768E-13
    0.19704555692377058038E-13
    0.47665185543824294511E-14
    0.98538454771947386325E-14
    0.15153440502125565470E-14
   -0.22368658481274394113E-14
    0.15401830541307269869E-13
   -0.48862661847381363548E-14
    0.33459057510226792248E-14
    0.25216522681326731609E-13
   -0.12270908792727918052E-15
    0.30611821608195694678E-14
    0.89046539709848724512E-14
   -0.66715116340910838465E-14
    0.40973956798270949710E-14
    0.20974110002670621879E-13
    0.74464827676221110886E-14
    0.19568009362745265087E-13
    0.13914984731288789958E-13
    0.10240981446281356183E-13
    0.27373974966196232682E-14
    0.63152155483359564024E-14
    0.10849476507159481067E-13
    0.77576328846995442511E-14
   -0.12243816304396638264E-14
   -0.46681308455042290762E-14
   -0.31159017084949169889E-14
    0.18765108574110228403E-14
    0.13218624502761143521E-13
    0.14946892067678047302E-14
    0.24451748516289095805E-14
    0.37442788706089883713E-14
    0.19562804081951089624E-14
    0.92796035893841028645E-14
    0.46832954379939427198E-14
    0.13651364370386380348E-13
    0.17126765559870766082E-13
    0.95455294313037958022E-14
    0.66335593138491250886E-14
   -0.43871779161401682845E-14
    0.14858636342350510717E-13
    0.20849699404453471314E-14
    0.86108660949289584881E-14
   -0.29682818679727058117E-14
    0.27442544706286759495E-14
    0.11223298828588220781E-13
    0.12814981924366918097E-13
   -0.60320627530011936476E-14
    0.96239649451537752126E-14
    0.27234621522185307710E-14
   -0.22489849517250834027E-14
    0.11310466560392724136E-13
    0.14965040543384123159E-13
    0.21545120917719338395E-14
    0.63386573620620548154E-14
   -0.18598857927623576865E-14
    0.23634667411555841177E-14
    0.67201454706113728982E-14
    0.16194809889919916207E-14
   -0.86974780450886559682E-14
   -0.37903787778596232433E-14
    0.10359881172680393572E-13
    0.15733235793320122289E-13
    0.97292459484928733676E-14
    0.43273947483441622530E-14
    0.10912737875978624051E-13
    0.43457370594541437774E-14
    0.75917865747895745829E-14
    0.61992236827252327172E-14
    0.13945967128792639130E-13
    0.29576743198972747381E-14
    0.21093217678693844781E-13
   -0.12423470365125850762E-14
    0.98499082967463884170E-14
    0.21637089146620972762E-13
    0.44829653420837922556E-14
    0.46483306512669210881E-14
    0.12245133746829274923E-13
    0.21278841877318442995E-13
    0.17828565725441550783E-13
    0.88504173898767929713E-14
    0.21831767938218085228E-14
    0.11029953309531104515E-13
    0.17573213926956724434E-13
    0.13913690457548337653E-13
    0.11523403409942626570E-13
    0.11634693400213531149E-13
    0.53913985800681554751E-14
    0.63407787771995610262E-14
    0.37272068394948125404E-14
    0.99758598101923885699E-14
    0.80209271359249738061E-14
    0.51248639247128462478E-14
    0.27613671374050983220E-14
    0.16119750310366076452E-13
   -0.11042718708400979669E-13
    0.10864779227696336782E-13
    0.98162493425489809949E-14
   -0.49380179341391067241E-14
    0.18423121272327915956E-13
    0.14081810254813543948E-14
   -0.68467058649830579642E-14
    0.19309403711185819143E-13
    0.18334665921097591221E-13
    0.12586762867122071842E-13
    0.87208138072708362101E-14
    0.14957055782997845077E-13
    0.19248199517234013019E-13
    0.10520354268064608530E-13
    0.39455380607541882675E-14
    0.12443064799300506597E-13
    0.10188599774113982174E-13
    0.31209380755734921523E-14
    0.16941431213589681016E-13
    0.10008512561921653465E-13
    0.21090003997138663454E-13
    0.13994094483526886818E-13
   -0.28863166798409279115E-14
   -0.83599060893659022736E-14
    0.64288714362809527482E-14
    0.71998936918055594908E-14
    0.93056854714977068400E-14
    0.65335275527456161161E-14
    0.25206696339999932774E-13
    0.66499171180997700756E-14
    0.62224182902541253858E-14
   -0.82533120436864456435E-15
    0.37939315194938520756E-14
    0.20651577718907862133E-13
    0.59519173115003514961E-14
    0.93135907779182234844E-14
   -0.21452164869022434298E-14
    0.74719691837555292801E-14
    0.23125833389552294525E-14
    0.12151066651812405824E-13
    0.50908460960116646041E-14
    0.22050090801817066922E-14
    0.86694664067482829028E-14
    0.60800822761618047284E-14
    0.18502126797173444066E-13
   -0.31018302257719951728E-14
    0.69822185609443354791E-14
    0.14715671383404412563E-14
    0.16474358469995131960E-13
    0.15325230984733395546E-13
    0.94350790089976935006E-14
    0.45082084630330063195E-14
    0.62972648182890261871E-14
    0.86731691282860086216E-14