# vtk DataFile Version 3.0
LAPLACIEN  2D
ASCII
DATASET UNSTRUCTURED_GRID
 POINTS        7297  float
   1.5625000000000000E-002  0.96875000000000000        0.0000000000000000     
   3.1250000000000000E-002  0.96875000000000000        0.0000000000000000     
   3.1250000000000000E-002  0.98437500000000000        0.0000000000000000     
   9.3749999999999997E-003  0.97812500000000002        0.0000000000000000     
   2.0312500000000001E-002  0.97968750000000004        0.0000000000000000     
   2.1874999999999999E-002  0.99062499999999998        0.0000000000000000     
   1.0937499999999999E-002  0.98906249999999996        0.0000000000000000     
   4.6875000000000000E-002  0.96875000000000000        0.0000000000000000     
   6.2500000000000000E-002  0.96875000000000000        0.0000000000000000     
   6.2500000000000000E-002  0.98437500000000000        0.0000000000000000     
   4.0625000000000001E-002  0.97812500000000002        0.0000000000000000     
   5.1562499999999997E-002  0.97968750000000004        0.0000000000000000     
   5.3124999999999999E-002  0.99062499999999998        0.0000000000000000     
   4.2187500000000003E-002  0.98906249999999996        0.0000000000000000     
   1.5625000000000000E-002  0.93750000000000000        0.0000000000000000     
   3.1250000000000000E-002  0.93750000000000000        0.0000000000000000     
   3.1250000000000000E-002  0.95312500000000000        0.0000000000000000     
   9.3749999999999997E-003  0.94687500000000002        0.0000000000000000     
   2.0312500000000001E-002  0.94843750000000004        0.0000000000000000     
   2.1874999999999999E-002  0.95937499999999998        0.0000000000000000     
   1.0937499999999999E-002  0.95781249999999996        0.0000000000000000     
   4.6875000000000000E-002  0.93750000000000000        0.0000000000000000     
   6.2500000000000000E-002  0.93750000000000000        0.0000000000000000     
   6.2500000000000000E-002  0.95312500000000000        0.0000000000000000     
   4.0625000000000001E-002  0.94687500000000002        0.0000000000000000     
   5.1562499999999997E-002  0.94843750000000004        0.0000000000000000     
   5.3124999999999999E-002  0.95937499999999998        0.0000000000000000     
   4.2187500000000003E-002  0.95781249999999996        0.0000000000000000     
   7.8125000000000000E-002  0.96875000000000000        0.0000000000000000     
   9.3750000000000000E-002  0.96875000000000000        0.0000000000000000     
   9.3750000000000000E-002  0.98437500000000000        0.0000000000000000     
   7.1874999999999994E-002  0.97812500000000002        0.0000000000000000     
   8.2812499999999997E-002  0.97968750000000004        0.0000000000000000     
   8.4375000000000006E-002  0.99062499999999998        0.0000000000000000     
   7.3437500000000003E-002  0.98906249999999996        0.0000000000000000     
  0.10937500000000000       0.96875000000000000        0.0000000000000000     
  0.12500000000000000       0.96875000000000000        0.0000000000000000     
  0.12500000000000000       0.98437500000000000        0.0000000000000000     
  0.10312499999999999       0.97812500000000002        0.0000000000000000     
  0.11406250000000000       0.97968750000000004        0.0000000000000000     
  0.11562500000000001       0.99062499999999998        0.0000000000000000     
  0.10468750000000000       0.98906249999999996        0.0000000000000000     
   7.8125000000000000E-002  0.93750000000000000        0.0000000000000000     
   9.3750000000000000E-002  0.93750000000000000        0.0000000000000000     
   9.3750000000000000E-002  0.95312500000000000        0.0000000000000000     
   7.1874999999999994E-002  0.94687500000000002        0.0000000000000000     
   8.2812499999999997E-002  0.94843750000000004        0.0000000000000000     
   8.4375000000000006E-002  0.95937499999999998        0.0000000000000000     
   7.3437500000000003E-002  0.95781249999999996        0.0000000000000000     
  0.10937500000000000       0.93750000000000000        0.0000000000000000     
  0.12500000000000000       0.93750000000000000        0.0000000000000000     
  0.12500000000000000       0.95312500000000000        0.0000000000000000     
  0.10312499999999999       0.94687500000000002        0.0000000000000000     
  0.11406250000000000       0.94843750000000004        0.0000000000000000     
  0.11562500000000001       0.95937499999999998        0.0000000000000000     
  0.10468750000000000       0.95781249999999996        0.0000000000000000     
   1.5625000000000000E-002  0.90625000000000000        0.0000000000000000     
   3.1250000000000000E-002  0.90625000000000000        0.0000000000000000     
   3.1250000000000000E-002  0.92187500000000000        0.0000000000000000     
   9.3749999999999997E-003  0.91562500000000002        0.0000000000000000     
   2.0312500000000001E-002  0.91718750000000004        0.0000000000000000     
   2.1874999999999999E-002  0.92812499999999998        0.0000000000000000     
   1.0937499999999999E-002  0.92656249999999996        0.0000000000000000     
   4.6875000000000000E-002  0.90625000000000000        0.0000000000000000     
   6.2500000000000000E-002  0.90625000000000000        0.0000000000000000     
   6.2500000000000000E-002  0.92187500000000000        0.0000000000000000     
   4.0625000000000001E-002  0.91562500000000002        0.0000000000000000     
   5.1562499999999997E-002  0.91718750000000004        0.0000000000000000     
   5.3124999999999999E-002  0.92812499999999998        0.0000000000000000     
   4.2187500000000003E-002  0.92656249999999996        0.0000000000000000     
   1.5625000000000000E-002  0.87500000000000000        0.0000000000000000     
   3.1250000000000000E-002  0.87500000000000000        0.0000000000000000     
   3.1250000000000000E-002  0.89062500000000000        0.0000000000000000     
   9.3749999999999997E-003  0.88437500000000002        0.0000000000000000     
   2.0312500000000001E-002  0.88593750000000004        0.0000000000000000     
   2.1874999999999999E-002  0.89687499999999998        0.0000000000000000     
   1.0937499999999999E-002  0.89531249999999996        0.0000000000000000     
   4.6875000000000000E-002  0.87500000000000000        0.0000000000000000     
   6.2500000000000000E-002  0.87500000000000000        0.0000000000000000     
   6.2500000000000000E-002  0.89062500000000000        0.0000000000000000     
   4.0625000000000001E-002  0.88437500000000002        0.0000000000000000     
   5.1562499999999997E-002  0.88593750000000004        0.0000000000000000     
   5.3124999999999999E-002  0.89687499999999998        0.0000000000000000     
   4.2187500000000003E-002  0.89531249999999996        0.0000000000000000     
   7.8125000000000000E-002  0.90625000000000000        0.0000000000000000     
   9.3750000000000000E-002  0.90625000000000000        0.0000000000000000     
   9.3750000000000000E-002  0.92187500000000000        0.0000000000000000     
   7.1874999999999994E-002  0.91562500000000002        0.0000000000000000     
   8.2812499999999997E-002  0.91718750000000004        0.0000000000000000     
   8.4375000000000006E-002  0.92812499999999998        0.0000000000000000     
   7.3437500000000003E-002  0.92656249999999996        0.0000000000000000     
  0.10937500000000000       0.90625000000000000        0.0000000000000000     
  0.12500000000000000       0.90625000000000000        0.0000000000000000     
  0.12500000000000000       0.92187500000000000        0.0000000000000000     
  0.10312499999999999       0.91562500000000002        0.0000000000000000     
  0.11406250000000000       0.91718750000000004        0.0000000000000000     
  0.11562500000000001       0.92812499999999998        0.0000000000000000     
  0.10468750000000000       0.92656249999999996        0.0000000000000000     
   7.8125000000000000E-002  0.87500000000000000        0.0000000000000000     
   9.3750000000000000E-002  0.87500000000000000        0.0000000000000000     
   9.3750000000000000E-002  0.89062500000000000        0.0000000000000000     
   7.1874999999999994E-002  0.88437500000000002        0.0000000000000000     
   8.2812499999999997E-002  0.88593750000000004        0.0000000000000000     
   8.4375000000000006E-002  0.89687499999999998        0.0000000000000000     
   7.3437500000000003E-002  0.89531249999999996        0.0000000000000000     
  0.10937500000000000       0.87500000000000000        0.0000000000000000     
  0.12500000000000000       0.87500000000000000        0.0000000000000000     
  0.12500000000000000       0.89062500000000000        0.0000000000000000     
  0.10312499999999999       0.88437500000000002        0.0000000000000000     
  0.11406250000000000       0.88593750000000004        0.0000000000000000     
  0.11562500000000001       0.89687499999999998        0.0000000000000000     
  0.10468750000000000       0.89531249999999996        0.0000000000000000     
  0.14062500000000000       0.96875000000000000        0.0000000000000000     
  0.15625000000000000       0.96875000000000000        0.0000000000000000     
  0.15625000000000000       0.98437500000000000        0.0000000000000000     
  0.13437499999999999       0.97812500000000002        0.0000000000000000     
  0.14531250000000001       0.97968750000000004        0.0000000000000000     
  0.14687500000000001       0.99062499999999998        0.0000000000000000     
  0.13593749999999999       0.98906249999999996        0.0000000000000000     
  0.17187500000000000       0.96875000000000000        0.0000000000000000     
  0.18750000000000000       0.96875000000000000        0.0000000000000000     
  0.18750000000000000       0.98437500000000000        0.0000000000000000     
  0.16562499999999999       0.97812500000000002        0.0000000000000000     
  0.17656250000000001       0.97968750000000004        0.0000000000000000     
  0.17812500000000001       0.99062499999999998        0.0000000000000000     
[...]
 CELL_DATA       14336
 SCALARS Tumor_cells float
 LOOKUP_TABLE default
    0.16564806271618621319E-01
    0.16564803150214253702E-01
    0.16564822210690065968E-01
    0.16564822210686877546E-01
    0.16564803150209240351E-01
    0.16564806271606634380E-01
    0.16564790456040798250E-01
    0.16564780916116562254E-01
    0.16564770664894767210E-01
    0.16564770664893934543E-01
    0.16564780916120392523E-01
    0.16564790456048191641E-01
    0.16564788706861163781E-01
    0.16564788706859762124E-01
    0.16564865816803935050E-01
    0.16564881589361219599E-01
    0.16564921073097028242E-01
    0.16564932641822956855E-01
    0.16564904713937071007E-01
    0.16564920247183159696E-01
    0.16564888821630464888E-01
    0.16564860447825652257E-01
    0.16564829901246906629E-01
    0.16564818115189502284E-01
    0.16564837154835934663E-01
    0.16564834088641875592E-01
    0.16564864247960074672E-01
    0.16564871062603972462E-01
    0.16564920247234819761E-01
    0.16564904713977781497E-01
    0.16564932641865343088E-01
    0.16564921073127691215E-01
    0.16564881589383160382E-01
    0.16564865816812695404E-01
    0.16564834088649265514E-01
    0.16564837154852338208E-01
    0.16564818115205697663E-01
    0.16564829901268184748E-01
    0.16564860447856752379E-01
    0.16564888821672778263E-01
    0.16564871062634444615E-01
    0.16564864247985446738E-01
    0.16564980956460490652E-01
    0.16564984555836791136E-01
    0.16565033485142904857E-01
    0.16565033485135174929E-01
    0.16564984555823607237E-01
    0.16564980956429994213E-01
    0.16564933156714353735E-01
    0.16564917403333857815E-01
    0.16564877764160192142E-01
    0.16564877764164914059E-01
    0.16564917403344970454E-01
    0.16564933156741016435E-01
    0.16564947652919201349E-01
    0.16564947652915482101E-01
    0.16565003841741181984E-01
    0.16565038050743104842E-01
    0.16565097714928641442E-01
    0.16565120514058034873E-01
    0.16565083754220659429E-01
    0.16565111378952682153E-01
    0.16565064635304705548E-01
    0.16565017730008513297E-01
    0.16564967151953120111E-01
    0.16564943766881796289E-01
    0.16564971553716306696E-01
    0.16564956223267382485E-01
    0.16565017692456798087E-01
    0.16565031185064697100E-01
    0.16565218844552476174E-01
    0.16565270835897271534E-01
    0.16565350189261134062E-01
    0.16565383616635311753E-01
    0.16565338017476199939E-01
    0.16565377043751210173E-01
    0.16565315476304364600E-01
    0.16565250819957050288E-01
    0.16565180890838551026E-01
    0.16565146266896865063E-01
    0.16565182702408989823E-01
    0.16565155552075772061E-01
    0.16565247315115660953E-01
    0.16565267188064346920E-01
    0.16565121809030507877E-01
    0.16565143818169082018E-01
    0.16565213488493678307E-01
    0.16565224510031867355E-01
    0.16565165928172441434E-01
    0.16565173898336414682E-01
    0.16565110139651798016E-01
    0.16565076117049541693E-01
    0.16565016079472857230E-01
    0.16565004682466924479E-01
    0.16565053706739163442E-01
    0.16565057480212672797E-01
    0.16565103288292200301E-01
    0.16565109826898245793E-01
    0.16565341195909511623E-01
    0.16565380993344421684E-01
    0.16565471549530710882E-01
    0.16565493046843467184E-01
    0.16565424193902503897E-01
    0.16565442936234808097E-01
    0.16565363201808774168E-01
    0.16565311623179874989E-01
    0.16565231515080894309E-01
    0.16565209148677813994E-01
    0.16565267731033034293E-01
    0.16565260184483177053E-01
    0.16565336342017570465E-01
    0.16565349132686868483E-01
    0.16565111379071587039E-01
    0.16565083754323983029E-01
    0.16565120514166128962E-01
    0.16565097715021334657E-01
    0.16565038050819963500E-01
    0.16565003841797716622E-01
    0.16564956223317731099E-01
    0.16564971553780030028E-01
    0.16564943766941744863E-01
    0.16564967152022817831E-01
    0.16565017730094513948E-01
    0.16565064635408740384E-01
    0.16565031185150871224E-01
    0.16565017692535741883E-01
    0.16565173898434339822E-01
    0.16565165928248377220E-01
    0.16565224510105301670E-01
    0.16565213488547420040E-01
    0.16565143818209719651E-01
    0.16565121809047411022E-01
    0.16565057480228448372E-01
    0.16565053706774933440E-01
    0.16565004682505938410E-01
    0.16565016079525460985E-01
    0.16565076117115429960E-01
    0.16565110139740307077E-01
    0.16565109826957611500E-01
    0.16565103288341920945E-01
    0.16565377043964261972E-01
    0.16565338017669586912E-01
    0.16565383616835790276E-01
    0.16565350189442416134E-01
    0.16565270836055977915E-01
    0.16565218844685147825E-01
    0.16565155552196050848E-01
    0.16565182702547250754E-01
    0.16565146267027996280E-01
    0.16565180890983358802E-01
    0.16565250820125502346E-01
    0.16565315476497369934E-01
    0.16565267188233825935E-01
    0.16565247315275779399E-01
    0.16565442936427508119E-01
    0.16565424194068718161E-01
    0.16565493047010479422E-01
    0.16565471549674727625E-01
    0.16565380993468152571E-01
    0.16565341196002544844E-01
    0.16565260184568744023E-01
    0.16565267731142960250E-01
    0.16565209148788239552E-01
    0.16565231515209364460E-01
    0.16565311623328613649E-01
    0.16565363201986357811E-01
    0.16565349132830385626E-01
    0.16565336342149246385E-01
    0.16565319441174775755E-01
    0.16565330193673566406E-01
    0.16565410628406326138E-01
    0.16565410628394634102E-01
    0.16565330193652229307E-01
    0.16565319441124767147E-01
    0.16565238220959992849E-01
    0.16565216160120757594E-01
    0.16565146097078639609E-01
    0.16565146097087299348E-01
    0.16565216160139780571E-01
    0.16565238221005671587E-01
    0.16565269802556476658E-01
    0.16565269802550783296E-01
    0.16565547186600335788E-01
    0.16565576162294256418E-01
    0.16565679476078083027E-01
    0.16565690024494872379E-01
    0.16565597227038771078E-01
    0.16565596713154218111E-01
    0.16565497584585361229E-01
    0.16565457840788767180E-01
    0.16565366443855242262E-01
    0.16565355611705391559E-01
    0.16565436538803410965E-01
    0.16565447593749931671E-01
    0.16565510309261597538E-01
    0.16565516531363237013E-01
    0.16565596713298613024E-01
    0.16565597227150140325E-01
    0.16565690024599576818E-01
    0.16565679476155528022E-01
    0.16565576162354902351E-01
    0.16565547186625770304E-01
    0.16565447593773745955E-01
    0.16565436538858217819E-01
    0.16565355611767900584E-01
    0.16565366443939816971E-01
    0.16565457840890845248E-01
    0.16565497584720877827E-01
    0.16565516531452724458E-01
    0.16565510309336541062E-01
    0.16565838836301152726E-01
    0.16565858003924280317E-01
    0.16565976595477774347E-01
    0.16565976595461884280E-01
    0.16565858003895012063E-01
    0.16565838836232211345E-01
    0.16565718618048334843E-01
    0.16565689282513756941E-01
    0.16565585010294987811E-01
    0.16565585010308088443E-01
    0.16565689282541262717E-01
    0.16565718618113397381E-01
    0.16565769792093103935E-01
    0.16565769792084926448E-01
    0.16565508718455326104E-01
    0.16565577770005151387E-01
    0.16565676923351094901E-01
    0.16565720556173491734E-01
    0.16565665584062468779E-01
    0.16565715625612521811E-01
    0.16565639264434734584E-01
    0.16565557220992517540E-01
    0.16565468357875801769E-01
    0.16565422914609898020E-01
    0.16565467992464860680E-01
    0.16565429760791158809E-01
    0.16565550648787352034E-01
    0.16565576649115759666E-01
    0.16565873843420595574E-01
    0.16565960007083838090E-01
    0.16566080731524403941E-01
    0.16566134567360092655E-01
    0.16566068447543415287E-01
    0.16566129490174406891E-01
    0.16566037188219334686E-01
    0.16565937216810971283E-01
    0.16565828754898450498E-01
    0.16565772499960988717E-01
    0.16565826849289456979E-01
    0.16565777979373409040E-01
    0.16565928178263363002E-01
    0.16565960309485823487E-01
    0.16565639113105778274E-01
    0.16565696271516765214E-01
    0.16565808995903156392E-01
    0.16565840527053284775E-01
    0.16565759517970578968E-01
    0.16565788006813013389E-01
    0.16565691097907397911E-01
    0.16565622607415012718E-01
    0.16565522208701565637E-01
    0.16565489486908488437E-01
    0.16565558408377551586E-01
    0.16565540410149105777E-01
    0.16565646238775034310E-01
    0.16565664954301877881E-01
    0.16566019596464268138E-01
    0.16566094561909137234E-01
    0.16566233316423761845E-01
    0.16566274751223936113E-01
    0.16566177336689007910E-01
    0.16566214488423252477E-01
    0.16566097145794649037E-01
    0.16566011511905280595E-01
    0.16565888926211008031E-01
    0.16565846225773117606E-01
    0.16565927699120224642E-01
    0.16565900277645970173E-01
    0.16566036412443498754E-01
    0.16566060870767850693E-01
    0.16566320342949865385E-01
    0.16566424829830294491E-01
    0.16566571444495074850E-01
    0.16566635898259060578E-01
    0.16566554947480074261E-01
    0.16566627520581429095E-01
    0.16566516427861426725E-01
    0.16566396487082697686E-01
    0.16566266071366492207E-01
    0.16566198231653787160E-01
    0.16566263684707274728E-01
    0.16566204322997424986E-01
    0.16566385970044717607E-01
    0.16566424568141186607E-01
    0.16566863695825068820E-01
    0.16566988926818265737E-01
    0.16567170067474896317E-01
    0.16567245694233578152E-01
    0.16567142751923918942E-01
    0.16567227647483778741E-01
    0.16567092585183254561E-01
    0.16566948648878705719E-01
    0.16566791270486980886E-01
    0.16566710134169760488E-01
    0.16566790445491506173E-01
    0.16566720499159585250E-01
    0.16566938532917574456E-01
    0.16566984327618931860E-01
    0.16566495988754988133E-01
    0.16566590728605310595E-01
    0.16566764519362345981E-01
    0.16566816107593692470E-01
    0.16566693210273611414E-01
    0.16566737242355033394E-01
    0.16566592263781175498E-01
    0.16566488200619563370E-01
    0.16566338478559435032E-01
    0.16566285830887133440E-01
    0.16566384743266989593E-01
    0.16566349069183985976E-01
    0.16566518904244688370E-01
    0.16566549137494765431E-01
    0.16567098605186767607E-01
    0.16567217015368229660E-01
    0.16567443422385846191E-01
    0.16567504880018988495E-01
    0.16567338966598111477E-01
    0.16567385906483739211E-01
    0.16567199545008563788E-01
    0.16567074694071280694E-01
    0.16566887860913762781E-01
    0.16566825034195001298E-01
    0.16566951455711506624E-01
    0.16566909735744712873E-01
    0.16567120277991165961E-01
    0.16567156263316340503E-01
    0.16565859837116038433E-01
    0.16565907117748787658E-01
    0.16566036079419060867E-01
    0.16566056991240449975E-01
    0.16565948514432639327E-01
    0.16565957155365681336E-01
    0.16565837401114669181E-01
    0.16565780177105384613E-01
    0.16565666082552651939E-01
    0.16565644963538184165E-01
    0.16565738591028968812E-01
    0.16565739684406218662E-01
    0.16565833624149720049E-01
    0.16565845805526384360E-01
    0.16566266930530749307E-01
    0.16566334335503630354E-01
    0.16566496177949072144E-01
    0.16566528216837836385E-01
    0.16566396696705756181E-01
    0.16566413205539188419E-01
    0.16566266279458664173E-01
    0.16566190713372612453E-01
    0.16566049755070481192E-01
    0.16566018586008524754E-01
    0.16566128946086364909E-01
    0.16566120979973855687E-01
    0.16566248930132858319E-01
    0.16566267151018918696E-01
    0.16566174794301925799E-01
    0.16566213555584487910E-01
    0.16566362582120977565E-01
    0.16566373572974173872E-01
    0.16566234784063309932E-01
    0.16566224538935775401E-01
    0.16566079024394362446E-01
    0.16566030993898257784E-01
    0.16565900471344131850E-01
    0.16565889968792362613E-01
    0.16566010107635385784E-01
    0.16566029893548672031E-01
    0.16566114861739818231E-01
    0.16566121042880011666E-01
    0.16566621084019340221E-01
    0.16566683462252245612E-01
    0.16566874046546501559E-01
    0.16566898607191297282E-01
    0.16566729158561149110E-01
    0.16566727611071252468E-01
    0.16566546056727624037E-01
    0.16566476469067642485E-01
    0.16566312509585807283E-01
    0.16566291147410400209E-01
    0.16566433142574405607E-01
    0.16566443823792523921E-01
    0.16566568412921173215E-01
    0.16566581474243252670E-01
    0.16566794377113475134E-01
    0.16566886872984961515E-01
    0.16567097591133072426E-01
    0.16567142564260377985E-01
    0.16566972413650401380E-01
    0.16566994532240707921E-01
    0.16566806452925894599E-01
    0.16566709738891818166E-01
    0.16566532325290338201E-01
    0.16566490844799972720E-01
    0.16566626689069816059E-01
    0.16566610755639477048E-01
    0.16566780302809988590E-01
    0.16566805042300965234E-01
    0.16567498867409685692E-01
    0.16567626120481352553E-01
    0.16567918035568819646E-01
    0.16567978319211803390E-01
    0.16567738020826450196E-01
    0.16567759859925243471E-01
    0.16567503285704544141E-01
    0.16567380544142678439E-01
    0.16567147229330371483E-01
    0.16567094871022175484E-01
    0.16567274396521981805E-01
    0.16567252694957106812E-01
    0.16567479435822544259E-01
    0.16567511424976366641E-01
    0.16567220135523825358E-01
    0.16567316632349789185E-01
    0.16567574151713268527E-01
    0.16567618079144367377E-01
    0.16567395021838300651E-01
    0.16567401764957710719E-01
    0.16567161025457327606E-01
    0.16567063103551951664E-01
    0.16566849245972101873E-01
    0.16566815240115235347E-01
    0.16566992135385302798E-01
    0.16566992960048796540E-01
    0.16567172849427384135E-01
    0.16567194757365243801E-01
    0.16568066949227425178E-01
    0.16568218538539909723E-01
    0.16568595878407445937E-01
    0.16568669228227028700E-01
    0.16568344054482788547E-01
    0.16568355788035237647E-01
    0.16568009000014528170E-01
    0.16567869969160761018E-01
    0.16567572301772207077E-01
    0.16567522189803306210E-01
    0.16567761927087611834E-01
    0.16567751954833450506E-01
    0.16568018969642165500E-01
    0.16568053221105105699E-01
    0.16565715625945685863E-01
    0.16565665584372196717E-01
    0.16565720556493353927E-01
    0.16565676923647975477E-01
    0.16565577770272107982E-01
    0.16565508718689749695E-01
    0.16565429761007558623E-01
    0.16565467992704002720E-01
    0.16565422914839263158E-01
    0.16565468358122826392E-01
    0.16565557221269934518E-01
    0.16565639264742512693E-01
    0.16565576649394970349E-01
    0.16565550649054679860E-01
    0.16565788007125957504E-01
    0.16565759518253141136E-01
    0.16565840527339250471E-01
    0.16565808996162341427E-01
    0.16565696271748957952E-01
    0.16565639113301212221E-01
    0.16565540410332254412E-01
    0.16565558408589069889E-01
    0.16565489487117151385E-01
    0.16565522208931912629E-01
    0.16565622607672997324E-01
    0.16565691098200305970E-01
    0.16565664954555081589E-01
    0.16565646239013971652E-01
    0.16566129490653169754E-01
    0.16566068447994471147E-01
    0.16566134567823794649E-01
    0.16566080731961752015E-01
    0.16565960007485176775E-01
    0.16565873843783402580E-01
    0.16565777979713456475E-01
    0.16565826849655643227E-01
    0.16565772500314560056E-01
    0.16565828755273539347E-01
    0.16565937217222666267E-01
    0.16566037188667802338E-01
    0.16565960309900189945E-01
    0.16565928178663962694E-01
    0.16566214488881167433E-01
    0.16566177337113147799E-01
    0.16566274751654275904E-01
    0.16566233316823043148E-01
    0.16566094562275500424E-01
    0.16566019596787526919E-01
    0.16565900277951833147E-01
    0.16565927699459033484E-01
    0.16565846226106281658E-01
    0.16565888926569606598E-01
    0.16566011512297501573E-01
    0.16566097146228111331E-01
    0.16566060871156817330E-01
    0.16566036412815933476E-01
    0.16565957155630695041E-01
    0.16565948514660932406E-01
    0.16566056991464635229E-01
    0.16566036079612458248E-01
    0.16565907117918277081E-01
    0.16565859837243780001E-01
    0.16565739684527021336E-01
    0.16565738591185357603E-01
    0.16565644963698840375E-01
    0.16565666082739339410E-01
    0.16565780177316698218E-01
    0.16565837401365565706E-01
    0.16565845805726352874E-01
    0.16565833624332920726E-01
    0.16566224539125859461E-01
    0.16566234784209651204E-01
    0.16566373573109187400E-01
    0.16566362582221130090E-01
    0.16566213555663924367E-01
    0.16566174794335780662E-01
    0.16566029893580927479E-01
    0.16566010107709590315E-01
    0.16565889968878016320E-01
    0.16565900471459608922E-01
    0.16566030994035144813E-01
    0.16566079024575363493E-01
    0.16566121042998396135E-01
    0.16566114861839207478E-01
    0.16566413205949495624E-01
    0.16566396697074731864E-01
    0.16566528217205424289E-01
    0.16566496178282482526E-01
    0.16566334335806974509E-01
    0.16566266930786940209E-01
    0.16566120980217861891E-01
    0.16566128946369492597E-01
    0.16566018586293508597E-01
    0.16566049755385382075E-01
    0.16566190713718363658E-01
    0.16566266279849528598E-01
    0.16566267151353543385E-01
    0.16566248930448744525E-01
    0.16566727611405908382E-01
    0.16566729158848526871E-01
    0.16566898607470348370E-01
    0.16566874046787131991E-01
    0.16566683462465446597E-01
    0.16566621084180915835E-01
    0.16566443823947639424E-01
    0.16566433142775640469E-01
    0.16566291147620346852E-01
    0.16566312509829601851E-01
    0.16566476469338856092E-01
    0.16566546057048749108E-01
    0.16566581474497316800E-01
    0.16566568413154045963E-01
    0.16566627521230028325E-01
    0.16566554948096775396E-01
    0.16566635898891728107E-01
    0.16566571445097176551E-01
    0.16566424830389912815E-01
    0.16566320343464994991E-01
    0.16566204323484701871E-01
    0.16566263685224975194E-01
    0.16566198232156468390E-01
    0.16566266071894424072E-01
    0.16566396487653709674E-01
    0.16566516428475175360E-01
    0.16566424568715445997E-01
    0.16566385970602896111E-01
    0.16566737242982982475E-01
    0.16566693210863455560E-01
    0.16566816108191870227E-01
    0.16566764519926318461E-01
    0.16566590729130383636E-01
    0.16566495989231044828E-01
    0.16566349069638081071E-01
    0.16566384743757572862E-01
    0.16566285831369004927E-01
    0.16566338479070200074E-01
    0.16566488201170816857E-01
    0.16566592264379242233E-01
    0.16566549138043191319E-01
    0.16566518904774712312E-01
    0.16567227648323631234E-01
    0.16567142752728972882E-01
    0.16567245695056256882E-01
    0.16567170068263963045E-01
    0.16566988927560047373E-01
    0.16566863696517237364E-01
    0.16566720499819713452E-01
    0.16566790446185215152E-01
    0.16566710134845698960E-01
    0.16566791271191708829E-01
    0.16566948649631974694E-01
    0.16567092585984263126E-01
    0.16566984328376863772E-01
    0.16566938533657548510E-01
    0.16567385907302493997E-01
    0.16567338967375652703E-01
    0.16567504880807652767E-01
    0.16567443423137585140E-01
    0.16567217016074539671E-01
    0.16567098605838787712E-01
    0.16566909736369761497E-01
    0.16566951456377421864E-01
    0.16566825034850147375E-01
    0.16566887861601566762E-01
    0.16567074694804718310E-01
    0.16567199545793977189E-01
    0.16567156264047547265E-01
    0.16567120278701920333E-01
    0.16566994532820740471E-01
    0.16566972414185469897E-01
    0.16567142564796938364E-01
    0.16567097591631281539E-01
    0.16566886873446949602E-01
    0.16566794377522561094E-01
    0.16566610756030979851E-01
    0.16566626689505210834E-01
    0.16566490845234520951E-01
    0.16566532325758231287E-01
    0.16566709739396483919E-01
    0.16566806453481824901E-01
    0.16566805042795604286E-01
    0.16566780303283932391E-01
    0.16567401765462112795E-01
    0.16567395022291597773E-01
    0.16567618079592536656E-01
    0.16567574152118937081E-01
    0.16567316632722116354E-01
    0.16567220135838434808E-01
    0.16566992960351935998E-01
    0.16566992135738457803E-01
    0.16566815240474295351E-01
    0.16566849246368732518E-01
    0.16567063103982655747E-01
    0.16567161025943150793E-01