# vtk DataFile Version 3.0
LAPLACIEN  2D
ASCII
DATASET UNSTRUCTURED_GRID
FIELD FieldData 1
TIME 1 1 double
5.0000
 POINTS        7297  float
   1.5625000000000000E-002  0.96875000000000000        0.0000000000000000     
   3.1250000000000000E-002  0.96875000000000000        0.0000000000000000     
   3.1250000000000000E-002  0.98437500000000000        0.0000000000000000     
   9.3749999999999997E-003  0.97812500000000002        0.0000000000000000     
   2.0312500000000001E-002  0.97968750000000004        0.0000000000000000     
   2.1874999999999999E-002  0.99062499999999998        0.0000000000000000     
   1.0937499999999999E-002  0.98906249999999996        0.0000000000000000     
   4.6875000000000000E-002  0.96875000000000000        0.0000000000000000     
   6.2500000000000000E-002  0.96875000000000000        0.0000000000000000     
   6.2500000000000000E-002  0.98437500000000000        0.0000000000000000     
   4.0625000000000001E-002  0.97812500000000002        0.0000000000000000     
   5.1562499999999997E-002  0.97968750000000004        0.0000000000000000     
   5.3124999999999999E-002  0.99062499999999998        0.0000000000000000     
   4.2187500000000003E-002  0.98906249999999996        0.0000000000000000     
   1.5625000000000000E-002  0.93750000000000000        0.0000000000000000     
   3.1250000000000000E-002  0.93750000000000000        0.0000000000000000     
   3.1250000000000000E-002  0.95312500000000000        0.0000000000000000     
   9.3749999999999997E-003  0.94687500000000002        0.0000000000000000     
   2.0312500000000001E-002  0.94843750000000004        0.0000000000000000     
   2.1874999999999999E-002  0.95937499999999998        0.0000000000000000     
   1.0937499999999999E-002  0.95781249999999996        0.0000000000000000     
   4.6875000000000000E-002  0.93750000000000000        0.0000000000000000     
   6.2500000000000000E-002  0.93750000000000000        0.0000000000000000     
   6.2500000000000000E-002  0.95312500000000000        0.0000000000000000     
   4.0625000000000001E-002  0.94687500000000002        0.0000000000000000     
   5.1562499999999997E-002  0.94843750000000004        0.0000000000000000     
   5.3124999999999999E-002  0.95937499999999998        0.0000000000000000     
   4.2187500000000003E-002  0.95781249999999996        0.0000000000000000     
   7.8125000000000000E-002  0.96875000000000000        0.0000000000000000     
   9.3750000000000000E-002  0.96875000000000000        0.0000000000000000     
   9.3750000000000000E-002  0.98437500000000000        0.0000000000000000     
   7.1874999999999994E-002  0.97812500000000002        0.0000000000000000     
   8.2812499999999997E-002  0.97968750000000004        0.0000000000000000     
   8.4375000000000006E-002  0.99062499999999998        0.0000000000000000     
   7.3437500000000003E-002  0.98906249999999996        0.0000000000000000     
  0.10937500000000000       0.96875000000000000        0.0000000000000000     
  0.12500000000000000       0.96875000000000000        0.0000000000000000     
  0.12500000000000000       0.98437500000000000        0.0000000000000000     
  0.10312499999999999       0.97812500000000002        0.0000000000000000     
  0.11406250000000000       0.97968750000000004        0.0000000000000000     
  0.11562500000000001       0.99062499999999998        0.0000000000000000     
  0.10468750000000000       0.98906249999999996        0.0000000000000000     
   7.8125000000000000E-002  0.93750000000000000        0.0000000000000000     
   9.3750000000000000E-002  0.93750000000000000        0.0000000000000000     
   9.3750000000000000E-002  0.95312500000000000        0.0000000000000000     
   7.1874999999999994E-002  0.94687500000000002        0.0000000000000000     
   8.2812499999999997E-002  0.94843750000000004        0.0000000000000000     
   8.4375000000000006E-002  0.95937499999999998        0.0000000000000000     
   7.3437500000000003E-002  0.95781249999999996        0.0000000000000000     
  0.10937500000000000       0.93750000000000000        0.0000000000000000     
  0.12500000000000000       0.93750000000000000        0.0000000000000000     
  0.12500000000000000       0.95312500000000000        0.0000000000000000     
  0.10312499999999999       0.94687500000000002        0.0000000000000000     
  0.11406250000000000       0.94843750000000004        0.0000000000000000     
  0.11562500000000001       0.95937499999999998        0.0000000000000000     
  0.10468750000000000       0.95781249999999996        0.0000000000000000     
   1.5625000000000000E-002  0.90625000000000000        0.0000000000000000     
   3.1250000000000000E-002  0.90625000000000000        0.0000000000000000     
   3.1250000000000000E-002  0.92187500000000000        0.0000000000000000     
   9.3749999999999997E-003  0.91562500000000002        0.0000000000000000     
   2.0312500000000001E-002  0.91718750000000004        0.0000000000000000     
   2.1874999999999999E-002  0.92812499999999998        0.0000000000000000     
   1.0937499999999999E-002  0.92656249999999996        0.0000000000000000     
   4.6875000000000000E-002  0.90625000000000000        0.0000000000000000     
   6.2500000000000000E-002  0.90625000000000000        0.0000000000000000     
   6.2500000000000000E-002  0.92187500000000000        0.0000000000000000     
   4.0625000000000001E-002  0.91562500000000002        0.0000000000000000     
   5.1562499999999997E-002  0.91718750000000004        0.0000000000000000     
   5.3124999999999999E-002  0.92812499999999998        0.0000000000000000     
   4.2187500000000003E-002  0.92656249999999996        0.0000000000000000     
   1.5625000000000000E-002  0.87500000000000000        0.0000000000000000     
   3.1250000000000000E-002  0.87500000000000000        0.0000000000000000     
   3.1250000000000000E-002  0.89062500000000000        0.0000000000000000     
   9.3749999999999997E-003  0.88437500000000002        0.0000000000000000     
   2.0312500000000001E-002  0.88593750000000004        0.0000000000000000     
   2.1874999999999999E-002  0.89687499999999998        0.0000000000000000     
   1.0937499999999999E-002  0.89531249999999996        0.0000000000000000     
   4.6875000000000000E-002  0.87500000000000000        0.0000000000000000     
   6.2500000000000000E-002  0.87500000000000000        0.0000000000000000     
   6.2500000000000000E-002  0.89062500000000000        0.0000000000000000     
   4.0625000000000001E-002  0.88437500000000002        0.0000000000000000     
   5.1562499999999997E-002  0.88593750000000004        0.0000000000000000     
   5.3124999999999999E-002  0.89687499999999998        0.0000000000000000     
   4.2187500000000003E-002  0.89531249999999996        0.0000000000000000     
   7.8125000000000000E-002  0.90625000000000000        0.0000000000000000     
   9.3750000000000000E-002  0.90625000000000000        0.0000000000000000     
   9.3750000000000000E-002  0.92187500000000000        0.0000000000000000     
   7.1874999999999994E-002  0.91562500000000002        0.0000000000000000     
   8.2812499999999997E-002  0.91718750000000004        0.0000000000000000     
   8.4375000000000006E-002  0.92812499999999998        0.0000000000000000     
   7.3437500000000003E-002  0.92656249999999996        0.0000000000000000     
  0.10937500000000000       0.90625000000000000        0.0000000000000000     
  0.12500000000000000       0.90625000000000000        0.0000000000000000     
  0.12500000000000000       0.92187500000000000        0.0000000000000000     
  0.10312499999999999       0.91562500000000002        0.0000000000000000     
  0.11406250000000000       0.91718750000000004        0.0000000000000000     
  0.11562500000000001       0.92812499999999998        0.0000000000000000     
  0.10468750000000000       0.92656249999999996        0.0000000000000000     
   7.8125000000000000E-002  0.87500000000000000        0.0000000000000000     
   9.3750000000000000E-002  0.87500000000000000        0.0000000000000000     
   9.3750000000000000E-002  0.89062500000000000        0.0000000000000000     
   7.1874999999999994E-002  0.88437500000000002        0.0000000000000000     
   8.2812499999999997E-002  0.88593750000000004        0.0000000000000000     
   8.4375000000000006E-002  0.89687499999999998        0.0000000000000000     
   7.3437500000000003E-002  0.89531249999999996        0.0000000000000000     
  0.10937500000000000       0.87500000000000000        0.0000000000000000     
  0.12500000000000000       0.87500000000000000        0.0000000000000000     
  0.12500000000000000       0.89062500000000000        0.0000000000000000     
  0.10312499999999999       0.88437500000000002        0.0000000000000000     
  0.11406250000000000       0.88593750000000004        0.0000000000000000     
  0.11562500000000001       0.89687499999999998        0.0000000000000000     
  0.10468750000000000       0.89531249999999996        0.0000000000000000     
  0.14062500000000000       0.96875000000000000        0.0000000000000000     
  0.15625000000000000       0.96875000000000000        0.0000000000000000     
  0.15625000000000000       0.98437500000000000        0.0000000000000000     
  0.13437499999999999       0.97812500000000002        0.0000000000000000     
  0.14531250000000001       0.97968750000000004        0.0000000000000000     
  0.14687500000000001       0.99062499999999998        0.0000000000000000     
  0.13593749999999999       0.98906249999999996        0.0000000000000000     
  0.17187500000000000       0.96875000000000000        0.0000000000000000     
  0.18750000000000000       0.96875000000000000        0.0000000000000000     
  0.18750000000000000       0.98437500000000000        0.0000000000000000     
  0.16562499999999999       0.97812500000000002        0.0000000000000000     
  0.17656250000000001       0.97968750000000004        0.0000000000000000     
[...]
 CELL_DATA       14336
 SCALARS Tumor_cells float
 LOOKUP_TABLE default
    0.16880953149733861351E-01
    0.16880950360992547088E-01
    0.16880967421703113596E-01
    0.16880967421699609454E-01
    0.16880950360987637821E-01
    0.16880953149721888290E-01
    0.16880938999306843717E-01
    0.16880930466002742191E-01
    0.16880921296046440955E-01
    0.16880921296045420937E-01
    0.16880930466006721646E-01
    0.16880938999314337723E-01
    0.16880937436802793961E-01
    0.16880937436801295159E-01
    0.16881006474516138671E-01
    0.16881020600640339602E-01
    0.16881055994608009513E-01
    0.16881066358323017218E-01
    0.16881041306258781631E-01
    0.16881055217112909961E-01
    0.16881027050608954365E-01
    0.16881001642225255260E-01
    0.16880974294283972170E-01
    0.16880963748995402723E-01
    0.16880980795821669271E-01
    0.16880978056664275311E-01
    0.16881005055239862306E-01
    0.16881011154576602840E-01
    0.16881055217164511045E-01
    0.16881041306299398447E-01
    0.16881066358364928137E-01
    0.16881055994638953510E-01
    0.16881020600662551001E-01
    0.16881006474525093314E-01
    0.16880978056671967075E-01
    0.16880980795838079755E-01
    0.16880963749011504427E-01
    0.16880974294305135797E-01
    0.16881001642256254769E-01
    0.16881027050651160187E-01
    0.16881011154606644781E-01
    0.16881005055264998449E-01
    0.16881109766054887972E-01
    0.16881113020649606699E-01
    0.16881157012928565270E-01
    0.16881157012921057387E-01
    0.16881113020636304839E-01
    0.16881109766024065405E-01
    0.16881066846456776326E-01
    0.16881052726568576694E-01
    0.16881017182535970611E-01
    0.16881017182540730692E-01
    0.16881052726579855866E-01
    0.16881066846483633315E-01
    0.16881079876683750124E-01
    0.16881079876680128021E-01
    0.16881130283483189447E-01
    0.16881161001446015613E-01
    0.16881214663695187639E-01
    0.16881235161193511307E-01
    0.16881202062752471288E-01
    0.16881226895711556185E-01
    0.16881184849065977716E-01
    0.16881142704917140307E-01
    0.16881097286361015919E-01
    0.16881076310024358683E-01
    0.16881101253888284447E-01
    0.16881087514982635878E-01
    0.16881142684346369526E-01
    0.16881154800185059484E-01
    0.16881323805441873082E-01
    0.16881370690831454251E-01
    0.16881442407188553684E-01
    0.16881472596567456690E-01
    0.16881431306674812842E-01
    0.16881466544204391106E-01
    0.16881410881584350131E-01
    0.16881352535647996954E-01
    0.16881289475481096179E-01
    0.16881258297382222694E-01
    0.16881291146407052806E-01
    0.16881266717286499968E-01
    0.16881349409177157789E-01
    0.16881367328476063611E-01
    0.16881236547297957806E-01
    0.16881256366577723771E-01
    0.16881319217658265208E-01
    0.16881329132622701489E-01
    0.16881276231408406940E-01
    0.16881283350738941762E-01
    0.16881225875668086356E-01
    0.16881195296199816291E-01
    0.16881141295920418927E-01
    0.16881131076273515890E-01
    0.16881175186886719641E-01
    0.16881178605206909049E-01
    0.16881219809999518239E-01
    0.16881225680520133003E-01
    0.16881434678663358867E-01
    0.16881470669560139086E-01
    0.16881552826504664377E-01
    0.16881572270644452233E-01
    0.16881509677625250454E-01
    0.16881526538066682352E-01
    0.16881454237980469263E-01
    0.16881407666344581259E-01
    0.16881335271978950563E-01
    0.16881315134031557590E-01
    0.16881368104970262412E-01
    0.16881361358444420956E-01
    0.16881430141904209957E-01
    0.16881441679967263553E-01
    0.16881226895830016982E-01
    0.16881202062855722029E-01
    0.16881235161301012121E-01
    0.16881214663787707381E-01
    0.16881161001522707737E-01
    0.16881130283540202869E-01
    0.16881087515032713875E-01
    0.16881101253951768387E-01
    0.16881076310084196235E-01
    0.16881097286430384041E-01
    0.16881142705003064630E-01
    0.16881184849169745404E-01
    0.16881154800271021971E-01
    0.16881142684425122502E-01
    0.16881283350836658735E-01
    0.16881276231484321909E-01
    0.16881329132695806206E-01
    0.16881319217712305314E-01
    0.16881256366618954678E-01
    0.16881236547315138508E-01
    0.16881178605222566663E-01
    0.16881175186922420250E-01
    0.16881131076312623496E-01
    0.16881141295973248195E-01
    0.16881195296266075789E-01
    0.16881225875756515620E-01
    0.16881225680579724224E-01
    0.16881219810049512969E-01
    0.16881466544416402070E-01
    0.16881431306867384495E-01
    0.16881472596767192751E-01
    0.16881442407369356973E-01
    0.16881370690989560418E-01
    0.16881323805573895946E-01
    0.16881266717406178540E-01
    0.16881291146544498416E-01
    0.16881258297512968802E-01
    0.16881289475625459867E-01
    0.16881352535815782878E-01
    0.16881410881776418714E-01
    0.16881367328644841797E-01
    0.16881349409336408873E-01
    0.16881526538257963371E-01
    0.16881509677790503682E-01
    0.16881572270809819952E-01
    0.16881552826647033133E-01
    0.16881470669682815261E-01
    0.16881434678755552481E-01
    0.16881361358529696493E-01
    0.16881368105079917752E-01
    0.16881315134141598039E-01
    0.16881335272106789275E-01
    0.16881407666492726644E-01
    0.16881454238157192482E-01
    0.16881441680109680881E-01
    0.16881430142034716674E-01
    0.16881415063446945923E-01
    0.16881424837419459206E-01
    0.16881497763356807101E-01
    0.16881497763345253843E-01
    0.16881424837398083943E-01
    0.16881415063397221810E-01
    0.16881341586411486438E-01
    0.16881321688780297902E-01
    0.16881258447771236436E-01
    0.16881258447780149445E-01
    0.16881321688799615782E-01
    0.16881341586457387222E-01
    0.16881370177756222645E-01
    0.16881370177750251727E-01
    0.16881621967538246870E-01
    0.16881648365740083151E-01
    0.16881742678508216554E-01
    0.16881752280897964480E-01
    0.16881667477899115620E-01
    0.16881666884251245175E-01
    0.16881576562844523293E-01
    0.16881540542954195927E-01
    0.16881457586200413618E-01
    0.16881447812450881690E-01
    0.16881521281828432146E-01
    0.16881531344797431893E-01
    0.16881588332914320566E-01
    0.16881593968121215432E-01
    0.16881666884394554151E-01
    0.16881667478009843020E-01
    0.16881752281001798088E-01
    0.16881742678584995415E-01
    0.16881648365800163564E-01
    0.16881621967563546077E-01
    0.16881531344821166379E-01
    0.16881521281883075936E-01
    0.16881447812512929280E-01
    0.16881457586284332600E-01
    0.16881540543055413572E-01
    0.16881576562978749256E-01
    0.16881593968210054091E-01
    0.16881588332988865103E-01
    0.16881888842760504887E-01
    0.16881906511929386377E-01
    0.16882015741186293112E-01
    0.16882015741170784684E-01
    0.16881906511900104245E-01
    0.16881888842692191477E-01
    0.16881778540981225156E-01
    0.16881751734094573719E-01
    0.16881656448597147369E-01
    0.16881656448610109222E-01
    0.16881751734121843572E-01
    0.16881778541045815850E-01
    0.16881825486974734452E-01
    0.16881825486966428596E-01
    0.16881586053741896858E-01
    0.16881648703793706440E-01
    0.16881738980558412544E-01
    0.16881778659406911081E-01
    0.16881728447392042175E-01
    0.16881773943947242511E-01
    0.16881704376946801011E-01
    0.16881629842039797690E-01
    0.16881549197682702707E-01
    0.16881508049706218239E-01
    0.16881548951047695151E-01
    0.16881514382645287226E-01
    0.16881623948452915279E-01
    0.16881647537367545919E-01
    0.16881918981826872506E-01
    0.16881997873504285546E-01
    0.16882109018136401413E-01
    0.16882158463132703602E-01
    0.16882097278910438570E-01
    0.16882153320893149295E-01
    0.16882068283092115796E-01
    0.16881976560008570692E-01
    0.16881877184573141487E-01
    0.16881825821121618225E-01
    0.16881875617930034578E-01
    0.16881831100736106877E-01
    0.16881968430400066949E-01
    0.16881997848398722084E-01
    0.16881705353658113533E-01
    0.16881757416728655763E-01
    0.16881860602422575635E-01
    0.16881889351328144278E-01
    0.16881814930408151759E-01
    0.16881840719729326872E-01
    0.16881752028363915252E-01
    0.16881689770777977971E-01
    0.16881598377644455033E-01
    0.16881568756880373922E-01
    0.16881631555862912364E-01
    0.16881615333738338169E-01
    0.16881711552697270529E-01
    0.16881728546191937523E-01
    0.16882054317302535446E-01
    0.16882123336187038892E-01
    0.16882252028285932993E-01
    0.16882290224154487823E-01
    0.16882199354877922698E-01
    0.16882233246648697955E-01
    0.16882124403341535607E-01
    0.16882045784279008094E-01
    0.16881932966678978719E-01
    0.16881894002304286689E-01
    0.16881969118839695171E-01
    0.16881944222075746104E-01
    0.16882069229538554378E-01
    0.16882091644233508665E-01
    0.16882330793466647501E-01
    0.16882427664285173941E-01
    0.16882564685518085951E-01
    0.16882624636856122247E-01
    0.16882548427839458999E-01
    0.16882615897944579925E-01
    0.16882512016192081222E-01
    0.16882400495246009664E-01
    0.16882279426514906762E-01
    0.16882216753037367074E-01
    0.16882277564965360306E-01
    0.16882222939519273691E-01
    0.16882391049846779546E-01
    0.16882426821663798489E-01
    0.16882839606060358328E-01
    0.16882957484703961515E-01
    0.16883129902094617947E-01
    0.16883201261831595058E-01
    0.16883102357024653423E-01
    0.16883182427620470334E-01
    0.16883053892188682604E-01
    0.16882917873462566921E-01
    0.16882769358174138513E-01
    0.16882693280448512335E-01
    0.16882769239638009684E-01
    0.16882704070130948037E-01
    0.16882908949991944775E-01
    0.16882952021123456832E-01
    0.16882497261003943934E-01
    0.16882585755384638820E-01
    0.16882749824794991700E-01
    0.16882798034417636351E-01
    0.16882681066427391442E-01
    0.16882721541876970217E-01
    0.16882584656394004213E-01
    0.16882487852528528516E-01
    0.16882347956022975000E-01
    0.16882299390024332192E-01
    0.16882392116070770588E-01
    0.16882359450920356170E-01
    0.16882517564182714098E-01
    0.16882545608343266924E-01
    0.16883067687848002381E-01
    0.16883180213411806692E-01
    0.16883398455792147930E-01
    0.16883456708687072378E-01
    0.16883295210989676671E-01
    0.16883338497546036827E-01
    0.16883158871935331768E-01
    0.16883040915763192907E-01
    0.16882863035718256167E-01
    0.16882804311258780422E-01
    0.16882925332473552177E-01
    0.16882886851557268870E-01
    0.16883086201016771211E-01
    0.16883120038241321292E-01
    0.16881908061716102004E-01
    0.16881951510560707502E-01
    0.16882070475725621111E-01
    0.16882089720870168542E-01
    0.16881989417000375225E-01
    0.16881997128064749059E-01
    0.16881886818317533988E-01
    0.16881834526900996868E-01
    0.16881730062225271116E-01
    0.16881710881112826222E-01
    0.16881796644336283242E-01
    0.16881797747554390388E-01
    0.16881883783614423655E-01
    0.16881894907542289302E-01
    0.16882284796109398028E-01
    0.16882347601812872778E-01
    0.16882499193871681326E-01
    0.16882529149504547916E-01
    0.16882405491525157015E-01
    0.16882420467380580831E-01
    0.16882282997233960531E-01
    0.16882213106898254218E-01
    0.16882082353139097469E-01
    0.16882053760684606614E-01
    0.16882156197341763315E-01
    0.16882149013572447793E-01
    0.16882267679009018563E-01
    0.16882284528436208859E-01
    0.16882199297427753076E-01
    0.16882235356169950080E-01
    0.16882374218464561016E-01
    0.16882384510466010019E-01
    0.16882255076968579605E-01
    0.16882245464623361203E-01
    0.16882110312232627425E-01
    0.16882065973999039327E-01
    0.16881945480935023340E-01
    0.16881935851858324155E-01
    0.16882046731733765105E-01
    0.16882065010978955510E-01
    0.16882143676716466346E-01
    0.16882149394506523743E-01
    0.16882616911109694230E-01
    0.16882675949830124040E-01
    0.16882856453127155494E-01
    0.16882879986601432437E-01
    0.16882719281801759903E-01
    0.16882717786256482007E-01
    0.16882546257195301526E-01
    0.16882480987272234507E-01
    0.16882327372434283858E-01
    0.16882307495796930463E-01
    0.16882440381374853866E-01
    0.16882450333413259042E-01
    0.16882567451595453106E-01
    0.16882579765052124071E-01
    0.16882780894586144754E-01
    0.16882868685677676623E-01
    0.16883070023654047492E-01
    0.16883112870377917775E-01
    0.16882949454952181356E-01
    0.16882969680977886334E-01
    0.16882790127659336177E-01
    0.16882699240825346787E-01
    0.16882531727951701622E-01
    0.16882493164307069838E-01
    0.16882621576895674026E-01
    0.16882606933364595336E-01
    0.16882766891322398273E-01
    0.16882790137146420906E-01
    0.16883457209651092645E-01
    0.16883580523619580449E-01
    0.16883865688194596433E-01
    0.16883924212458392700E-01
    0.16883688107121583299E-01
    0.16883707820481132222E-01
    0.16883457387641433861E-01
    0.16883339924960379802E-01
    0.16883114926203968836E-01
    0.16883065489473086246E-01
    0.16883238993569155834E-01
    0.16883218837440268356E-01
    0.16883437122977289213E-01
    0.16883467709545182250E-01
    0.16883187535174284249E-01
    0.16883280921300938826E-01
    0.16883529912514381316E-01
    0.16883573005059524658E-01
    0.16883356992347605535E-01
    0.16883363517828830352E-01
    0.16883131186237635563E-01
    0.16883037469911241907E-01
    0.16882833139324683602E-01
    0.16882800877256399358E-01
    0.16882969522817627139E-01
    0.16882970063717386150E-01
    0.16883142687919756170E-01
    0.16883163809900736396E-01
    0.16884011741830382697E-01
    0.16884161736924765962E-01
    0.16884534616207480529E-01
    0.16884608016344199166E-01
    0.16884286149023462059E-01
    0.16884297616712833079E-01
    0.16883955445867071532E-01
    0.16883819518795070702E-01
    0.16883528746673242410E-01
    0.16883480195128877654E-01
    0.16883713820527303934E-01
    0.16883703642183132965E-01
    0.16883965633530860495E-01
    0.16883999375973995222E-01
    0.16881773944278581634E-01
    0.16881728447699858447E-01
    0.16881778659724712421E-01
    0.16881738980853475129E-01
    0.16881648704059441790E-01
    0.16881586053975324718E-01
    0.16881514382861128459E-01
    0.16881548951285515331E-01
    0.16881508049934445398E-01
    0.16881549197928464451E-01
    0.16881629842315649948E-01
    0.16881704377253125421E-01
    0.16881647537645289026E-01
    0.16881623948718883083E-01
    0.16881840720039949927E-01
    0.16881814930688680831E-01
    0.16881889351611618910E-01
    0.16881860602679241851E-01
    0.16881757416958981938E-01
    0.16881705353851732959E-01
    0.16881615333919811062E-01
    0.16881631556072956152E-01
    0.16881568757087912769E-01
    0.16881598377873695271E-01
    0.16881689771034203568E-01
    0.16881752028654911646E-01
    0.16881728546443344058E-01
    0.16881711552934518250E-01
    0.16882153321368525978E-01
    0.16882097279358399683E-01
    0.16882158463593355952E-01
    0.16882109018570679027E-01
    0.16881997873902872959E-01
    0.16881918982187174572E-01
    0.16881831101073802026E-01
    0.16881875618293740171E-01
    0.16881825821472962179E-01
    0.16881877184945773968E-01
    0.16881976560417701755E-01
    0.16882068283537641357E-01
    0.16881997848810607887E-01
    0.16881968430798026393E-01
    0.16882233247103407142E-01
    0.16882199355298655591E-01
    0.16882290224580893262E-01
    0.16882252028681897504E-01
    0.16882123336550283049E-01
    0.16882054317623088058E-01
    0.16881944222379118015E-01
    0.16881969119175666005E-01
    0.16881894002634959678E-01
    0.16881932967035103571E-01
    0.16882045784668529842E-01
    0.16882124403771750498E-01
    0.16882091644619102999E-01
    0.16882069229907835373E-01
    0.16881997128327459051E-01
    0.16881989417226430511E-01
    0.16882089721092171514E-01
    0.16882070475916763352E-01
    0.16881951510728489957E-01
    0.16881908061842851310E-01
    0.16881797747674349985E-01
    0.16881796644491343234E-01
    0.16881710881272389557E-01
    0.16881730062410619381E-01
    0.16881834527110336358E-01
    0.16881886818566060882E-01
    0.16881894907740148393E-01
    0.16881883783795750831E-01
    0.16882245464811148489E-01
    0.16882255077113245134E-01
    0.16882384510599771077E-01
    0.16882374218563464541E-01
    0.16882235356248404684E-01
    0.16882199297460920989E-01
    0.16882065011010589928E-01
    0.16882046731806939210E-01
    0.16881935851942912741E-01
    0.16881945481049449170E-01
    0.16882065974134479597E-01
    0.16882110312411591907E-01
    0.16882149394623919419E-01
    0.16882143676814984762E-01
    0.16882420467787501855E-01
    0.16882405491891547961E-01
    0.16882529149869655166E-01
    0.16882499194202284926E-01
    0.16882347602113698115E-01
    0.16882284796363184604E-01
    0.16882149013814375799E-01
    0.16882156197622830152E-01
    0.16882053760967376949E-01
    0.16882082353451399737E-01
    0.16882213107240997413E-01
    0.16882282997621813475E-01
    0.16882284528768373710E-01
    0.16882267679322486564E-01
    0.16882717786588650327E-01
    0.16882719282086906809E-01
    0.16882879986878429612E-01
    0.16882856453365648747E-01
    0.16882675950041725610E-01
    0.16882616911269986149E-01
    0.16882450333566945133E-01
    0.16882440381574114613E-01
    0.16882307496004791969E-01
    0.16882327372675757365E-01
    0.16882480987541192974E-01
    0.16882546257513758592E-01
    0.16882579765303926123E-01
    0.16882567451826219901E-01
    0.16882615898587437220E-01
    0.16882548428451243927E-01
    0.16882624637483151925E-01
    0.16882564686115316549E-01
    0.16882427664840684439E-01
    0.16882330793978203576E-01
    0.16882222940003421136E-01
    0.16882277565479351933E-01
    0.16882216753536356812E-01
    0.16882279427038765496E-01
    0.16882400495812459329E-01
    0.16882512016800538951E-01
    0.16882426822233818214E-01
    0.16882391050400825938E-01
    0.16882721542499253692E-01
    0.16882681067012062642E-01
    0.16882798035010602999E-01
    0.16882749825354100015E-01
    0.16882585755904941371E-01
    0.16882497261475878925E-01
    0.16882359451370277520E-01
    0.16882392116557110723E-01
    0.16882299390502699538E-01
    0.16882347956530364269E-01
    0.16882487853075427847E-01
    0.16882584656987179028E-01
    0.16882545608887092325E-01
    0.16882517564708189595E-01
    0.16883182428452846169E-01
    0.16883102357822556833E-01
    0.16883201262647189178E-01
    0.16883129902877203748E-01
    0.16882957485439133855E-01
    0.16882839606746247174E-01
    0.16882704070784879807E-01
    0.16882769240325397331E-01
    0.16882693281118396622E-01
    0.16882769358872257159E-01
    0.16882917874209004555E-01
    0.16883053892982412270E-01
    0.16882952021874252091E-01
    0.16882908950724861974E-01
    0.16883338498358033131E-01
    0.16883295211760723092E-01
    0.16883456709468995516E-01
    0.16883398456537027782E-01
    0.16883180214112072925E-01
    0.16883067688494558106E-01
    0.16882886852177165365E-01
    0.16882925333133458334E-01
    0.16882804311908142930E-01
    0.16882863036400002493E-01
    0.16883040916490208577E-01
    0.16883158872713889542E-01
    0.16883120038966126925E-01
    0.16883086201721329150E-01
    0.16882969681552655733E-01
    0.16882949455482791634E-01
    0.16883112870909922770E-01
    0.16883070024148114086E-01
    0.16882868686135820563E-01
    0.16882780894991560039E-01
    0.16882606933753249723E-01
    0.16882621577327297513E-01
    0.16882493164737673308E-01
    0.16882531728415417493E-01
    0.16882699241325658385E-01
    0.16882790128210391906E-01
    0.16882790137637038869E-01
    0.16882766891792289760E-01
    0.16883363518329256442E-01
    0.16883356992797343005E-01
    0.16883573005503839382E-01
    0.16883529912916712262E-01
    0.16883280921670171248E-01
    0.16883187535486447739E-01
    0.16882970064017979034E-01
    0.16882969523167670051E-01
    0.16882800877612319512E-01
    0.16882833139717806636E-01
    0.16883037470338067149E-01
    0.16883131186719621541E-01