# vtk DataFile Version 3.0
LAPLACIEN  2D
ASCII
DATASET UNSTRUCTURED_GRID
 POINTS        7297  float
   1.5625000000000000E-002  0.96875000000000000        0.0000000000000000     
   3.1250000000000000E-002  0.96875000000000000        0.0000000000000000     
   3.1250000000000000E-002  0.98437500000000000        0.0000000000000000     
   9.3749999999999997E-003  0.97812500000000002        0.0000000000000000     
   2.0312500000000001E-002  0.97968750000000004        0.0000000000000000     
   2.1874999999999999E-002  0.99062499999999998        0.0000000000000000     
   1.0937499999999999E-002  0.98906249999999996        0.0000000000000000     
   4.6875000000000000E-002  0.96875000000000000        0.0000000000000000     
   6.2500000000000000E-002  0.96875000000000000        0.0000000000000000     
   6.2500000000000000E-002  0.98437500000000000        0.0000000000000000     
   4.0625000000000001E-002  0.97812500000000002        0.0000000000000000     
   5.1562499999999997E-002  0.97968750000000004        0.0000000000000000     
   5.3124999999999999E-002  0.99062499999999998        0.0000000000000000     
   4.2187500000000003E-002  0.98906249999999996        0.0000000000000000     
   1.5625000000000000E-002  0.93750000000000000        0.0000000000000000     
   3.1250000000000000E-002  0.93750000000000000        0.0000000000000000     
   3.1250000000000000E-002  0.95312500000000000        0.0000000000000000     
   9.3749999999999997E-003  0.94687500000000002        0.0000000000000000     
   2.0312500000000001E-002  0.94843750000000004        0.0000000000000000     
   2.1874999999999999E-002  0.95937499999999998        0.0000000000000000     
   1.0937499999999999E-002  0.95781249999999996        0.0000000000000000     
   4.6875000000000000E-002  0.93750000000000000        0.0000000000000000     
   6.2500000000000000E-002  0.93750000000000000        0.0000000000000000     
   6.2500000000000000E-002  0.95312500000000000        0.0000000000000000     
   4.0625000000000001E-002  0.94687500000000002        0.0000000000000000     
   5.1562499999999997E-002  0.94843750000000004        0.0000000000000000     
   5.3124999999999999E-002  0.95937499999999998        0.0000000000000000     
   4.2187500000000003E-002  0.95781249999999996        0.0000000000000000     
   7.8125000000000000E-002  0.96875000000000000        0.0000000000000000     
   9.3750000000000000E-002  0.96875000000000000        0.0000000000000000     
   9.3750000000000000E-002  0.98437500000000000        0.0000000000000000     
   7.1874999999999994E-002  0.97812500000000002        0.0000000000000000     
   8.2812499999999997E-002  0.97968750000000004        0.0000000000000000     
   8.4375000000000006E-002  0.99062499999999998        0.0000000000000000     
   7.3437500000000003E-002  0.98906249999999996        0.0000000000000000     
  0.10937500000000000       0.96875000000000000        0.0000000000000000     
  0.12500000000000000       0.96875000000000000        0.0000000000000000     
  0.12500000000000000       0.98437500000000000        0.0000000000000000     
  0.10312499999999999       0.97812500000000002        0.0000000000000000     
  0.11406250000000000       0.97968750000000004        0.0000000000000000     
  0.11562500000000001       0.99062499999999998        0.0000000000000000     
  0.10468750000000000       0.98906249999999996        0.0000000000000000     
   7.8125000000000000E-002  0.93750000000000000        0.0000000000000000     
   9.3750000000000000E-002  0.93750000000000000        0.0000000000000000     
   9.3750000000000000E-002  0.95312500000000000        0.0000000000000000     
   7.1874999999999994E-002  0.94687500000000002        0.0000000000000000     
   8.2812499999999997E-002  0.94843750000000004        0.0000000000000000     
   8.4375000000000006E-002  0.95937499999999998        0.0000000000000000     
   7.3437500000000003E-002  0.95781249999999996        0.0000000000000000     
  0.10937500000000000       0.93750000000000000        0.0000000000000000     
  0.12500000000000000       0.93750000000000000        0.0000000000000000     
  0.12500000000000000       0.95312500000000000        0.0000000000000000     
  0.10312499999999999       0.94687500000000002        0.0000000000000000     
  0.11406250000000000       0.94843750000000004        0.0000000000000000     
  0.11562500000000001       0.95937499999999998        0.0000000000000000     
  0.10468750000000000       0.95781249999999996        0.0000000000000000     
   1.5625000000000000E-002  0.90625000000000000        0.0000000000000000     
   3.1250000000000000E-002  0.90625000000000000        0.0000000000000000     
   3.1250000000000000E-002  0.92187500000000000        0.0000000000000000     
   9.3749999999999997E-003  0.91562500000000002        0.0000000000000000     
   2.0312500000000001E-002  0.91718750000000004        0.0000000000000000     
   2.1874999999999999E-002  0.92812499999999998        0.0000000000000000     
   1.0937499999999999E-002  0.92656249999999996        0.0000000000000000     
   4.6875000000000000E-002  0.90625000000000000        0.0000000000000000     
   6.2500000000000000E-002  0.90625000000000000        0.0000000000000000     
   6.2500000000000000E-002  0.92187500000000000        0.0000000000000000     
   4.0625000000000001E-002  0.91562500000000002        0.0000000000000000     
   5.1562499999999997E-002  0.91718750000000004        0.0000000000000000     
   5.3124999999999999E-002  0.92812499999999998        0.0000000000000000     
   4.2187500000000003E-002  0.92656249999999996        0.0000000000000000     
   1.5625000000000000E-002  0.87500000000000000        0.0000000000000000     
   3.1250000000000000E-002  0.87500000000000000        0.0000000000000000     
   3.1250000000000000E-002  0.89062500000000000        0.0000000000000000     
   9.3749999999999997E-003  0.88437500000000002        0.0000000000000000     
   2.0312500000000001E-002  0.88593750000000004        0.0000000000000000     
   2.1874999999999999E-002  0.89687499999999998        0.0000000000000000     
   1.0937499999999999E-002  0.89531249999999996        0.0000000000000000     
   4.6875000000000000E-002  0.87500000000000000        0.0000000000000000     
   6.2500000000000000E-002  0.87500000000000000        0.0000000000000000     
   6.2500000000000000E-002  0.89062500000000000        0.0000000000000000     
   4.0625000000000001E-002  0.88437500000000002        0.0000000000000000     
   5.1562499999999997E-002  0.88593750000000004        0.0000000000000000     
   5.3124999999999999E-002  0.89687499999999998        0.0000000000000000     
   4.2187500000000003E-002  0.89531249999999996        0.0000000000000000     
   7.8125000000000000E-002  0.90625000000000000        0.0000000000000000     
   9.3750000000000000E-002  0.90625000000000000        0.0000000000000000     
   9.3750000000000000E-002  0.92187500000000000        0.0000000000000000     
   7.1874999999999994E-002  0.91562500000000002        0.0000000000000000     
   8.2812499999999997E-002  0.91718750000000004        0.0000000000000000     
   8.4375000000000006E-002  0.92812499999999998        0.0000000000000000     
   7.3437500000000003E-002  0.92656249999999996        0.0000000000000000     
  0.10937500000000000       0.90625000000000000        0.0000000000000000     
  0.12500000000000000       0.90625000000000000        0.0000000000000000     
  0.12500000000000000       0.92187500000000000        0.0000000000000000     
  0.10312499999999999       0.91562500000000002        0.0000000000000000     
  0.11406250000000000       0.91718750000000004        0.0000000000000000     
  0.11562500000000001       0.92812499999999998        0.0000000000000000     
  0.10468750000000000       0.92656249999999996        0.0000000000000000     
   7.8125000000000000E-002  0.87500000000000000        0.0000000000000000     
   9.3750000000000000E-002  0.87500000000000000        0.0000000000000000     
   9.3750000000000000E-002  0.89062500000000000        0.0000000000000000     
   7.1874999999999994E-002  0.88437500000000002        0.0000000000000000     
   8.2812499999999997E-002  0.88593750000000004        0.0000000000000000     
   8.4375000000000006E-002  0.89687499999999998        0.0000000000000000     
   7.3437500000000003E-002  0.89531249999999996        0.0000000000000000     
  0.10937500000000000       0.87500000000000000        0.0000000000000000     
  0.12500000000000000       0.87500000000000000        0.0000000000000000     
  0.12500000000000000       0.89062500000000000        0.0000000000000000     
  0.10312499999999999       0.88437500000000002        0.0000000000000000     
  0.11406250000000000       0.88593750000000004        0.0000000000000000     
  0.11562500000000001       0.89687499999999998        0.0000000000000000     
  0.10468750000000000       0.89531249999999996        0.0000000000000000     
  0.14062500000000000       0.96875000000000000        0.0000000000000000     
  0.15625000000000000       0.96875000000000000        0.0000000000000000     
  0.15625000000000000       0.98437500000000000        0.0000000000000000     
  0.13437499999999999       0.97812500000000002        0.0000000000000000     
  0.14531250000000001       0.97968750000000004        0.0000000000000000     
  0.14687500000000001       0.99062499999999998        0.0000000000000000     
  0.13593749999999999       0.98906249999999996        0.0000000000000000     
  0.17187500000000000       0.96875000000000000        0.0000000000000000     
  0.18750000000000000       0.96875000000000000        0.0000000000000000     
  0.18750000000000000       0.98437500000000000        0.0000000000000000     
  0.16562499999999999       0.97812500000000002        0.0000000000000000     
  0.17656250000000001       0.97968750000000004        0.0000000000000000     
  0.17812500000000001       0.99062499999999998        0.0000000000000000     
[...]
 CELL_DATA       14336
 SCALARS Tumor_cells float
 LOOKUP_TABLE default
    0.57860643835024070424E-13
   -0.22489038733815993263E-13
    0.61067872212009842518E-13
    0.59067622658890416518E-14
    0.95131042996786006328E-13
   -0.18285167840018020019E-13
    0.79102533119103762669E-13
    0.10758840024830653163E-13
    0.21088289426202491701E-13
    0.24354997943417094108E-13
   -0.14980204095620188232E-13
    0.49215282489382473004E-13
    0.27458962779859687961E-13
    0.50948962699067144161E-13
    0.76480639748647790932E-13
    0.13664660997390532217E-13
    0.17374065619783968392E-13
    0.87836328210218165307E-13
    0.10989534910743104310E-12
    0.16824796568657621232E-13
    0.56863470025374023622E-13
    0.34330861340310360018E-13
    0.11399062966722282845E-12
    0.74905366872542917544E-14
    0.65901084516080284996E-13
    0.40618407258100190401E-13
    0.19861500555347176592E-13
   -0.36612204924840786872E-14
   -0.55467053825457957818E-13
    0.98616725132723136679E-13
    0.10546076991165003953E-12
   -0.14355155485513484122E-13
   -0.48543497537512442790E-13
    0.14280830990811258631E-12
    0.11000649575306037430E-12
    0.12084970451033430211E-12
    0.46997141585643576001E-14
    0.52598776604018915540E-13
    0.25808018904863484695E-13
    0.85383357825536682857E-13
    0.27784810938327413902E-13
    0.50478862113949764637E-13
    0.10845504529527408414E-12
    0.11696021208343177276E-12
    0.78904378894285082048E-14
    0.38861301786883625781E-13
    0.13673224670836003641E-12
    0.88435284905308074524E-13
    0.72606311368264789218E-13
   -0.21451853977505139197E-13
    0.11408997127820206778E-12
    0.57992166733670910971E-13
   -0.28928116410928274167E-13
    0.10126028864760000029E-12
    0.62224273290538562715E-13
    0.36700226378398174780E-13
    0.65060708948929392165E-13
   -0.31376523538447392217E-14
    0.12840904320889494386E-12
    0.13346983480173691038E-12
    0.60338466303947043411E-13
    0.60758427021236461029E-13
   -0.20822760249581427162E-13
    0.36770990661776835674E-13
    0.14778476998526028102E-12
    0.11919364997391574666E-12
    0.43620799727743606152E-13
    0.37246142918084324729E-14
    0.48548634636674362930E-13
    0.33395103459476161274E-13
   -0.46137235360360476607E-13
    0.72447498004777296591E-13
   -0.57235925911695874940E-13
    0.51399446057355526191E-13
    0.47185408129207217307E-13
    0.13377088681091301544E-13
    0.43551350490774343769E-14
    0.34370414112094986551E-13
    0.68736179499898851380E-13
   -0.38239550289221369298E-13
    0.20086795155272488148E-13
    0.10194895046573876749E-12
    0.99499932650930499242E-13
    0.59690011918130860589E-13
    0.84085415053751476982E-13
    0.95858061585312422820E-13
    0.69696628379697998974E-13
    0.78339212591062919385E-13
    0.75453953540407646510E-13
   -0.37542702691197971613E-13
    0.45018230773746636600E-13
   -0.31670506147711626009E-13
   -0.12611733723363286035E-13
    0.11305811504598985089E-12
    0.94632489587370226101E-13
    0.46376214741953746770E-13
    0.86995691958476268848E-13
    0.80055882841620122905E-13
    0.86588226816625695453E-13
    0.35620031821372922047E-13
    0.61892767366211890522E-13
   -0.54697823502297560920E-13
    0.47118714668436274122E-14
    0.37296400470082618067E-13
   -0.43692362350977247430E-14
    0.14100460934270853294E-14
    0.60792021971521566913E-13
    0.22530215334268794918E-13
    0.50528980297818267170E-13
    0.27428014884241782064E-14
    0.16765772475157184308E-13
    0.15332239887183806064E-13
   -0.24632562235842050691E-13
   -0.83076920046794979831E-14
    0.11739666664465634066E-12
    0.38721091881171341989E-13
    0.54878262451912915913E-13
    0.37316094374674714085E-13
   -0.59014733229189127316E-13
    0.22590521224342605811E-13
    0.13103206851032454955E-12
    0.64993764064500662980E-13
    0.51167883773585119204E-13
   -0.41259521088339556812E-13
   -0.14267832982095997918E-13
   -0.37930310132788006427E-13
    0.16650999406163430500E-13
    0.65492724702342171130E-13
   -0.69728442576708224872E-13
    0.43816504225194962606E-13
    0.97311395634391185091E-13
    0.11984690380226441961E-12
    0.30629886534319888563E-13
    0.62233426524130247176E-13
    0.13635851467575270489E-12
   -0.51351854847083570901E-13
   -0.74438500661287507414E-13
    0.33943799489272790908E-13
    0.33237036751602376076E-13
    0.10061257211912944851E-12
    0.10201926924348190837E-12
    0.10451105716898259187E-13
    0.46719165657961176986E-13
    0.15635226208003892540E-14
    0.12932360541101240905E-12
    0.25922470250517129980E-13
    0.18666485038199291896E-13
   -0.20395377775573640826E-13
    0.29935394854211479684E-13
    0.78462733717765145415E-13
    0.22859403163280604370E-13
   -0.62966783024630090339E-14
   -0.34850300741611905299E-13
    0.10880574715042554585E-12
    0.40707365007443999512E-13
    0.14069853250897621011E-13
    0.75456697774604190641E-13
    0.11074665785311757401E-12
    0.61960683497358239162E-13
    0.92073134079003460193E-14
   -0.64271167045940671674E-14
    0.18633442072350192291E-13
    0.42784317777897834593E-13
    0.71575997209818472847E-14
    0.40645956345719097762E-13
    0.82046073995153025319E-13
    0.56972899069274947958E-13
    0.25348631567847415517E-13
    0.30828265696754423791E-13
    0.55630766988439406999E-13
    0.18625220832668463216E-13
    0.60036922769147814902E-13
    0.24930518330938177067E-13
    0.44473087923410597337E-13
    0.71539498828875908708E-14
    0.12529563396040824219E-12
    0.39164284662154728402E-13
    0.30160008167089176928E-13
    0.61573572259905785123E-13
    0.19532088942733238189E-13
    0.49717870785180692619E-13
    0.84858860389994789638E-13
    0.56926465045681165578E-14
    0.64823122993470372227E-13
   -0.53653943942075906789E-13
    0.65061272432214606085E-13
   -0.10759314906996838086E-13
    0.38188264517220574222E-13
   -0.14343672561571609871E-13
    0.48202416503272096689E-13
    0.62600789948121959771E-13
    0.68498558138349194228E-13
    0.38981278847185139232E-13
    0.56148303541728045794E-13
    0.60993813967020471448E-15
   -0.44067289321033531584E-13
    0.75497842380942689270E-13
    0.20569968367255485408E-13
   -0.13068726548033344509E-15
   -0.88296771687135291573E-13
    0.27658103196435872520E-13
    0.40741859410009027575E-13
    0.39525754075540402697E-13
    0.37080050898929785681E-14
    0.76865156754789705679E-13
    0.39254297757234972410E-13
    0.24154976162276805018E-14
    0.48261814195042421809E-13
    0.29820143249118164385E-13
   -0.29797363317462440837E-13
    0.17874024011836187509E-13
   -0.38744885513657417879E-13
   -0.46277686926949264419E-13
    0.53301290663669599756E-13
    0.58413030179032434555E-13
    0.70507246824406697915E-13
   -0.60726523777656794249E-14
    0.96489771811354445088E-13
   -0.18252019285877601101E-13
    0.33242911416365725874E-13
    0.67773240225303857345E-13
    0.55278221887502108627E-13
   -0.44674450745763434218E-13
    0.12495884549386961792E-13
    0.18868025839973342619E-14
    0.68670010784380917374E-13
    0.28615841932709577483E-13
    0.22618828382699313467E-13
    0.32800680019931606099E-13
    0.14112410986009211124E-12
    0.78519376645942913341E-13
    0.92728395222569479206E-14
    0.42847526939429926962E-13
    0.11343049552359881019E-12
   -0.38640884615593026999E-13
    0.45180692679635872496E-13
   -0.11831817405730646437E-13
    0.29428030753996113877E-13
   -0.42161036621754401288E-13
    0.44490284334474153236E-13
    0.40435474721251641269E-13
    0.10305621412494644654E-12
    0.12336598216362175486E-12
    0.17855404889788592873E-13
   -0.13508839704550593909E-14
    0.96305578370156899297E-14
    0.55208607031670686433E-13
    0.12871245055521281530E-12
    0.71811369709026741336E-13
    0.34497290022317594568E-13
    0.29336878581402211114E-13
    0.12313862998552722980E-13
    0.33712674192057079882E-13
    0.65487963137251486623E-13
    0.41096566471387162386E-13
    0.36151099249432996959E-13
    0.24519491567597834225E-13
   -0.97226607256448101406E-14
    0.69087103655034030419E-14
   -0.81496242792004195228E-13
   -0.27412078101790573697E-13
    0.72479681043017176638E-13
   -0.87940460873862783047E-14
    0.22577258204955499467E-13
   -0.18614535210961329383E-13
   -0.24296199677003376868E-13
    0.13644569448330904495E-12
    0.80858866330243905798E-13
    0.49579855274544988425E-14
   -0.19985791829253138595E-13
    0.41429721561441078041E-13
    0.85749135584964808210E-13
    0.92270257818910679553E-13
    0.36315998344716373292E-13
    0.60295493462874728742E-13
    0.36811505809671393727E-13
    0.19124039817707061266E-14
    0.75244633045936603062E-13
    0.13610284913713964100E-13
   -0.32237394280250310139E-14
   -0.97516705530997895367E-14
    0.34877604991820308441E-13
    0.15241447189966848617E-13
    0.75943424848555696340E-14
    0.74358807290538485854E-13
    0.28800454458812289061E-13
    0.15408524730692619577E-13
    0.21460596919960816339E-13
   -0.26640927819074543876E-13
    0.14806491002745475307E-13
    0.13077541320721729293E-13
    0.44987956326775249941E-13
    0.79262683556433021190E-13
    0.57248617144885512122E-13
    0.31365989135842768561E-13
    0.17220493802807787103E-13
   -0.60274038698575358401E-14
    0.39399664271524918778E-13
    0.24598160603960684851E-13
    0.83635448208666062803E-13
    0.71016003725054430592E-13
    0.64209522749218255450E-13
    0.81652726680107177056E-13
    0.74033233903435397211E-13
    0.50948972250610976366E-13
    0.19281897596410509372E-13
    0.47945938957042458740E-13
    0.44519166641429669376E-13
   -0.90572744882270632494E-14
   -0.89633266966314103528E-14
   -0.13869715401650704977E-13
    0.76796587909968927325E-13
    0.18163761251173731658E-13
    0.34305371424733176170E-13
    0.33980767982941846642E-13
   -0.60098360104109668108E-13
   -0.14040334216254517550E-13
    0.61339163355405970272E-13
   -0.36661323311432768716E-13
    0.38381293117846287016E-13
    0.41519987258926811661E-14
    0.19844152835943142278E-14
    0.61012594706494003968E-13
    0.36173119075676763521E-13
   -0.12724891939829962238E-14
    0.14808578292304670577E-13
    0.24864164575634395314E-13
   -0.47173791048174683073E-13
   -0.15958010370582386696E-13
   -0.32421128889873188367E-13
   -0.10093343246247253235E-13
   -0.36063289450247770981E-13
   -0.15849438172451415407E-13
    0.78514049519032277087E-13
   -0.45630017447821527815E-14
   -0.80419409838921881332E-14
    0.38294367600611489792E-13
    0.10524407866524700648E-12
    0.35337478621228660645E-13
    0.18729799654869284198E-13
    0.39498046086516452232E-13
    0.82480578124154225951E-13
    0.38349796109993540007E-13
   -0.42181083381031071642E-14
    0.25825006708065593292E-13
    0.45793176953754867967E-13
    0.61246541771498545757E-13
    0.10065674955526342219E-12
    0.95610114955189299549E-13
    0.26140392513148195458E-13
    0.12851027666099917159E-13
    0.11902908454307744048E-13
    0.41028107315866239185E-13
    0.55900326563069708581E-13
    0.39477264377361300960E-13
    0.20847243319081086014E-13
   -0.19722688042865144948E-13
    0.28489703265648206276E-13
    0.53784529983493726830E-13
    0.63905861401226184487E-14
   -0.13161130149103264845E-13
    0.39892461207178444482E-13
    0.25602492226608750489E-13
   -0.22456521507745810665E-14
    0.44220909132217953729E-13
   -0.43034096732190407876E-13
    0.34184358565871383884E-15
    0.14671845144436558121E-13
    0.36331135548423307399E-13
    0.10139824808428075254E-12
    0.10931980067607345377E-12
    0.17587787830797538146E-13
    0.46433842402035898488E-13
    0.41284016860159370051E-13
   -0.23194903194836256241E-13
    0.27829817241242911467E-13
    0.36277264693931420528E-13
    0.58711173759171317358E-13
    0.26575836225085963596E-13
   -0.44917319797682560940E-14
   -0.10778078425128302398E-13
    0.10673243810695134726E-13
    0.24165560165741995994E-13
   -0.54382329572266587867E-14
    0.17859265200632233040E-13
    0.96019968481712127980E-13
    0.63784602366110433251E-13
    0.64187835791486064578E-13
    0.29935422634789062860E-13
   -0.55627059189036103146E-14
   -0.13079668585387780408E-13
    0.55624260917394490424E-13
    0.93197461475751614164E-14
    0.76762089930780379197E-13
    0.70419214094944276375E-13
    0.35346891797246357979E-13
    0.68468508523367976380E-13
    0.37209207129045600520E-13
    0.81139261766506627969E-13
    0.72585756785615812568E-13
    0.78418099709129462043E-13
    0.41401952089701917274E-13
    0.34436080463721976675E-13
    0.30251153080402670450E-13
    0.63269240060238191192E-13
    0.55905307367267880565E-13
    0.51613984635037549919E-14
    0.59007462595737084121E-14
    0.27676124255756608899E-13
    0.23385617122730631454E-13
    0.27174329913979703041E-13
   -0.50335043112707220141E-13
   -0.10256638470479892125E-13
    0.57378887268745872798E-13
    0.58106066447696517661E-13
    0.22643464025719257150E-13
    0.25031240754974917303E-13
    0.13144345715784218336E-13
    0.80492722497940405755E-14
    0.41018623683644468015E-13
   -0.29997963016329432459E-13
    0.34008819973855631332E-13
    0.27081708283120751039E-13
   -0.17468479764594057162E-13
   -0.11256666534323411935E-13
    0.39410199794989466094E-13
    0.29856055738518890196E-13
    0.53212267437907311408E-14
    0.42538343212863951145E-13
    0.42171637455139785698E-14
   -0.58077357096635294891E-14
   -0.50131380812497627470E-14
    0.21077710735447586814E-13
   -0.31214469266293977506E-14
   -0.64867070411979521284E-14
   -0.10226966301607335335E-13
    0.28041679548935060860E-14
   -0.10192944724172351850E-13
   -0.10285480657293300619E-13
    0.27743095633247459425E-13
    0.29202274131602596530E-13
    0.12055415132594408167E-15
   -0.11234940305850061758E-13
    0.61760486583740599429E-14
    0.17680456065312959734E-14
   -0.10514842962372890199E-13
    0.56644526035499621287E-15
   -0.66351232936341589566E-14
    0.91400898729684191832E-13
    0.28652443037068510893E-14
    0.11592916175797828581E-12
    0.67005867381034284203E-13
    0.16049380657207028071E-13
    0.52374889345427592076E-13
   -0.15231678036787707305E-13
    0.49907367747687597299E-13
    0.92921370741256433886E-13
    0.20239340889740443733E-13
    0.43500223098651242004E-13
    0.74761913557002559865E-13
   -0.78407228691513312203E-14
    0.70826072811139208069E-13
    0.46338835709653340802E-13
   -0.26485671068908406736E-13
    0.21279986285686391397E-13
    0.67088235663595413537E-13
    0.10626652581990593813E-12
    0.18354575868442286964E-13
    0.39720162089770032199E-13
    0.12089360287916583747E-12
    0.10107733628426511220E-13
    0.68651567894291223266E-13
    0.24442455675715469996E-13
    0.37138692681413880447E-13
    0.72076925317799114735E-13
    0.69577772671956946643E-13
    0.28096965390962754567E-13
    0.85398839677088991187E-13
    0.88711243968488110117E-13
    0.82217755957491392948E-13
    0.14702989934453282164E-12
    0.19955009758475630482E-13
    0.61362333548344768929E-13
    0.92066843328085243244E-13
    0.66498369506385457418E-13
    0.45913749411993869960E-13
    0.70353809109841964540E-14
   -0.30519745644573024868E-14
    0.30157679054613271953E-13
    0.45531029286436026170E-13
    0.14225641293903883611E-13
    0.14778447344881960224E-13
   -0.30380240484653181166E-13
    0.31798150360359593704E-13
    0.11201870702079790562E-13
    0.12307547558541191545E-12
    0.47687820182546002298E-13
    0.45539886059457042075E-13
    0.77481045664981731812E-13
    0.11945974799369120577E-12
    0.23775218427302450792E-13
    0.41024441212426004717E-13
    0.22473878207007095037E-13
    0.10708500662593466451E-13
    0.33572682100876022823E-13
    0.45789278199774679586E-13
    0.67617608262336156142E-13
    0.46669661114438009319E-13
    0.74526748101670505173E-13
    0.82189071205708050364E-13
    0.12480925174100497343E-13
    0.38804579133484414498E-13
    0.53043194339972941678E-13
    0.85841534882145315018E-14
    0.29985050969045061599E-13
    0.62224597540943705896E-13
    0.35578939027745137374E-14
    0.10019904348202907037E-12
   -0.75766699310869991749E-14
    0.57355173386383502761E-13
    0.71805659794697218020E-13
    0.13929893213773939608E-13
    0.34148209881775099934E-13
    0.67794068590988192094E-13
   -0.16537042000149821096E-13
   -0.11830424436758572758E-14
   -0.61642196948609710186E-14
    0.95946406927951346350E-13
    0.80394348821942574622E-13
   -0.15433124294723233105E-13
    0.20864842359925835649E-13
    0.43559651573938117327E-13
    0.50887417891762284553E-14
    0.63226046732625830174E-13
    0.33555085024844801105E-13
    0.32803473096618404920E-13
    0.37348493405966901056E-14
    0.34013197757914060257E-14
    0.62195380168413600410E-13
    0.18048148486009789979E-13
    0.21960281111316306075E-13
    0.11409570672222582874E-12
    0.41292359975300554740E-13
    0.25058621393577480922E-13
    0.37558201193873436592E-13
    0.51774762269585336050E-13
   -0.28364128555881297193E-13
    0.14336510622041836103E-13
    0.50979607152457816666E-13
    0.97567039029288648683E-14
    0.48411888438938079370E-13
    0.93784234151737761470E-13
    0.93488703127630412701E-13
    0.97561813047472754558E-14
    0.19706457974984951603E-13
   -0.95847169165449989095E-14
    0.17405705671456925285E-13
    0.33281838609955299902E-13
    0.45845030313663996743E-15
   -0.14179385838435787635E-13
    0.51334237852529201358E-13
    0.79059195532769448554E-13
    0.25094573623067391347E-13
    0.20325463322177962659E-13
    0.72675181144892217858E-13
    0.52769630214629547668E-13
    0.50724888811655868727E-13
    0.45484282611098052888E-13
    0.38968236506813128716E-13
   -0.21539715683873745322E-13
    0.32497337855040289518E-13
   -0.10791564242024844821E-13
    0.51933228816357647974E-13
    0.74139777521820655431E-13
    0.58362272502349954693E-13
    0.55086573716042897191E-13
    0.41796248288340729905E-13
   -0.44190579969806893462E-14
    0.15725554807686543152E-14
   -0.65729508865459175841E-14
    0.25680568389591572983E-13
    0.30746778946932633521E-13
    0.63253447594657549575E-13
    0.65742035362808122850E-14
    0.19554781363961574233E-13
    0.17616752202417321609E-13
    0.45697866823538349767E-13
    0.94502480909177667207E-14
    0.40710362767517568540E-13
    0.26085840654436714817E-14
    0.29092062889063784531E-13
    0.23101429276307501943E-13
    0.35304001630153776472E-13
    0.38042394545548969930E-13
    0.53386978300446209622E-13
    0.15960675201076189804E-13
    0.38009387569656020534E-13
    0.44271502469792617530E-13
    0.60188957295201089559E-13
    0.45637235250388535384E-13
    0.10408195547757722640E-13
    0.21186686194902702125E-13
    0.11797588153410854313E-13
   -0.36158249582940681240E-14
   -0.34832937411831332342E-13
   -0.33814659457775709261E-13
   -0.13858787962886424002E-13
    0.81622976875356187927E-14
   -0.78486211512489134562E-14
    0.20587053884635486319E-13
    0.37024910385435692503E-13
    0.37864816015920795291E-14
    0.18482241085151234243E-13
    0.12421846973820372348E-13
    0.17362632882655088625E-13
    0.95359287568307597433E-14
    0.76185062720697823779E-14
    0.37332684822542646757E-13
    0.25895594747256037199E-13
    0.43952455622990654806E-13
    0.24996561915284244440E-13
    0.14440261725656186104E-13
    0.42341581217520029778E-14
    0.43362744744349588696E-13
    0.13211439966781352025E-13
    0.84318023512697347328E-13
    0.10516996443133255959E-12
    0.58905329495129140399E-13
    0.44314905001627277859E-13
    0.34729851972330005342E-13
    0.53408705639043650575E-13
    0.44756152385091571864E-13
    0.26593147431454037791E-13
    0.29118722999777524877E-13
    0.38452917834958479550E-13
    0.11703232673944577639E-13
    0.37227311394691989260E-13
   -0.34024465201807956128E-13
   -0.23713100501471693592E-13
    0.29239351385978773909E-13
    0.45104831529669540878E-13
    0.48242770838839059663E-13