# vtk DataFile Version 3.0
LAPLACIEN  2D
ASCII
DATASET UNSTRUCTURED_GRID
FIELD FieldData 1
TIME 1 1 double
14.8000
 POINTS        7297  float
   1.5625000000000000E-002  0.96875000000000000        0.0000000000000000     
   3.1250000000000000E-002  0.96875000000000000        0.0000000000000000     
   3.1250000000000000E-002  0.98437500000000000        0.0000000000000000     
   9.3749999999999997E-003  0.97812500000000002        0.0000000000000000     
   2.0312500000000001E-002  0.97968750000000004        0.0000000000000000     
   2.1874999999999999E-002  0.99062499999999998        0.0000000000000000     
   1.0937499999999999E-002  0.98906249999999996        0.0000000000000000     
   4.6875000000000000E-002  0.96875000000000000        0.0000000000000000     
   6.2500000000000000E-002  0.96875000000000000        0.0000000000000000     
   6.2500000000000000E-002  0.98437500000000000        0.0000000000000000     
   4.0625000000000001E-002  0.97812500000000002        0.0000000000000000     
   5.1562499999999997E-002  0.97968750000000004        0.0000000000000000     
   5.3124999999999999E-002  0.99062499999999998        0.0000000000000000     
   4.2187500000000003E-002  0.98906249999999996        0.0000000000000000     
   1.5625000000000000E-002  0.93750000000000000        0.0000000000000000     
   3.1250000000000000E-002  0.93750000000000000        0.0000000000000000     
   3.1250000000000000E-002  0.95312500000000000        0.0000000000000000     
   9.3749999999999997E-003  0.94687500000000002        0.0000000000000000     
   2.0312500000000001E-002  0.94843750000000004        0.0000000000000000     
   2.1874999999999999E-002  0.95937499999999998        0.0000000000000000     
   1.0937499999999999E-002  0.95781249999999996        0.0000000000000000     
   4.6875000000000000E-002  0.93750000000000000        0.0000000000000000     
   6.2500000000000000E-002  0.93750000000000000        0.0000000000000000     
   6.2500000000000000E-002  0.95312500000000000        0.0000000000000000     
   4.0625000000000001E-002  0.94687500000000002        0.0000000000000000     
   5.1562499999999997E-002  0.94843750000000004        0.0000000000000000     
   5.3124999999999999E-002  0.95937499999999998        0.0000000000000000     
   4.2187500000000003E-002  0.95781249999999996        0.0000000000000000     
   7.8125000000000000E-002  0.96875000000000000        0.0000000000000000     
   9.3750000000000000E-002  0.96875000000000000        0.0000000000000000     
   9.3750000000000000E-002  0.98437500000000000        0.0000000000000000     
   7.1874999999999994E-002  0.97812500000000002        0.0000000000000000     
   8.2812499999999997E-002  0.97968750000000004        0.0000000000000000     
   8.4375000000000006E-002  0.99062499999999998        0.0000000000000000     
   7.3437500000000003E-002  0.98906249999999996        0.0000000000000000     
  0.10937500000000000       0.96875000000000000        0.0000000000000000     
  0.12500000000000000       0.96875000000000000        0.0000000000000000     
  0.12500000000000000       0.98437500000000000        0.0000000000000000     
  0.10312499999999999       0.97812500000000002        0.0000000000000000     
  0.11406250000000000       0.97968750000000004        0.0000000000000000     
  0.11562500000000001       0.99062499999999998        0.0000000000000000     
  0.10468750000000000       0.98906249999999996        0.0000000000000000     
   7.8125000000000000E-002  0.93750000000000000        0.0000000000000000     
   9.3750000000000000E-002  0.93750000000000000        0.0000000000000000     
   9.3750000000000000E-002  0.95312500000000000        0.0000000000000000     
   7.1874999999999994E-002  0.94687500000000002        0.0000000000000000     
   8.2812499999999997E-002  0.94843750000000004        0.0000000000000000     
   8.4375000000000006E-002  0.95937499999999998        0.0000000000000000     
   7.3437500000000003E-002  0.95781249999999996        0.0000000000000000     
  0.10937500000000000       0.93750000000000000        0.0000000000000000     
  0.12500000000000000       0.93750000000000000        0.0000000000000000     
  0.12500000000000000       0.95312500000000000        0.0000000000000000     
  0.10312499999999999       0.94687500000000002        0.0000000000000000     
  0.11406250000000000       0.94843750000000004        0.0000000000000000     
  0.11562500000000001       0.95937499999999998        0.0000000000000000     
  0.10468750000000000       0.95781249999999996        0.0000000000000000     
   1.5625000000000000E-002  0.90625000000000000        0.0000000000000000     
   3.1250000000000000E-002  0.90625000000000000        0.0000000000000000     
   3.1250000000000000E-002  0.92187500000000000        0.0000000000000000     
   9.3749999999999997E-003  0.91562500000000002        0.0000000000000000     
   2.0312500000000001E-002  0.91718750000000004        0.0000000000000000     
   2.1874999999999999E-002  0.92812499999999998        0.0000000000000000     
   1.0937499999999999E-002  0.92656249999999996        0.0000000000000000     
   4.6875000000000000E-002  0.90625000000000000        0.0000000000000000     
   6.2500000000000000E-002  0.90625000000000000        0.0000000000000000     
   6.2500000000000000E-002  0.92187500000000000        0.0000000000000000     
   4.0625000000000001E-002  0.91562500000000002        0.0000000000000000     
   5.1562499999999997E-002  0.91718750000000004        0.0000000000000000     
   5.3124999999999999E-002  0.92812499999999998        0.0000000000000000     
   4.2187500000000003E-002  0.92656249999999996        0.0000000000000000     
   1.5625000000000000E-002  0.87500000000000000        0.0000000000000000     
   3.1250000000000000E-002  0.87500000000000000        0.0000000000000000     
   3.1250000000000000E-002  0.89062500000000000        0.0000000000000000     
   9.3749999999999997E-003  0.88437500000000002        0.0000000000000000     
   2.0312500000000001E-002  0.88593750000000004        0.0000000000000000     
   2.1874999999999999E-002  0.89687499999999998        0.0000000000000000     
   1.0937499999999999E-002  0.89531249999999996        0.0000000000000000     
   4.6875000000000000E-002  0.87500000000000000        0.0000000000000000     
   6.2500000000000000E-002  0.87500000000000000        0.0000000000000000     
   6.2500000000000000E-002  0.89062500000000000        0.0000000000000000     
   4.0625000000000001E-002  0.88437500000000002        0.0000000000000000     
   5.1562499999999997E-002  0.88593750000000004        0.0000000000000000     
   5.3124999999999999E-002  0.89687499999999998        0.0000000000000000     
   4.2187500000000003E-002  0.89531249999999996        0.0000000000000000     
   7.8125000000000000E-002  0.90625000000000000        0.0000000000000000     
   9.3750000000000000E-002  0.90625000000000000        0.0000000000000000     
   9.3750000000000000E-002  0.92187500000000000        0.0000000000000000     
   7.1874999999999994E-002  0.91562500000000002        0.0000000000000000     
   8.2812499999999997E-002  0.91718750000000004        0.0000000000000000     
   8.4375000000000006E-002  0.92812499999999998        0.0000000000000000     
   7.3437500000000003E-002  0.92656249999999996        0.0000000000000000     
  0.10937500000000000       0.90625000000000000        0.0000000000000000     
  0.12500000000000000       0.90625000000000000        0.0000000000000000     
  0.12500000000000000       0.92187500000000000        0.0000000000000000     
  0.10312499999999999       0.91562500000000002        0.0000000000000000     
  0.11406250000000000       0.91718750000000004        0.0000000000000000     
  0.11562500000000001       0.92812499999999998        0.0000000000000000     
  0.10468750000000000       0.92656249999999996        0.0000000000000000     
   7.8125000000000000E-002  0.87500000000000000        0.0000000000000000     
   9.3750000000000000E-002  0.87500000000000000        0.0000000000000000     
   9.3750000000000000E-002  0.89062500000000000        0.0000000000000000     
   7.1874999999999994E-002  0.88437500000000002        0.0000000000000000     
   8.2812499999999997E-002  0.88593750000000004        0.0000000000000000     
   8.4375000000000006E-002  0.89687499999999998        0.0000000000000000     
   7.3437500000000003E-002  0.89531249999999996        0.0000000000000000     
  0.10937500000000000       0.87500000000000000        0.0000000000000000     
  0.12500000000000000       0.87500000000000000        0.0000000000000000     
  0.12500000000000000       0.89062500000000000        0.0000000000000000     
  0.10312499999999999       0.88437500000000002        0.0000000000000000     
  0.11406250000000000       0.88593750000000004        0.0000000000000000     
  0.11562500000000001       0.89687499999999998        0.0000000000000000     
  0.10468750000000000       0.89531249999999996        0.0000000000000000     
  0.14062500000000000       0.96875000000000000        0.0000000000000000     
  0.15625000000000000       0.96875000000000000        0.0000000000000000     
  0.15625000000000000       0.98437500000000000        0.0000000000000000     
  0.13437499999999999       0.97812500000000002        0.0000000000000000     
  0.14531250000000001       0.97968750000000004        0.0000000000000000     
  0.14687500000000001       0.99062499999999998        0.0000000000000000     
  0.13593749999999999       0.98906249999999996        0.0000000000000000     
  0.17187500000000000       0.96875000000000000        0.0000000000000000     
  0.18750000000000000       0.96875000000000000        0.0000000000000000     
  0.18750000000000000       0.98437500000000000        0.0000000000000000     
  0.16562499999999999       0.97812500000000002        0.0000000000000000     
  0.17656250000000001       0.97968750000000004        0.0000000000000000     
[...]
 CELL_DATA       14336
 SCALARS Tumor_cells float
 LOOKUP_TABLE default
    0.44989774085827868855E-01
    0.44989773720009347546E-01
    0.44989776616921328678E-01
    0.44989776616920711116E-01
    0.44989773720011429214E-01
    0.44989774085825745553E-01
    0.44989771792221383562E-01
    0.44989770433016579299E-01
    0.44989768965385867894E-01
    0.44989768965373350129E-01
    0.44989770433023094920E-01
    0.44989771792218850865E-01
    0.44989771579613362096E-01
    0.44989771579611301244E-01
    0.44989783620341665393E-01
    0.44989786161319857138E-01
    0.44989793059185829993E-01
    0.44989794971671194512E-01
    0.44989789797506639368E-01
    0.44989792273756594454E-01
    0.44989786853024488211E-01
    0.44989782346699196125E-01
    0.44989777587950988136E-01
    0.44989775892305648719E-01
    0.44989778848759952312E-01
    0.44989778485897802263E-01
    0.44989783130192757821E-01
    0.44989784146467683146E-01
    0.44989792273757982233E-01
    0.44989789797507132030E-01
    0.44989794971672159019E-01
    0.44989793059186336532E-01
    0.44989786161320842461E-01
    0.44989783620341193549E-01
    0.44989778485899273308E-01
    0.44989778848758987806E-01
    0.44989775892307674876E-01
    0.44989777587949808524E-01
    0.44989782346700667170E-01
    0.44989786853025071078E-01
    0.44989784146468723980E-01
    0.44989783130193090888E-01
    0.44989805089457823861E-01
    0.44989806202695090120E-01
    0.44989817005532513339E-01
    0.44989817005532291294E-01
    0.44989806202694986037E-01
    0.44989805089456991194E-01
    0.44989795519745703900E-01
    0.44989792792908267494E-01
    0.44989785682390683041E-01
    0.44989785682390120991E-01
    0.44989792792908926689E-01
    0.44989795519745960639E-01
    0.44989798662971973442E-01
    0.44989798662971786092E-01
    0.44989809132999963870E-01
    0.44989816017147556126E-01
    0.44989829504567653562E-01
    0.44989834533350425705E-01
    0.44989825609328494560E-01
    0.44989831650558725906E-01
    0.44989820992163594149E-01
    0.44989811105039023698E-01
    0.44989800883720829083E-01
    0.44989796568554840661E-01
    0.44989802017304687809E-01
    0.44989799396230323314E-01
    0.44989811310575673897E-01
    0.44989814027919149131E-01
    0.44989860281651541940E-01
    0.44989874187857076260E-01
    0.44989898069243104695E-01
    0.44989907786761540454E-01
    0.44989892709492357303E-01
    0.44989903901010326603E-01
    0.44989885017972540415E-01
    0.44989867069187935988E-01
    0.44989848416359841388E-01
    0.44989839944867444921E-01
    0.44989849522076311161E-01
    0.44989843191058080663E-01
    0.44989866705135314606E-01
    0.44989871985646849584E-01
    0.44989838588165076416E-01
    0.44989843972853833798E-01
    0.44989862949611630905E-01
    0.44989865483347817043E-01
    0.44989848610762758763E-01
    0.44989849580328623857E-01
    0.44989832943458180070E-01
    0.44989825599668686884E-01
    0.44989811999672585374E-01
    0.44989809951149498102E-01
    0.44989821339081803586E-01
    0.44989822613382211836E-01
    0.44989833037906032387E-01
    0.44989834339662533591E-01
    0.44989902121670449775E-01
    0.44989914537286151974E-01
    0.44989947261126296552E-01
    0.44989954044378464848E-01
    0.44989926992128587147E-01
    0.44989931320960331596E-01
    0.44989903190914885822E-01
    0.44989888381693210473E-01
    0.44989864348258822024E-01
    0.44989858906095178681E-01
    0.44989876973584447262E-01
    0.44989875951568371326E-01
    0.44989898125840921406E-01
    0.44989901616181771082E-01
    0.44989831650561314114E-01
    0.44989825609330624800E-01
    0.44989834533352722479E-01
    0.44989829504569547880E-01
    0.44989816017149283911E-01
    0.44989809133000970010E-01
    0.44989799396231655582E-01
    0.44989802017305811910E-01
    0.44989796568556381096E-01
    0.44989800883722071145E-01
    0.44989811105040987405E-01
    0.44989820992165793778E-01
    0.44989814027921029571E-01
    0.44989811310577325354E-01
    0.44989849580330691647E-01
    0.44989848610764347769E-01
    0.44989865483349357478E-01
    0.44989862949612803578E-01
    0.44989843972854728915E-01
    0.44989838588165409483E-01
    0.44989822613382600414E-01
    0.44989821339082448903E-01
    0.44989809951150483425E-01
    0.44989811999673584575E-01
    0.44989825599670137113E-01
    0.44989832943460018877E-01
    0.44989834339663824225E-01
    0.44989833037907059343E-01
    0.44989903901014968723E-01
    0.44989892709496541456E-01
    0.44989907786765870323E-01
    0.44989898069247059864E-01
    0.44989874187860490196E-01
    0.44989860281654359131E-01
    0.44989843191060627237E-01
    0.44989849522079211619E-01
    0.44989839944870289867E-01
    0.44989848416362936134E-01
    0.44989867069191620541E-01
    0.44989885017976780079E-01
    0.44989871985650513320E-01
    0.44989866705138721603E-01
    0.44989931320964536565E-01
    0.44989926992132174555E-01
    0.44989954044382170217E-01
    0.44989947261129384359E-01
    0.44989914537288865082E-01
    0.44989902121672399604E-01
    0.44989875951570279522E-01
    0.44989876973586764852E-01
    0.44989858906097593416E-01
    0.44989864348261507376E-01
    0.44989888381696450936E-01
    0.44989903190918688336E-01
    0.44989901616184879707E-01
    0.44989898125843766352E-01
    0.44989896330114464984E-01
    0.44989900515251785018E-01
    0.44989928689824223995E-01
    0.44989928689823918684E-01
    0.44989900515251382562E-01
    0.44989896330113340883E-01
    0.44989870660464080510E-01
    0.44989864712826010962E-01
    0.44989845025125145550E-01
    0.44989845025125249633E-01
    0.44989864712826489745E-01
    0.44989870660464989505E-01
    0.44989880979980856335E-01
    0.44989880979980731435E-01
    0.44989983419197243641E-01
    0.44989995844433403049E-01
    0.44990043342856819719E-01
    0.44990047783840581008E-01
    0.44990003571930503590E-01
    0.44990001239195935578E-01
    0.44989958667124727021E-01
    0.44989944907620621484E-01
    0.44989911245389327399E-01
    0.44989908238193029866E-01
    0.44989938275766014342E-01
    0.44989942813949523881E-01
    0.44989967072562531136E-01
    0.44989969174794405826E-01
    0.44990001239199106653E-01
    0.44990003571933050164E-01
    0.44990047783842912477E-01
    0.44990043342858700159E-01
    0.44989995844434756134E-01
    0.44989983419197902836E-01
    0.44989942813949967970E-01
    0.44989938275767228648E-01
    0.44989908238194334378E-01
    0.44989911245391207839E-01
    0.44989944907622855808E-01
    0.44989958667127787073E-01
    0.44989969174796418105E-01
    0.44989967072564189532E-01
    0.44990128709004068019E-01
    0.44990140497377005546E-01
    0.44990212168152000916E-01
    0.44990212168151522132E-01
    0.44990140497376367168E-01
    0.44990128709002367990E-01
    0.44990063610180916487E-01
    0.44990049599938651548E-01
    0.44989999958665656543E-01
    0.44989999958665885527E-01
    0.44990049599939359315E-01
    0.44990063610182380593E-01
    0.44990091128359888106E-01
    0.44990091128359700756E-01
    0.44989952288485970944E-01
    0.44989977342179923725E-01
    0.44990018796771939769E-01
    0.44990036225376665857E-01
    0.44990010426236570762E-01
    0.44990030217881567254E-01
    0.44989997565114882294E-01
    0.44989966131240177738E-01
    0.44989933599749662441E-01
    0.44989918559589975322E-01
    0.44989934922816131324E-01
    0.44989923114298377427E-01
    0.44989964939649039477E-01
    0.44989974352650570488E-01
    0.44990113698300505940E-01
    0.44990157554714367560E-01
    0.44990229800464610899E-01
    0.44990259913876111397E-01
    0.44990214800912246840E-01
    0.44990248518903694364E-01
    0.44990192244487151041E-01
    0.44990138060493761740E-01
    0.44990081721009433924E-01
    0.44990055652278392040E-01
    0.44990083884189742414E-01
    0.44990063040027020169E-01
    0.44990136042236922309E-01
    0.44990152364331729984E-01
    0.44990016730133641776E-01
    0.44990041103540261147E-01
    0.44990098004524241293E-01
    0.44990111995734341499E-01
    0.44990066438351329625E-01
    0.44990075795498685185E-01
    0.44990027208998799313E-01
    0.44990000301221889922E-01
    0.44989958629134130241E-01
    0.44989947913934666412E-01
    0.44989977519796130190E-01
    0.44989972805934121125E-01
    0.44990014781629728002E-01
    0.44990021824029842457E-01
    0.44990221068491667578E-01
    0.44990266142200849298E-01
    0.44990366227069554517E-01
    0.44990392034718044989E-01
    0.44990312522824163488E-01
    0.44990329259510040971E-01
    0.44990244497187657780E-01
    0.44990197101828159620E-01
    0.44990124455371309498E-01
    0.44990105027695181938E-01
    0.44990155655409695690E-01
    0.44990145323590864657E-01
    0.44990221196680890703E-01
    0.44990234050653998832E-01
    0.44990394310273879031E-01
    0.44990468938699498813E-01
    0.44990593359522434991E-01
    0.44990642879115354258E-01
    0.44990564139001223976E-01
    0.44990619249484206654E-01
    0.44990523994779763051E-01
    0.44990432609381882101E-01
    0.44990336683080542346E-01
    0.44990292230100835391E-01
    0.44990341280316863137E-01
    0.44990306235299627746E-01
    0.44990430605047891655E-01
    0.44990457921405012376E-01
    0.44990873896091299056E-01
    0.44990995372291134324E-01
    0.44991206029493115148E-01
    0.44991282453940545372E-01
    0.44991145867685225501E-01
    0.44991230963829127731E-01
    0.44991074437439500244E-01
    0.44990925212181419324E-01
    0.44990765768016444115E-01
    0.44990692456779314556E-01
    0.44990776971616928959E-01
    0.44990721329363853043E-01
    0.44990926376055742630E-01
    0.44990970125311828542E-01
    0.44990584912302004905E-01
    0.44990664729873501571E-01
    0.44990842353960315558E-01
    0.44990886235105796709E-01
    0.44990743517052525502E-01
    0.44990768688454425839E-01
    0.44990620340804317323E-01
    0.44990540108414509013E-01
    0.44990413530626709171E-01
    0.44990380269433472016E-01
    0.44990469332691525317E-01
    0.44990451066576390982E-01
    0.44990584491807858458E-01
    0.44990606395632404269E-01
    0.44991229055613791987E-01
    0.44991363766230876853E-01
    0.44991677734762189345E-01
    0.44991744856823695509E-01
    0.44991486007753891951E-01
    0.44991515010620805604E-01
    0.44991257073271437306E-01
    0.44991127999788951830E-01
    0.44990909817166663265E-01
    0.44990856347213503685E-01
    0.44991015980815514397E-01
    0.44990989760815405796E-01
    0.44991215750508205262E-01
    0.44991250056205203678E-01
    0.44990139372831458586E-01
    0.44990166366346243110E-01
    0.44990247730882768074E-01
    0.44990260272601820257E-01
    0.44990187727130218076E-01
    0.44990188737190010826E-01
    0.44990116083662712310E-01
    0.44990088672801693825E-01
    0.44990030660126634210E-01
    0.44990022587314694447E-01
    0.44990070769778123250E-01
    0.44990073004882363827E-01
    0.44990121367206724334E-01
    0.44990127106111228728E-01
    0.44990418061893806823E-01
    0.44990472150546051422E-01
    0.44990615723327173625E-01
    0.44990643439538041681E-01
    0.44990518477883677251E-01
    0.44990524608678576779E-01
    0.44990397053550089390E-01
    0.44990345862774332175E-01
    0.44990243877157998220E-01
    0.44990226923166752593E-01
    0.44990307780581634267E-01
    0.44990305452404490139E-01
    0.44990397954173533268E-01
    0.44990410309232682640E-01
    0.44990349953922335879E-01
    0.44990379882732446648E-01
    0.44990498741792776805E-01
    0.44990508569343834466E-01
    0.44990395978327456239E-01
    0.44990386857812071641E-01
    0.44990278674322627117E-01
    0.44990247651786455241E-01
    0.44990163764693259785E-01
    0.44990158112624703546E-01
    0.44990234733606963846E-01
    0.44990247605146180265E-01
    0.44990306364054266641E-01
    0.44990310608883025967E-01
    0.44990738081750608623E-01
    0.44990804772408549139E-01
    0.44991009914347512844E-01
    0.44991041660012331960E-01
    0.44990855490648316850E-01
    0.44990853739000330469E-01
    0.44990666029522896618E-01
    0.44990602347567514030E-01
    0.44990456230384792691E-01
    0.44990439474381159479E-01
    0.44990563034443244173E-01
    0.44990571250645594592E-01
    0.44990689686125948099E-01
    0.44990702862860561251E-01
    0.44990924017497428700E-01
    0.44991027540244289684E-01
    0.44991287002869202738E-01
    0.44991340452616795931E-01
    0.44991115805946120532E-01
    0.44991126780332860169E-01
    0.44990898149320855681E-01
    0.44990806644038469631E-01
    0.44990624879951014725E-01
    0.44990593121894378870E-01
    0.44990734774358512316E-01
    0.44990725361088973466E-01
    0.44990897239060780033E-01
    0.44990920679765324108E-01
    0.44991850982202943876E-01
    0.44992040026268123598E-01
    0.44992514955994648840E-01
    0.44992606651010472185E-01
    0.44992190713481337860E-01
    0.44992196614925622500E-01
    0.44991783303614835132E-01
    0.44991628509299365357E-01
    0.44991303100761652345E-01
    0.44991249247684307611E-01
    0.44991506315119236814E-01
    0.44991489791785292673E-01
    0.44991799799360979173E-01
    0.44991839758076364320E-01
    0.44991443307838843713E-01
    0.44991584392471417608E-01
    0.44991955457158304410E-01
    0.44992030704838856248E-01
    0.44991703320540664401E-01
    0.44991713773543454136E-01
    0.44991375016990679814E-01
    0.44991251156334996497E-01
    0.44990988005388442283E-01
    0.44990950017408756767E-01
    0.44991160512239961045E-01
    0.44991156467184219292E-01
    0.44991392185874001797E-01
    0.44991422875845975271E-01
    0.44992765303737164428E-01
    0.44993048132792153038E-01
    0.44993741551586065308E-01
    0.44993894040235460352E-01
    0.44993286857852435312E-01
    0.44993306743745603571E-01
    0.44992679350554176665E-01
    0.44992450521113239170E-01
    0.44991966460557475394E-01
    0.44991891952096359220E-01
    0.44992270961346003677E-01
    0.44992245946675210599E-01
    0.44992702576085882860E-01
    0.44992763852693046234E-01
    0.44990030217889012687E-01
    0.44990010426243440267E-01
    0.44990036225383840673E-01
    0.44990018796778503962E-01
    0.44989977342185835663E-01
    0.44989952288491050214E-01
    0.44989923114303116691E-01
    0.44989934922821328556E-01
    0.44989918559594985203E-01
    0.44989933599755067839E-01
    0.44989966131246304781E-01
    0.44989997565121765677E-01
    0.44989974352656711409E-01
    0.44989964939654937537E-01
    0.44990075795505672651E-01
    0.44990066438357741163E-01
    0.44990111995740822426E-01
    0.44990098004530243436E-01
    0.44990041103545472256E-01
    0.44990016730138082668E-01
    0.44989972805938083233E-01
    0.44989977519800813943E-01
    0.44989947913939183632E-01
    0.44989958629139195634E-01
    0.44990000301227579815E-01
    0.44990027209005356568E-01
    0.44990021824035518472E-01
    0.44990014781635064012E-01
    0.44990248518914775777E-01
    0.44990214800922655181E-01
    0.44990259913886880561E-01
    0.44990229800474769439E-01
    0.44990157554723526900E-01
    0.44990113698308777102E-01
    0.44990063040034590502E-01
    0.44990083884198006636E-01
    0.44990055652286316257E-01
    0.44990081721017913252E-01
    0.44990138060503177819E-01
    0.44990192244497545504E-01
    0.44990152364341215452E-01
    0.44990136042246033077E-01
    0.44990329259520900340E-01
    0.44990312522834183251E-01
    0.44990392034728557413E-01
    0.44990366227079185701E-01
    0.44990266142209599243E-01
    0.44990221068499210155E-01
    0.44990145323597970084E-01
    0.44990155655417453373E-01
    0.44990105027702793905E-01
    0.44990124455379428003E-01
    0.44990197101837277327E-01
    0.44990244497197677542E-01
    0.44990234050663088783E-01
    0.44990221196689619831E-01
    0.44990188737196325219E-01
    0.44990187727135602658E-01
    0.44990260272607392189E-01
    0.44990247730887410194E-01
    0.44990166366350378691E-01
    0.44990139372834470066E-01
    0.44990073004885250407E-01
    0.44990070769781696780E-01
    0.44990022587318399816E-01
    0.44990030660130790607E-01
    0.44990088672806634318E-01
    0.44990116083668471592E-01
    0.44990127106115912481E-01
    0.44990121367211040326E-01
    0.44990386857816755395E-01
    0.44990395978331244875E-01
    0.44990508569347290035E-01
    0.44990498741795607873E-01
    0.44990379882734465866E-01
    0.44990349953923390591E-01
    0.44990247605146832521E-01
    0.44990234733608837348E-01
    0.44990158112626660314E-01
    0.44990163764696160242E-01
    0.44990247651789792849E-01
    0.44990278674327248420E-01
    0.44990310608886023569E-01
    0.44990306364056771582E-01
    0.44990524608688839403E-01
    0.44990518477893183535E-01
    0.44990643439547693683E-01
    0.44990615723336215004E-01
    0.44990472150553836861E-01
    0.44990418061900551427E-01
    0.44990305452410395137E-01
    0.44990307780588621733E-01
    0.44990226923173455564E-01
    0.44990243877165582431E-01
    0.44990345862782755992E-01
    0.44990397053559831597E-01
    0.44990410309241092579E-01
    0.44990397954181443607E-01
    0.44990853739009850631E-01
    0.44990855490656414539E-01
    0.44991041660020811288E-01
    0.44991009914354590515E-01
    0.44990804772414780266E-01
    0.44990738081755118905E-01
    0.44990571250649875890E-01
    0.44990563034448545487E-01
    0.44990439474386696717E-01
    0.44990456230391016879E-01
    0.44990602347574917830E-01
    0.44990666029531542480E-01
    0.44990702862867576473E-01
    0.44990689686132422087E-01
    0.44990619249500256316E-01
    0.44990564139016357703E-01
    0.44990642879131091669E-01
    0.44990593359537228713E-01
    0.44990468938713071290E-01
    0.44990394310286153934E-01
    0.44990306235311083860E-01
    0.44990341280329089468E-01
    0.44990292230112631511E-01
    0.44990336683093046233E-01
    0.44990432609395690500E-01
    0.44990523994794896778E-01
    0.44990457921418910980E-01
    0.44990430605061339231E-01
    0.44990768688470302028E-01
    0.44990743517067673107E-01
    0.44990886235121527181E-01
    0.44990842353975407653E-01
    0.44990664729886907514E-01
    0.44990584912314175725E-01
    0.44990451066587382190E-01
    0.44990469332703543481E-01
    0.44990380269444928130E-01
    0.44990413530639039585E-01
    0.44990540108428067612E-01
    0.44990620340819235945E-01
    0.44990606395646177973E-01
    0.44990584491821111746E-01
    0.44991230963851755464E-01
    0.44991145867706791583E-01
    0.44991282453962964938E-01
    0.44991206029514542453E-01
    0.44990995372310611800E-01
    0.44990873896109201402E-01
    0.44990721329380305160E-01
    0.44990776971634553749E-01
    0.44990692456796245458E-01
    0.44990765768034346461E-01
    0.44990925212201070271E-01
    0.44991074437460976121E-01
    0.44990970125331694596E-01
    0.44990926376074977244E-01
    0.44991515010643905181E-01
    0.44991486007776006206E-01
    0.44991744856847384892E-01
    0.44991677734784608911E-01
    0.44991363766251117606E-01
    0.44991229055632055156E-01
    0.44990989760832246491E-01
    0.44991015980833264087E-01
    0.44990856347230490098E-01
    0.44990909817184482344E-01
    0.44991127999808776250E-01
    0.44991257073292788282E-01
    0.44991250056225416676E-01
    0.44991215750527883965E-01
    0.44991126780349208203E-01
    0.44991115805961288954E-01
    0.44991340452632977431E-01
    0.44991287002884058910E-01
    0.44991027540257647055E-01
    0.44990924017508995836E-01
    0.44990725361099638546E-01
    0.44990734774370093330E-01
    0.44990593121905619878E-01
    0.44990624879962942684E-01
    0.44990806644052062924E-01
    0.44990898149335836753E-01
    0.44990920679778979852E-01
    0.44990897239073915359E-01
    0.44991713773559580125E-01
    0.44991703320555659351E-01
    0.44992030704854323042E-01
    0.44991955457172758126E-01
    0.44991584392483699451E-01
    0.44991443307849425526E-01
    0.44991156467193219037E-01
    0.44991160512250723269E-01
    0.44990950017418936124E-01
    0.44990988005400078809E-01
    0.44991251156348027740E-01
    0.44991375017005882930E-01