# vtk DataFile Version 3.0
LAPLACIEN  2D
ASCII
DATASET UNSTRUCTURED_GRID
FIELD FieldData 1
TIME 1 1 double
17.1000
 POINTS        7297  float
   1.5625000000000000E-002  0.96875000000000000        0.0000000000000000     
   3.1250000000000000E-002  0.96875000000000000        0.0000000000000000     
   3.1250000000000000E-002  0.98437500000000000        0.0000000000000000     
   9.3749999999999997E-003  0.97812500000000002        0.0000000000000000     
   2.0312500000000001E-002  0.97968750000000004        0.0000000000000000     
   2.1874999999999999E-002  0.99062499999999998        0.0000000000000000     
   1.0937499999999999E-002  0.98906249999999996        0.0000000000000000     
   4.6875000000000000E-002  0.96875000000000000        0.0000000000000000     
   6.2500000000000000E-002  0.96875000000000000        0.0000000000000000     
   6.2500000000000000E-002  0.98437500000000000        0.0000000000000000     
   4.0625000000000001E-002  0.97812500000000002        0.0000000000000000     
   5.1562499999999997E-002  0.97968750000000004        0.0000000000000000     
   5.3124999999999999E-002  0.99062499999999998        0.0000000000000000     
   4.2187500000000003E-002  0.98906249999999996        0.0000000000000000     
   1.5625000000000000E-002  0.93750000000000000        0.0000000000000000     
   3.1250000000000000E-002  0.93750000000000000        0.0000000000000000     
   3.1250000000000000E-002  0.95312500000000000        0.0000000000000000     
   9.3749999999999997E-003  0.94687500000000002        0.0000000000000000     
   2.0312500000000001E-002  0.94843750000000004        0.0000000000000000     
   2.1874999999999999E-002  0.95937499999999998        0.0000000000000000     
   1.0937499999999999E-002  0.95781249999999996        0.0000000000000000     
   4.6875000000000000E-002  0.93750000000000000        0.0000000000000000     
   6.2500000000000000E-002  0.93750000000000000        0.0000000000000000     
   6.2500000000000000E-002  0.95312500000000000        0.0000000000000000     
   4.0625000000000001E-002  0.94687500000000002        0.0000000000000000     
   5.1562499999999997E-002  0.94843750000000004        0.0000000000000000     
   5.3124999999999999E-002  0.95937499999999998        0.0000000000000000     
   4.2187500000000003E-002  0.95781249999999996        0.0000000000000000     
   7.8125000000000000E-002  0.96875000000000000        0.0000000000000000     
   9.3750000000000000E-002  0.96875000000000000        0.0000000000000000     
   9.3750000000000000E-002  0.98437500000000000        0.0000000000000000     
   7.1874999999999994E-002  0.97812500000000002        0.0000000000000000     
   8.2812499999999997E-002  0.97968750000000004        0.0000000000000000     
   8.4375000000000006E-002  0.99062499999999998        0.0000000000000000     
   7.3437500000000003E-002  0.98906249999999996        0.0000000000000000     
  0.10937500000000000       0.96875000000000000        0.0000000000000000     
  0.12500000000000000       0.96875000000000000        0.0000000000000000     
  0.12500000000000000       0.98437500000000000        0.0000000000000000     
  0.10312499999999999       0.97812500000000002        0.0000000000000000     
  0.11406250000000000       0.97968750000000004        0.0000000000000000     
  0.11562500000000001       0.99062499999999998        0.0000000000000000     
  0.10468750000000000       0.98906249999999996        0.0000000000000000     
   7.8125000000000000E-002  0.93750000000000000        0.0000000000000000     
   9.3750000000000000E-002  0.93750000000000000        0.0000000000000000     
   9.3750000000000000E-002  0.95312500000000000        0.0000000000000000     
   7.1874999999999994E-002  0.94687500000000002        0.0000000000000000     
   8.2812499999999997E-002  0.94843750000000004        0.0000000000000000     
   8.4375000000000006E-002  0.95937499999999998        0.0000000000000000     
   7.3437500000000003E-002  0.95781249999999996        0.0000000000000000     
  0.10937500000000000       0.93750000000000000        0.0000000000000000     
  0.12500000000000000       0.93750000000000000        0.0000000000000000     
  0.12500000000000000       0.95312500000000000        0.0000000000000000     
  0.10312499999999999       0.94687500000000002        0.0000000000000000     
  0.11406250000000000       0.94843750000000004        0.0000000000000000     
  0.11562500000000001       0.95937499999999998        0.0000000000000000     
  0.10468750000000000       0.95781249999999996        0.0000000000000000     
   1.5625000000000000E-002  0.90625000000000000        0.0000000000000000     
   3.1250000000000000E-002  0.90625000000000000        0.0000000000000000     
   3.1250000000000000E-002  0.92187500000000000        0.0000000000000000     
   9.3749999999999997E-003  0.91562500000000002        0.0000000000000000     
   2.0312500000000001E-002  0.91718750000000004        0.0000000000000000     
   2.1874999999999999E-002  0.92812499999999998        0.0000000000000000     
   1.0937499999999999E-002  0.92656249999999996        0.0000000000000000     
   4.6875000000000000E-002  0.90625000000000000        0.0000000000000000     
   6.2500000000000000E-002  0.90625000000000000        0.0000000000000000     
   6.2500000000000000E-002  0.92187500000000000        0.0000000000000000     
   4.0625000000000001E-002  0.91562500000000002        0.0000000000000000     
   5.1562499999999997E-002  0.91718750000000004        0.0000000000000000     
   5.3124999999999999E-002  0.92812499999999998        0.0000000000000000     
   4.2187500000000003E-002  0.92656249999999996        0.0000000000000000     
   1.5625000000000000E-002  0.87500000000000000        0.0000000000000000     
   3.1250000000000000E-002  0.87500000000000000        0.0000000000000000     
   3.1250000000000000E-002  0.89062500000000000        0.0000000000000000     
   9.3749999999999997E-003  0.88437500000000002        0.0000000000000000     
   2.0312500000000001E-002  0.88593750000000004        0.0000000000000000     
   2.1874999999999999E-002  0.89687499999999998        0.0000000000000000     
   1.0937499999999999E-002  0.89531249999999996        0.0000000000000000     
   4.6875000000000000E-002  0.87500000000000000        0.0000000000000000     
   6.2500000000000000E-002  0.87500000000000000        0.0000000000000000     
   6.2500000000000000E-002  0.89062500000000000        0.0000000000000000     
   4.0625000000000001E-002  0.88437500000000002        0.0000000000000000     
   5.1562499999999997E-002  0.88593750000000004        0.0000000000000000     
   5.3124999999999999E-002  0.89687499999999998        0.0000000000000000     
   4.2187500000000003E-002  0.89531249999999996        0.0000000000000000     
   7.8125000000000000E-002  0.90625000000000000        0.0000000000000000     
   9.3750000000000000E-002  0.90625000000000000        0.0000000000000000     
   9.3750000000000000E-002  0.92187500000000000        0.0000000000000000     
   7.1874999999999994E-002  0.91562500000000002        0.0000000000000000     
   8.2812499999999997E-002  0.91718750000000004        0.0000000000000000     
   8.4375000000000006E-002  0.92812499999999998        0.0000000000000000     
   7.3437500000000003E-002  0.92656249999999996        0.0000000000000000     
  0.10937500000000000       0.90625000000000000        0.0000000000000000     
  0.12500000000000000       0.90625000000000000        0.0000000000000000     
  0.12500000000000000       0.92187500000000000        0.0000000000000000     
  0.10312499999999999       0.91562500000000002        0.0000000000000000     
  0.11406250000000000       0.91718750000000004        0.0000000000000000     
  0.11562500000000001       0.92812499999999998        0.0000000000000000     
  0.10468750000000000       0.92656249999999996        0.0000000000000000     
   7.8125000000000000E-002  0.87500000000000000        0.0000000000000000     
   9.3750000000000000E-002  0.87500000000000000        0.0000000000000000     
   9.3750000000000000E-002  0.89062500000000000        0.0000000000000000     
   7.1874999999999994E-002  0.88437500000000002        0.0000000000000000     
   8.2812499999999997E-002  0.88593750000000004        0.0000000000000000     
   8.4375000000000006E-002  0.89687499999999998        0.0000000000000000     
   7.3437500000000003E-002  0.89531249999999996        0.0000000000000000     
  0.10937500000000000       0.87500000000000000        0.0000000000000000     
  0.12500000000000000       0.87500000000000000        0.0000000000000000     
  0.12500000000000000       0.89062500000000000        0.0000000000000000     
  0.10312499999999999       0.88437500000000002        0.0000000000000000     
  0.11406250000000000       0.88593750000000004        0.0000000000000000     
  0.11562500000000001       0.89687499999999998        0.0000000000000000     
  0.10468750000000000       0.89531249999999996        0.0000000000000000     
  0.14062500000000000       0.96875000000000000        0.0000000000000000     
  0.15625000000000000       0.96875000000000000        0.0000000000000000     
  0.15625000000000000       0.98437500000000000        0.0000000000000000     
  0.13437499999999999       0.97812500000000002        0.0000000000000000     
  0.14531250000000001       0.97968750000000004        0.0000000000000000     
  0.14687500000000001       0.99062499999999998        0.0000000000000000     
  0.13593749999999999       0.98906249999999996        0.0000000000000000     
  0.17187500000000000       0.96875000000000000        0.0000000000000000     
  0.18750000000000000       0.96875000000000000        0.0000000000000000     
  0.18750000000000000       0.98437500000000000        0.0000000000000000     
  0.16562499999999999       0.97812500000000002        0.0000000000000000     
  0.17656250000000001       0.97968750000000004        0.0000000000000000     
[...]
 CELL_DATA       14336
 SCALARS Tumor_cells float
 LOOKUP_TABLE default
    0.53964743111752880300E-01
    0.53964742698301551571E-01
    0.53964745981316591950E-01
    0.53964745981315856427E-01
    0.53964742698304514479E-01
    0.53964743111750222704E-01
    0.53964740512851612497E-01
    0.53964738972794766558E-01
    0.53964737309203869575E-01
    0.53964737309186737446E-01
    0.53964738972803634465E-01
    0.53964740512847997334E-01
    0.53964740272649011632E-01
    0.53964740272646215258E-01
    0.53964753920294650236E-01
    0.53964756800367330580E-01
    0.53964764620384880756E-01
    0.53964766787667164949E-01
    0.53964760921405487137E-01
    0.53964763728085493599E-01
    0.53964757582453101725E-01
    0.53964752475266143661E-01
    0.53964747081142384888E-01
    0.53964745159987052847E-01
    0.53964748510710605633E-01
    0.53964748099824946803E-01
    0.53964753364123124735E-01
    0.53964754515700021076E-01
    0.53964763728086333205E-01
    0.53964760921405306726E-01
    0.53964766787667671488E-01
    0.53964764620384915450E-01
    0.53964756800368218759E-01
    0.53964753920293803691E-01
    0.53964748099826785610E-01
    0.53964748510708905604E-01
    0.53964745159989481460E-01
    0.53964747081140310159E-01
    0.53964752475267475929E-01
    0.53964757582452969886E-01
    0.53964754515700777415E-01
    0.53964753364122999835E-01
    0.53964778261528636993E-01
    0.53964779525123914017E-01
    0.53964791776191164963E-01
    0.53964791776191047001E-01
    0.53964779525124018100E-01
    0.53964778261528165149E-01
    0.53964767410213582144E-01
    0.53964764319621764954E-01
    0.53964756258013328594E-01
    0.53964756258012468171E-01
    0.53964764319622403332E-01
    0.53964767410213408672E-01
    0.53964770975773783401E-01
    0.53964770975773602990E-01
    0.53964782845083894558E-01
    0.53964790650313163023E-01
    0.53964805945277312393E-01
    0.53964811646896079789E-01
    0.53964801526062283754E-01
    0.53964808375283057629E-01
    0.53964796289008083729E-01
    0.53964785078274568608E-01
    0.53964773489117545680E-01
    0.53964768595752235503E-01
    0.53964774775211540869E-01
    0.53964771803964917130E-01
    0.53964785312016726182E-01
    0.53964788393495388696E-01
    0.53964840850402651107E-01
    0.53964856621310265672E-01
    0.53964883709809938206E-01
    0.53964894730992446492E-01
    0.53964877626996268778E-01
    0.53964890318731209562E-01
    0.53964868900426496423E-01
    0.53964848543674580339E-01
    0.53964827388584504786E-01
    0.53964817781374276040E-01
    0.53964828644279018433E-01
    0.53964821465477978701E-01
    0.53964848132423366700E-01
    0.53964854121074670723E-01
    0.53964816254913013094E-01
    0.53964822361979497556E-01
    0.53964843887173631620E-01
    0.53964846759873487392E-01
    0.53964827619724049790E-01
    0.53964828716229519545E-01
    0.53964809846333554322E-01
    0.53964801519760692561E-01
    0.53964786096304867558E-01
    0.53964783774189756249E-01
    0.53964796690051677897E-01
    0.53964798136157385300E-01
    0.53964809958140756707E-01
    0.53964811433786653849E-01
    0.53964888323533702352E-01
    0.53964902406299794513E-01
    0.53964939531961270136E-01
    0.53964947224893429489E-01
    0.53964916529953721458E-01
    0.53964921435146001594E-01
    0.53964889522094036667E-01
    0.53964872726339853382E-01
    0.53964845464457671109E-01
    0.53964839293304880941E-01
    0.53964859790606264922E-01
    0.53964858634217384437E-01
    0.53964883784996295346E-01
    0.53964887743059568315E-01
    0.53964808375284084585E-01
    0.53964801526063019277E-01
    0.53964811646896967967E-01
    0.53964805945277999344E-01
    0.53964790650313933240E-01
    0.53964782845084151297E-01
    0.53964771803965701225E-01
    0.53964774775211728219E-01
    0.53964768595753088987E-01
    0.53964773489117795480E-01
    0.53964785078275435970E-01
    0.53964796289008881702E-01
    0.53964788393496151975E-01
    0.53964785312017322927E-01
    0.53964828716230338335E-01
    0.53964827619724604901E-01
    0.53964846759874091076E-01
    0.53964843887174027137E-01
    0.53964822361979879195E-01
    0.53964816254913068605E-01
    0.53964798136157642039E-01
    0.53964796690051795858E-01
    0.53964783774190304422E-01
    0.53964786096305131236E-01
    0.53964801519761324000E-01
    0.53964809846334185761E-01
    0.53964811433787181205E-01
    0.53964809958141110591E-01
    0.53964890318733083063E-01
    0.53964877626997934112E-01
    0.53964894730994202032E-01
    0.53964883709811527213E-01
    0.53964856621311646512E-01
    0.53964840850403726635E-01
    0.53964821465479019535E-01
    0.53964828644280121717E-01
    0.53964817781375393202E-01
    0.53964827388585656642E-01
    0.53964848543676044446E-01
    0.53964868900428168697E-01
    0.53964854121076114013E-01
    0.53964848132424698968E-01
    0.53964921435147722439E-01
    0.53964916529955206381E-01
    0.53964947224894969924E-01
    0.53964939531962567709E-01
    0.53964902406300897797E-01
    0.53964888323534444814E-01
    0.53964858634218106082E-01
    0.53964859790607146162E-01
    0.53964839293305838508E-01
    0.53964845464458718882E-01
    0.53964872726341171771E-01
    0.53964889522095577101E-01
    0.53964887743060845071E-01
    0.53964883784997433325E-01
    0.53964881756442005523E-01
    0.53964886506290173085E-01
    0.53964918471955468371E-01
    0.53964918471955378165E-01
    0.53964886506290027368E-01
    0.53964881756441616945E-01
    0.53964852635239105028E-01
    0.53964845889368548426E-01
    0.53964823556363596124E-01
    0.53964823556363596124E-01
    0.53964845889368742715E-01
    0.53964852635239438094E-01
    0.53964864343888481468E-01
    0.53964864343888412079E-01
    0.53964980571863864489E-01
    0.53964994669899457591E-01
    0.53965048568482519575E-01
    0.53965053605925614177E-01
    0.53965003434090740020E-01
    0.53965000782064960483E-01
    0.53964952476136876514E-01
    0.53964936868068129339E-01
    0.53964898675939954042E-01
    0.53964895265624618359E-01
    0.53964929347213405619E-01
    0.53964934497637236099E-01
    0.53964962020753029504E-01
    0.53964964405136164882E-01
    0.53965000782066348262E-01
    0.53965003434091808610E-01
    0.53965053605926689706E-01
    0.53965048568483338365E-01
    0.53964994669900047397E-01
    0.53964980571864121228E-01
    0.53964934497637444266E-01
    0.53964929347213863586E-01
    0.53964895265625138776E-01
    0.53964898675940627115E-01
    0.53964936868069066089E-01
    0.53964952476138125514E-01
    0.53964964405136990611E-01
    0.53964962020753702576E-01
    0.53965145447741259821E-01
    0.53965158829127023166E-01
    0.53965240169346589960E-01
    0.53965240169346409549E-01
    0.53965158829126717854E-01
    0.53965145447740545115E-01
    0.53965071569904363158E-01
    0.53965055672911280138E-01
    0.53964999340334475486E-01
    0.53964999340334600386E-01
    0.53965055672911585449E-01
    0.53965071569905091742E-01
    0.53965102801663243637E-01
    0.53965102801663153431E-01
    0.53964945215648277288E-01
    0.53964973635685371811E-01
    0.53965020667151634981E-01
    0.53965040438681777246E-01
    0.53965011165086715361E-01
    0.53965033615794084920E-01
    0.53964996570501425066E-01
    0.53964960910853732035E-01
    0.53964924006716215310E-01
    0.53964906946256115117E-01
    0.53964925510544194120E-01
    0.53964912117312177631E-01
    0.53964959561928774190E-01
    0.53964970239767158511E-01
    0.53965128344239041147E-01
    0.53965178102242626623E-01
    0.53965260081656758751E-01
    0.53965294249143869187E-01
    0.53965243052703663895E-01
    0.53965281308382788417E-01
    0.53965217453311474516E-01
    0.53965155973374007159E-01
    0.53965092048679608183E-01
    0.53965062472104398383E-01
    0.53965094507523889145E-01
    0.53965070860895782145E-01
    0.53965153687460645782E-01
    0.53965172206426978430E-01
    0.53965018351121926687E-01
    0.53965046001491621952E-01
    0.53965110567561265509E-01
    0.53965126439142196979E-01
    0.53965074737785882764E-01
    0.53965085346480597128E-01
    0.53965030215924927881E-01
    0.53964999691243235869E-01
    0.53964952411710905011E-01
    0.53964940258334953560E-01
    0.53964973852912642704E-01
    0.53964968510120184253E-01
    0.53965016129229555208E-01
    0.53965024117361010125E-01
    0.53965250215977839110E-01
    0.53965301358451019109E-01
    0.53965414940153784429E-01
    0.53965444220381221518E-01
    0.53965353976686523951E-01
    0.53965372957569958390E-01
    0.53965276764885293515E-01
    0.53965222989631168871E-01
    0.53965140554075211043E-01
    0.53965118514250162707E-01
    0.53965175971297178747E-01
    0.53965164255721488618E-01
    0.53965250344149520711E-01
    0.53965264927027904729E-01
    0.53965446764935420809E-01
    0.53965531448788385538E-01
    0.53965672650787402387E-01
    0.53965728842721417957E-01
    0.53965639477256563405E-01
    0.53965702013670423243E-01
    0.53965593913325483888E-01
    0.53965490208871792766E-01
    0.53965381351886554384E-01
    0.53965330908853872960E-01
    0.53965386574550126830E-01
    0.53965346811398647031E-01
    0.53965487939668446704E-01
    0.53965518936902427682E-01
    0.53965991031113463849E-01
    0.53966128889800818458E-01
    0.53966367976558689279E-01
    0.53966454707267325075E-01
    0.53966299682388148284E-01
    0.53966396255499295143E-01
    0.53966218606334458163E-01
    0.53966049247757434670E-01
    0.53965868293238843101E-01
    0.53965785094420223866E-01
    0.53965881015112120156E-01
    0.53965817874002335042E-01
    0.53966050575600686690E-01
    0.53966100225012220148E-01
    0.53965663122369729454E-01
    0.53965753696677956630E-01
    0.53965955291713739450E-01
    0.53966005082161185025E-01
    0.53965843093723694923E-01
    0.53965871645468392603E-01
    0.53965703278205830185E-01
    0.53965612233069060188E-01
    0.53965468582610053028E-01
    0.53965430843382337922E-01
    0.53965531928982977961E-01
    0.53965511211783070977E-01
    0.53965662620652291026E-01
    0.53965687473879454805E-01
    0.53966394180751692256E-01
    0.53966547059761699190E-01
    0.53966903415113044729E-01
    0.53966979583433688505E-01
    0.53966685777778265753E-01
    0.53966718677242835056E-01
    0.53966425916984660238E-01
    0.53966279435124241137E-01
    0.53966031805644944230E-01
    0.53965971129425749364E-01
    0.53966152319492040335E-01
    0.53966122577842758068E-01
    0.53966379049855864314E-01
    0.53966417979030747998E-01
    0.53965157543484527924E-01
    0.53965188172665101707E-01
    0.53965280510545957093E-01
    0.53965294739194515083E-01
    0.53965212403101613103E-01
    0.53965213539504910956E-01
    0.53965131088568638051E-01
    0.53965099990276307884E-01
    0.53965034160772924754E-01
    0.53965025004302093203E-01
    0.53965079684102225388E-01
    0.53965082225280132378E-01
    0.53965137100268234516E-01
    0.53965143610308574651E-01
    0.53965473820338991096E-01
    0.53965535198704561726E-01
    0.53965698148896769359E-01
    0.53965729596682998626E-01
    0.53965587759704475301E-01
    0.53965594702571562102E-01
    0.53965449932805796551E-01
    0.53965391846982110891E-01
    0.53965276105668674722E-01
    0.53965256872343235484E-01
    0.53965348644109054077E-01
    0.53965346011401925386E-01
    0.53965450980953337534E-01
    0.53965464998349865766E-01
    0.53965396551759955979E-01
    0.53965430518263406146E-01
    0.53965565422950848018E-01
    0.53965576573599537136E-01
    0.53965448778422103748E-01
    0.53965438418522491959E-01
    0.53965315633861983546E-01
    0.53965280431316306475E-01
    0.53965185227569489879E-01
    0.53965178816270532869E-01
    0.53965265777520171619E-01
    0.53965280388310894744E-01
    0.53965347073270247824E-01
    0.53965351888934143254E-01
    0.53965837077983205838E-01
    0.53965912766581219939E-01
    0.53966145611261825965E-01
    0.53966181634869651862E-01
    0.53965970314870929936E-01
    0.53965968310642570271E-01
    0.53965755253552412374E-01
    0.53965682986498959839E-01
    0.53965517145202680782E-01
    0.53965498134617657933E-01
    0.53965638382287094144E-01
    0.53965647715800042772E-01
    0.53965782130938354244E-01
    0.53965797081933254697E-01
    0.53966048054226355146E-01
    0.53966165538534296986E-01
    0.53966460032396100510E-01
    0.53966520683585893214E-01
    0.53966265693097960343E-01
    0.53966278127223828165E-01
    0.53966018626581256645E-01
    0.53965914786908472656E-01
    0.53965708490781139073E-01
    0.53965672457676409912E-01
    0.53965833241011763877E-01
    0.53965822572721561246E-01
    0.53966017632218282740E-01
    0.53966044229680459887E-01
    0.53967100153476540991E-01
    0.53967314702265595239E-01
    0.53967853763348422325E-01
    0.53967957819323099378E-01
    0.53967485700452316744E-01
    0.53967492371547673424E-01
    0.53967023247442180711E-01
    0.53966847573850881825E-01
    0.53966478232121431469E-01
    0.53966417123060474170E-01
    0.53966708913837993511E-01
    0.53966690182640546236E-01
    0.53967042019119816632E-01
    0.53967087363128114774E-01
    0.53966637531809816264E-01
    0.53966797654329275169E-01
    0.53967218836058601650E-01
    0.53967304228355987561E-01
    0.53966932612306263428E-01
    0.53966944451356274604E-01
    0.53966559941797442868E-01
    0.53966419374401608522E-01
    0.53966120690554557349E-01
    0.53966077585193880650E-01
    0.53966316517187001844E-01
    0.53966311943601220913E-01
    0.53966579473097360531E-01
    0.53966614299289956957E-01
    0.53968138048805701368E-01
    0.53968459046118917588E-01
    0.53969246114360339139E-01
    0.53969419167326719566E-01
    0.53968729963451610165E-01
    0.53968752497649104261E-01
    0.53968040371249463572E-01
    0.53967780666664195988E-01
    0.53967231237654025855E-01
    0.53967146686113132148E-01
    0.53967576899267163948E-01
    0.53967548534308767971E-01
    0.53968066796960256770E-01
    0.53968136335625374600E-01
    0.53965033615797276811E-01
    0.53965011165089643574E-01
    0.53965040438684858115E-01
    0.53965020667154479928E-01
    0.53964973635687862874E-01
    0.53964945215650393651E-01
    0.53964912117314085827E-01
    0.53964925510546317422E-01
    0.53964906946258162090E-01
    0.53964924006718435756E-01
    0.53964960910856334120E-01
    0.53964996570504394913E-01
    0.53964970239769774474E-01
    0.53964959561931244436E-01
    0.53965085346483677997E-01
    0.53965074737788686077E-01
    0.53965126439145159887E-01
    0.53965110567563957800E-01
    0.53965046001493925665E-01
    0.53965018351123821005E-01
    0.53964968510121898160E-01
    0.53964973852914606411E-01
    0.53964940258336854817E-01
    0.53964952411713021374E-01
    0.53964999691245671420E-01
    0.53965030215927745072E-01
    0.53965024117363445677E-01
    0.53965016129231845043E-01
    0.53965281308387950954E-01
    0.53965243052708465610E-01
    0.53965294249148899886E-01
    0.53965260081661435565E-01
    0.53965178102246796898E-01
    0.53965128344242704883E-01
    0.53965070860899105876E-01
    0.53965094507527532064E-01
    0.53965062472107840075E-01
    0.53965092048683362125E-01
    0.53965155973378274579E-01
    0.53965217453316303986E-01
    0.53965172206431287483E-01
    0.53965153687464774424E-01
    0.53965372957575065416E-01
    0.53965353976691304849E-01
    0.53965444220386342422E-01
    0.53965414940158600021E-01
    0.53965301358455196323E-01
    0.53965250215981461213E-01
    0.53965164255724680509E-01
    0.53965175971300717583E-01
    0.53965118514253514193E-01
    0.53965140554078860902E-01
    0.53965222989635346085E-01
    0.53965276764889991146E-01
    0.53965264927032144393E-01
    0.53965250344153573026E-01
    0.53965213539507818352E-01
    0.53965212403104173555E-01
    0.53965294739197179619E-01
    0.53965280510548295501E-01
    0.53965188172667030719E-01
    0.53965157543485971214E-01
    0.53965082225281360562E-01
    0.53965079684103821334E-01
    0.53965025004303682210E-01
    0.53965034160774763561E-01
    0.53965099990278521391E-01
    0.53965131088571302587E-01
    0.53965143610310725708E-01
    0.53965137100270191284E-01
    0.53965438418524962205E-01
    0.53965448778424053577E-01
    0.53965576573601493904E-01
    0.53965565422952298247E-01
    0.53965430518264509430E-01
    0.53965396551760483335E-01
    0.53965280388311262505E-01
    0.53965265777521045920E-01
    0.53965178816271476558E-01
    0.53965185227570808268E-01
    0.53965280431317985688E-01
    0.53965315633864273381E-01
    0.53965351888935648994E-01
    0.53965347073271510703E-01
    0.53965594702576932806E-01
    0.53965587759709429672E-01
    0.53965729596688362391E-01
    0.53965698148901675157E-01
    0.53965535198708725062E-01
    0.53965473820342495237E-01
    0.53965346011404895232E-01
    0.53965348644112481891E-01
    0.53965256872346462069E-01
    0.53965276105672276008E-01
    0.53965391846986350555E-01
    0.53965449932810681533E-01
    0.53965464998354167880E-01
    0.53965450980957396787E-01
    0.53965968310648017303E-01
    0.53965970314875745528E-01
    0.53966181634874779705E-01
    0.53966145611266343185E-01
    0.53965912766584897553E-01
    0.53965837077986009152E-01
    0.53965647715802318729E-01
    0.53965638382290070929E-01
    0.53965498134620530635E-01
    0.53965517145206094718E-01
    0.53965682986503067664E-01
    0.53965755253557380622E-01
    0.53965797081937286195E-01
    0.53965782130942052675E-01
    0.53965702013678520932E-01
    0.53965639477264133739E-01
    0.53965728842729356052E-01
    0.53965672650794868637E-01
    0.53965531448795032998E-01
    0.53965446764941367441E-01
    0.53965346811404024674E-01
    0.53965386574555969379E-01
    0.53965330908859431014E-01
    0.53965381351892535711E-01
    0.53965490208878565126E-01
    0.53965593913333109732E-01
    0.53965518936909227798E-01
    0.53965487939674976203E-01
    0.53965871645476677643E-01
    0.53965843093731633018E-01
    0.53966005082169830886E-01
    0.53965955291721962039E-01
    0.53965753696685075935E-01
    0.53965663122376029970E-01
    0.53965511211788573520E-01
    0.53965531928988945409E-01
    0.53965430843387889037E-01
    0.53965468582616006599E-01
    0.53965612233075874182E-01
    0.53965703278213345007E-01
    0.53965687473886511660E-01
    0.53965662620659098081E-01
    0.53966396255511868418E-01
    0.53966299682400020732E-01
    0.53966454707279946923E-01
    0.53966367976570596421E-01
    0.53966128889811379454E-01
    0.53965991031122949317E-01
    0.53965817874010786614E-01
    0.53965881015121265618E-01
    0.53965785094428911361E-01
    0.53965868293248162035E-01
    0.53966049247768002606E-01
    0.53966218606346316733E-01
    0.53966100225022892167E-01
    0.53966050575610970130E-01
    0.53966718677256157732E-01
    0.53966685777791283118E-01
    0.53966979583448135283E-01
    0.53966903415126887822E-01
    0.53966547059773571637E-01
    0.53966394180762343458E-01
    0.53966122577851986797E-01
    0.53966152319501858869E-01
    0.53965971129434735232E-01
    0.53966031805654533782E-01
    0.53966279435135246223E-01
    0.53966425916996685341E-01
    0.53966417979042273501E-01
    0.53966379049867035933E-01
    0.53966278127233209549E-01
    0.53966265693106911516E-01
    0.53966520683595718688E-01
    0.53966460032405356995E-01
    0.53966165538542172631E-01
    0.53966048054233259346E-01
    0.53965822572727410733E-01
    0.53965833241018182354E-01
    0.53965672457682301033E-01
    0.53965708490787508977E-01
    0.53965914786915966661E-01
    0.53966018626589715157E-01
    0.53966044229688259204E-01
    0.53966017632225762868E-01
    0.53966944451366891111E-01
    0.53966932612316102780E-01
    0.53967304228366777541E-01
    0.53967218836068468757E-01
    0.53966797654337525514E-01
    0.53966637531816706586E-01
    0.53966311943606952439E-01
    0.53966316517193607671E-01
    0.53966077585200014632E-01
    0.53966120690561419915E-01
    0.53966419374409789478E-01
    0.53966559941806935274E-01