# vtk DataFile Version 3.0
LAPLACIEN  2D
ASCII
DATASET UNSTRUCTURED_GRID
 POINTS        7297  float
   1.5625000000000000E-002  0.96875000000000000        0.0000000000000000     
   3.1250000000000000E-002  0.96875000000000000        0.0000000000000000     
   3.1250000000000000E-002  0.98437500000000000        0.0000000000000000     
   9.3749999999999997E-003  0.97812500000000002        0.0000000000000000     
   2.0312500000000001E-002  0.97968750000000004        0.0000000000000000     
   2.1874999999999999E-002  0.99062499999999998        0.0000000000000000     
   1.0937499999999999E-002  0.98906249999999996        0.0000000000000000     
   4.6875000000000000E-002  0.96875000000000000        0.0000000000000000     
   6.2500000000000000E-002  0.96875000000000000        0.0000000000000000     
   6.2500000000000000E-002  0.98437500000000000        0.0000000000000000     
   4.0625000000000001E-002  0.97812500000000002        0.0000000000000000     
   5.1562499999999997E-002  0.97968750000000004        0.0000000000000000     
   5.3124999999999999E-002  0.99062499999999998        0.0000000000000000     
   4.2187500000000003E-002  0.98906249999999996        0.0000000000000000     
   1.5625000000000000E-002  0.93750000000000000        0.0000000000000000     
   3.1250000000000000E-002  0.93750000000000000        0.0000000000000000     
   3.1250000000000000E-002  0.95312500000000000        0.0000000000000000     
   9.3749999999999997E-003  0.94687500000000002        0.0000000000000000     
   2.0312500000000001E-002  0.94843750000000004        0.0000000000000000     
   2.1874999999999999E-002  0.95937499999999998        0.0000000000000000     
   1.0937499999999999E-002  0.95781249999999996        0.0000000000000000     
   4.6875000000000000E-002  0.93750000000000000        0.0000000000000000     
   6.2500000000000000E-002  0.93750000000000000        0.0000000000000000     
   6.2500000000000000E-002  0.95312500000000000        0.0000000000000000     
   4.0625000000000001E-002  0.94687500000000002        0.0000000000000000     
   5.1562499999999997E-002  0.94843750000000004        0.0000000000000000     
   5.3124999999999999E-002  0.95937499999999998        0.0000000000000000     
   4.2187500000000003E-002  0.95781249999999996        0.0000000000000000     
   7.8125000000000000E-002  0.96875000000000000        0.0000000000000000     
   9.3750000000000000E-002  0.96875000000000000        0.0000000000000000     
   9.3750000000000000E-002  0.98437500000000000        0.0000000000000000     
   7.1874999999999994E-002  0.97812500000000002        0.0000000000000000     
   8.2812499999999997E-002  0.97968750000000004        0.0000000000000000     
   8.4375000000000006E-002  0.99062499999999998        0.0000000000000000     
   7.3437500000000003E-002  0.98906249999999996        0.0000000000000000     
  0.10937500000000000       0.96875000000000000        0.0000000000000000     
  0.12500000000000000       0.96875000000000000        0.0000000000000000     
  0.12500000000000000       0.98437500000000000        0.0000000000000000     
  0.10312499999999999       0.97812500000000002        0.0000000000000000     
  0.11406250000000000       0.97968750000000004        0.0000000000000000     
  0.11562500000000001       0.99062499999999998        0.0000000000000000     
  0.10468750000000000       0.98906249999999996        0.0000000000000000     
   7.8125000000000000E-002  0.93750000000000000        0.0000000000000000     
   9.3750000000000000E-002  0.93750000000000000        0.0000000000000000     
   9.3750000000000000E-002  0.95312500000000000        0.0000000000000000     
   7.1874999999999994E-002  0.94687500000000002        0.0000000000000000     
   8.2812499999999997E-002  0.94843750000000004        0.0000000000000000     
   8.4375000000000006E-002  0.95937499999999998        0.0000000000000000     
   7.3437500000000003E-002  0.95781249999999996        0.0000000000000000     
  0.10937500000000000       0.93750000000000000        0.0000000000000000     
  0.12500000000000000       0.93750000000000000        0.0000000000000000     
  0.12500000000000000       0.95312500000000000        0.0000000000000000     
  0.10312499999999999       0.94687500000000002        0.0000000000000000     
  0.11406250000000000       0.94843750000000004        0.0000000000000000     
  0.11562500000000001       0.95937499999999998        0.0000000000000000     
  0.10468750000000000       0.95781249999999996        0.0000000000000000     
   1.5625000000000000E-002  0.90625000000000000        0.0000000000000000     
   3.1250000000000000E-002  0.90625000000000000        0.0000000000000000     
   3.1250000000000000E-002  0.92187500000000000        0.0000000000000000     
   9.3749999999999997E-003  0.91562500000000002        0.0000000000000000     
   2.0312500000000001E-002  0.91718750000000004        0.0000000000000000     
   2.1874999999999999E-002  0.92812499999999998        0.0000000000000000     
   1.0937499999999999E-002  0.92656249999999996        0.0000000000000000     
   4.6875000000000000E-002  0.90625000000000000        0.0000000000000000     
   6.2500000000000000E-002  0.90625000000000000        0.0000000000000000     
   6.2500000000000000E-002  0.92187500000000000        0.0000000000000000     
   4.0625000000000001E-002  0.91562500000000002        0.0000000000000000     
   5.1562499999999997E-002  0.91718750000000004        0.0000000000000000     
   5.3124999999999999E-002  0.92812499999999998        0.0000000000000000     
   4.2187500000000003E-002  0.92656249999999996        0.0000000000000000     
   1.5625000000000000E-002  0.87500000000000000        0.0000000000000000     
   3.1250000000000000E-002  0.87500000000000000        0.0000000000000000     
   3.1250000000000000E-002  0.89062500000000000        0.0000000000000000     
   9.3749999999999997E-003  0.88437500000000002        0.0000000000000000     
   2.0312500000000001E-002  0.88593750000000004        0.0000000000000000     
   2.1874999999999999E-002  0.89687499999999998        0.0000000000000000     
   1.0937499999999999E-002  0.89531249999999996        0.0000000000000000     
   4.6875000000000000E-002  0.87500000000000000        0.0000000000000000     
   6.2500000000000000E-002  0.87500000000000000        0.0000000000000000     
   6.2500000000000000E-002  0.89062500000000000        0.0000000000000000     
   4.0625000000000001E-002  0.88437500000000002        0.0000000000000000     
   5.1562499999999997E-002  0.88593750000000004        0.0000000000000000     
   5.3124999999999999E-002  0.89687499999999998        0.0000000000000000     
   4.2187500000000003E-002  0.89531249999999996        0.0000000000000000     
   7.8125000000000000E-002  0.90625000000000000        0.0000000000000000     
   9.3750000000000000E-002  0.90625000000000000        0.0000000000000000     
   9.3750000000000000E-002  0.92187500000000000        0.0000000000000000     
   7.1874999999999994E-002  0.91562500000000002        0.0000000000000000     
   8.2812499999999997E-002  0.91718750000000004        0.0000000000000000     
   8.4375000000000006E-002  0.92812499999999998        0.0000000000000000     
   7.3437500000000003E-002  0.92656249999999996        0.0000000000000000     
  0.10937500000000000       0.90625000000000000        0.0000000000000000     
  0.12500000000000000       0.90625000000000000        0.0000000000000000     
  0.12500000000000000       0.92187500000000000        0.0000000000000000     
  0.10312499999999999       0.91562500000000002        0.0000000000000000     
  0.11406250000000000       0.91718750000000004        0.0000000000000000     
  0.11562500000000001       0.92812499999999998        0.0000000000000000     
  0.10468750000000000       0.92656249999999996        0.0000000000000000     
   7.8125000000000000E-002  0.87500000000000000        0.0000000000000000     
   9.3750000000000000E-002  0.87500000000000000        0.0000000000000000     
   9.3750000000000000E-002  0.89062500000000000        0.0000000000000000     
   7.1874999999999994E-002  0.88437500000000002        0.0000000000000000     
   8.2812499999999997E-002  0.88593750000000004        0.0000000000000000     
   8.4375000000000006E-002  0.89687499999999998        0.0000000000000000     
   7.3437500000000003E-002  0.89531249999999996        0.0000000000000000     
  0.10937500000000000       0.87500000000000000        0.0000000000000000     
  0.12500000000000000       0.87500000000000000        0.0000000000000000     
  0.12500000000000000       0.89062500000000000        0.0000000000000000     
  0.10312499999999999       0.88437500000000002        0.0000000000000000     
  0.11406250000000000       0.88593750000000004        0.0000000000000000     
  0.11562500000000001       0.89687499999999998        0.0000000000000000     
  0.10468750000000000       0.89531249999999996        0.0000000000000000     
  0.14062500000000000       0.96875000000000000        0.0000000000000000     
  0.15625000000000000       0.96875000000000000        0.0000000000000000     
  0.15625000000000000       0.98437500000000000        0.0000000000000000     
  0.13437499999999999       0.97812500000000002        0.0000000000000000     
  0.14531250000000001       0.97968750000000004        0.0000000000000000     
  0.14687500000000001       0.99062499999999998        0.0000000000000000     
  0.13593749999999999       0.98906249999999996        0.0000000000000000     
  0.17187500000000000       0.96875000000000000        0.0000000000000000     
  0.18750000000000000       0.96875000000000000        0.0000000000000000     
  0.18750000000000000       0.98437500000000000        0.0000000000000000     
  0.16562499999999999       0.97812500000000002        0.0000000000000000     
  0.17656250000000001       0.97968750000000004        0.0000000000000000     
  0.17812500000000001       0.99062499999999998        0.0000000000000000     
[...]
 CELL_DATA       14336
 SCALARS Tumor_cells float
 LOOKUP_TABLE default
    0.91080261399947002633E-03
    0.90822245060903118719E-03
    0.92496745306941126168E-03
    0.92496745306013645419E-03
    0.90822245058287134033E-03
    0.91080261393528655876E-03
    0.89711789771489602787E-03
    0.88891706339130319332E-03
    0.88008646641500164892E-03
    0.88008646642370237136E-03
    0.88891706342988192555E-03
    0.89711789781861189189E-03
    0.89567474214457968099E-03
    0.89567474213515416940E-03
    0.96370785521181646493E-03
    0.97735502767766469466E-03
    0.10126685445962554499E-02
    0.10221954975268249081E-02
    0.99674426276167953087E-03
    0.10095283851289257003E-02
    0.98210600588084177170E-03
    0.95769031766628832155E-03
    0.93116724442287007041E-03
    0.92104421693693942687E-03
    0.93783668832323158031E-03
    0.93543056707108269802E-03
    0.96152973386774828399E-03
    0.96729186560812262068E-03
    0.10095283852039646337E-02
    0.99674426280125464489E-03
    0.10221954975243288579E-02
    0.10126685445988399710E-02
    0.97735502769495511723E-03
    0.96370785522079192419E-03
    0.93543056708621111304E-03
    0.93783668836209133773E-03
    0.92104421699725088322E-03
    0.93116724449066859328E-03
    0.95769031774679781385E-03
    0.98210600601164490912E-03
    0.96729186565666885715E-03
    0.96152973390692853158E-03
    0.10683193878372953482E-02
    0.10727873409593336428E-02
    0.11193383028007351104E-02
    0.11193383028164128907E-02
    0.10727873409672739058E-02
    0.10683193878439543011E-02
    0.10241550129711190879E-02
    0.10104936406766761026E-02
    0.97454460413122880654E-03
    0.97454460413454559783E-03
    0.10104936406775673167E-02
    0.10241550129712802004E-02
    0.10385455851238823820E-02
    0.10385455851249527064E-02
    0.10866867441028922690E-02
    0.11155910955317918740E-02
    0.11696571951796245776E-02
    0.11878436874053245609E-02
    0.11530186035357923181E-02
    0.11752683154124675576E-02
    0.11342223093969445308E-02
    0.10939942101696545091E-02
    0.10499098039718206699E-02
    0.10299125737965315712E-02
    0.10551532360955878220E-02
    0.10430350587718210595E-02
    0.10956488348640755059E-02
    0.11068476010074592905E-02
    0.12784358854877027681E-02
    0.13213822025150727055E-02
    0.13940764984819050114E-02
    0.14198796134501331153E-02
    0.13751710307842363902E-02
    0.14059573925840952204E-02
    0.13516573672919661876E-02
    0.12962899881622451208E-02
    0.12350480255377759790E-02
    0.12055647525767000747E-02
    0.12396269543156728920E-02
    0.12188358837195083055E-02
    0.12965394773600737600E-02
    0.13127577039079116761E-02
    0.12049833745247811624E-02
    0.12248528627324371549E-02
    0.12932557481871997940E-02
    0.13010999284497172870E-02
    0.12412756892901163214E-02
    0.12439497314000115720E-02
    0.11829630808061093999E-02
    0.11545017779482345290E-02
    0.10989350834998794226E-02
    0.10898818325052463899E-02
    0.11371252060628515759E-02
    0.11422247601680255921E-02
    0.11836710229143772820E-02
    0.11886336949392044098E-02
    0.14180980515084251441E-02
    0.14512633673306751542E-02
    0.15419213596278083522E-02
    0.15557524139257403444E-02
    0.14808216474556411876E-02
    0.14884286368736271595E-02
    0.14099787110418177550E-02
    0.13682496688232313742E-02
    0.12928985441750719815E-02
    0.12759934057973206650E-02
    0.13362664906139858686E-02
    0.13351434614513591186E-02
    0.14010744382426804089E-02
    0.14101102649882017465E-02
    0.11752683154715413971E-02
    0.11530186035752705044E-02
    0.11878436874219813757E-02
    0.11696571951866430519E-02
    0.11155910955434706830E-02
    0.10866867440953106600E-02
    0.10430350587489363706E-02
    0.10551532361213773054E-02
    0.10299125738598541822E-02
    0.10499098040398346238E-02
    0.10939942102469746039E-02
    0.11342223095213855698E-02
    0.11068476010518092309E-02
    0.10956488348969630441E-02
    0.12439497313814320330E-02
    0.12412756892845298613E-02
    0.13010999284569879468E-02
    0.12932557482108620727E-02
    0.12248528627346259422E-02
    0.12049833745139272145E-02
    0.11422247601272569884E-02
    0.11371252060445211866E-02
    0.10898818324958986156E-02
    0.10989350834920779375E-02
    0.11545017779428731492E-02
    0.11829630808043915900E-02
    0.11886336949328958710E-02
    0.11836710229071627839E-02
    0.14059573928512734270E-02
    0.13751710309981876428E-02
    0.14198796136638987524E-02
    0.13940764986557882717E-02
    0.13213822026412714531E-02
    0.12784358855478998411E-02
    0.12188358837334908272E-02
    0.12396269543979081089E-02
    0.12055647526619988133E-02
    0.12350480256622857565E-02
    0.12962899883551051716E-02
    0.13516573675876955574E-02
    0.13127577040760703489E-02
    0.12965394774991682251E-02
    0.14884286370643836413E-02
    0.14808216476299405646E-02
    0.15557524141391330160E-02
    0.15419213598292396718E-02
    0.14512633674551250838E-02
    0.14180980515714602247E-02
    0.13351434614520545259E-02
    0.13362664906580448091E-02
    0.12759934058158394887E-02
    0.12928985442316066196E-02
    0.13682496689369557253E-02
    0.14099787112074313716E-02
    0.14101102651109475271E-02
    0.14010744383479789912E-02
    0.14036137921575105470E-02
    0.14177856350143865256E-02
    0.15039031838517417840E-02
    0.15039031838508982748E-02
    0.14177856350130813631E-02
    0.14036137921561067220E-02
    0.13197825209079301016E-02
    0.12996171067282394004E-02
    0.12293475038310940246E-02
    0.12293475038292281127E-02
    0.12996171067419140088E-02
    0.13197825209514543136E-02
    0.13552314035086695469E-02
    0.13552314035064833616E-02
    0.16526419727806835290E-02
    0.16806456162290317035E-02
    0.17939408901127924453E-02
    0.17990990644058259089E-02
    0.16921443810160607425E-02
    0.16801640582546067005E-02
    0.15736441468044057822E-02
    0.15408430274346982501E-02
    0.14468571391037209073E-02
    0.14398234828182526236E-02
    0.15278649925365320010E-02
    0.15433745984555155301E-02
    0.16048505699529306678E-02
    0.16084440218523535834E-02
    0.16801640584799780714E-02
    0.16921443812095242603E-02
    0.17990990646262275138E-02
    0.17939408903003403392E-02
    0.16806456163583904668E-02
    0.16526419728594594905E-02
    0.15433745984573792737E-02
    0.15278649925906913690E-02
    0.14398234828521178953E-02
    0.14468571391723927550E-02
    0.15408430275769353836E-02
    0.15736441470293790340E-02
    0.16084440219931983845E-02
    0.16048505700716362773E-02
    0.19792780527456499753E-02
    0.20069216276254121974E-02
    0.21472125366366399783E-02
    0.21472125366028831268E-02
    0.20069216275587086103E-02
    0.19792780525913840524E-02
    0.18411612559643478204E-02
    0.18123658396197574270E-02
    0.16953875194709213791E-02
    0.16953875195104902047E-02
    0.18123658396990106542E-02
    0.18411612561527474635E-02
    0.19056833967177942788E-02
    0.19056833966965595287E-02
    0.15364007392458048102E-02
    0.15918121143171655007E-02
    0.16825480014734637852E-02
    0.17146760547198612850E-02
    0.16598131962508111750E-02
    0.16979360442365371096E-02
    0.16311246216657857618E-02
    0.15616908216198679710E-02
    0.14841054042851575378E-02
    0.14457345328710595120E-02
    0.14888128988587157053E-02
    0.14605960489966218502E-02
    0.15613763341162404871E-02
    0.15820626760416958961E-02
    0.18561986502369021753E-02
    0.19220062831287179281E-02
    0.20295606048129871506E-02
    0.20664011190398147259E-02
    0.20014446156944396688E-02
    0.20453519874760023832E-02
    0.19672694052728992298E-02
    0.18853836334079693282E-02
    0.17928380356522167962E-02
    0.17464737492941717536E-02
    0.17985041551110319061E-02
    0.17643943284358348106E-02
    0.18854211521121481531E-02
    0.19098433286583807195E-02
    0.17048616413956670535E-02
    0.17488459314275433404E-02
    0.18616327989146354022E-02
    0.18793530428405660036E-02
    0.17878011693999110859E-02
    0.17979009338241556514E-02
    0.17017876094723789933E-02
    0.16487070216426266168E-02
    0.15538554386710905914E-02
    0.15304967825389632127E-02
    0.16053039690711386374E-02
    0.16004867619803476650E-02
    0.16877269687836746626E-02
    0.16998190167980514308E-02
    0.20604489408160217567E-02
    0.21122798075489434069E-02
    0.22463310705285572354E-02
    0.22655448272572379503E-02
    0.21563171744893240740E-02
    0.21661908066697176979E-02
    0.20528188193191581820E-02
    0.19908118955039360784E-02
    0.18773779036106662786E-02
    0.18492318420694970390E-02
    0.19397279417198841790E-02
    0.19339898946184235027E-02
    0.20385350974303161585E-02
    0.20525006788533789633E-02
    0.22309996351858821934E-02
    0.23045292251583681178E-02
    0.24268803185301295391E-02
    0.24664483920394473376E-02
    0.23918799482164515048E-02
    0.24396078905941820554E-02
    0.23520985109023897879E-02
    0.22600417115836708530E-02
    0.21546376319988170406E-02
    0.21015525871537796103E-02
    0.21621283961570469771E-02
    0.21240134764776404455E-02
    0.22614261434230073858E-02
    0.22886309163412210492E-02
    0.26509943408821443935E-02
    0.27289000424916176786E-02
    0.28631134453876842284E-02
    0.29030384456861205340E-02
    0.28198312665680771473E-02
    0.28689831237211833349E-02
    0.27745581371788983344E-02
    0.26753549959445139389E-02
    0.25600186110604542487E-02
    0.25019248464607938068E-02
    0.25702243300616141840E-02
    0.25303881025602959279E-02
    0.26791494319841576734E-02
    0.27079403024048735379E-02
    0.24773191891662967382E-02
    0.25334299944166660014E-02
    0.26869428540881373432E-02
    0.27049279420827778732E-02
    0.25775793990668585329E-02
    0.25842144835628356493E-02
    0.24547475026425328096E-02
    0.23868481517144396302E-02
    0.22565628390593126321E-02
    0.22256235276312806050E-02
    0.23324784546293110023E-02
    0.23288729657411459673E-02
    0.24456922300048694954E-02
    0.24601559971164877957E-02
    0.29446211874624796979E-02
    0.30008113163035089223E-02
    0.31708935201605129017E-02
    0.31846198161484154214E-02
    0.30394518640027620021E-02
    0.30395778987335701077E-02
    0.28960529911077146498E-02
    0.28259474809098450269E-02
    0.26814931745122736265E-02
    0.26501133163649476417E-02
    0.27733776510636401133E-02
    0.27752319367689696518E-02
    0.28981518494287654593E-02
    0.29115413770783604187E-02
    0.19878209321740245540E-02
    0.20262326638008222417E-02
    0.21669622616886990638E-02
    0.21743387937679342463E-02
    0.20438359501506529574E-02
    0.20303260003893229546E-02
    0.19000366148219116104E-02
    0.18574299880740646924E-02
    0.17395591245573912079E-02
    0.17277112685436649998E-02
    0.18362999498297883933E-02
    0.18509823522402666165E-02
    0.19340679595424628816E-02
    0.19397538335523371866E-02
    0.24035864250886627112E-02
    0.24484416383989513095E-02
    0.26159781961898336163E-02
    0.26223282658100134819E-02
    0.24661725647988196747E-02
    0.24471734880431674809E-02
    0.22927822656420922438E-02
    0.22437209574734523487E-02
    0.21025383806895091461E-02
    0.20883595106933766118E-02
    0.22198147308404789224E-02
    0.22377293747657752039E-02
    0.23371002933312520246E-02
    0.23432112135749060162E-02
    0.23819917712317394652E-02
    0.24208976010622624414E-02
    0.25950813205225758788E-02
    0.25964354291374003303E-02
    0.24253057842398870018E-02
    0.23929968297832504565E-02
    0.22241485602464017984E-02
    0.21858617850025359453E-02
    0.20393987961106288011E-02
    0.20354224646171995873E-02
    0.21793854519877890394E-02
    0.22093039109280609815E-02
    0.22978291351025467021E-02
    0.22994261594353553567E-02
    0.28817201725179391117E-02
    0.29268590817961141239E-02
    0.31344203920979827292E-02
    0.31329819921206932855E-02
    0.29279387321627164606E-02
    0.28857069711241732993E-02
    0.26851718386125622909E-02
    0.26417647170841850046E-02
    0.24661603042562970332E-02
    0.24615494787244072798E-02
    0.26359137255609777634E-02
    0.26723285181696056038E-02
    0.27780861524073089189E-02
    0.27791006963782624063E-02
    0.28912079534588503056E-02
    0.29379054334386276413E-02
    0.31304878537121265392E-02
    0.31322493749898639576E-02
    0.29491563214783904356E-02
    0.29204936684994299914E-02
    0.27426269708435953645E-02
    0.26910676464539000710E-02
    0.25281089666157391047E-02
    0.25143916699835767992E-02
    0.26703852328633132136E-02
    0.26958318706086564429E-02
    0.28050542015539857085E-02
    0.28097383909569712164E-02
    0.34380878246576466843E-02
    0.34813679431551984404E-02
    0.36959065399156882173E-02
    0.36892467253304733928E-02
    0.34789573588831289135E-02
    0.34363289483873011958E-02
    0.32367428401043184943E-02
    0.31872647646895577514E-02
    0.30052059688049324870E-02
    0.29950585753329562848E-02
    0.31764150154037166379E-02
    0.32138870505095339623E-02
    0.33253168807055822828E-02
    0.33265487576386279685E-02
    0.34680831383552767309E-02
    0.35136927349941056258E-02
    0.37527340508723742128E-02
    0.37440108081373407733E-02
    0.35030288044287862144E-02
    0.34454385425730965804E-02
    0.32134619215060632180E-02
    0.31699644221173566352E-02
    0.29667265572967884031E-02
    0.29651465342009080024E-02
    0.31725006702255456083E-02
    0.32210224096110035702E-02
    0.33359623212318514907E-02
    0.33340181634801727660E-02
    0.41260555920595342119E-02
    0.41656277631304441250E-02
    0.44326240066827476971E-02
    0.44118484624151481713E-02
    0.41342270117471742810E-02
    0.40557988014292998755E-02
    0.37940576218279974986E-02
    0.37561558049792960652E-02
    0.35281829345521326623E-02
    0.35336107309325171660E-02
    0.37754475932921848294E-02
    0.38418444009831725222E-02
    0.39565364971463267904E-02
    0.39490832735473730547E-02
    0.16979360449397690701E-02
    0.16598131968634519725E-02
    0.17146760553569848854E-02
    0.16825480020370509396E-02
    0.15918121147739322865E-02
    0.15364007395815785367E-02
    0.14605960492387133533E-02
    0.14888128992067502405E-02
    0.14457345331981971345E-02
    0.14841054046864079682E-02
    0.15616908221502143542E-02
    0.16311246223588112599E-02
    0.15820626765529958828E-02
    0.15613763345777801478E-02
    0.17979009344522118522E-02
    0.17878011699792603715E-02
    0.18793530434910270255E-02
    0.18616327995226360312E-02
    0.17488459318945751356E-02
    0.17048616417471118382E-02
    0.16004867622187316303E-02
    0.16053039693865675270E-02
    0.15304967828011272011E-02
    0.15538554390044203093E-02
    0.16487070220930128729E-02
    0.17017876100284478561E-02
    0.16998190172690008821E-02
    0.16877269692182352533E-02
    0.20453519888710548595E-02
    0.20014446169563729350E-02
    0.20664011203543504458E-02
    0.20295606060160950763E-02
    0.19220062841579410758E-02
    0.18561986510837087411E-02
    0.17643943291353399346E-02
    0.17985041559596989628E-02
    0.17464737500947325431E-02
    0.17928380365653695961E-02
    0.18853836345180756927E-02
    0.19672694066134696796E-02
    0.19098433297561698968E-02
    0.18854211531374061566E-02
    0.21661908079921676600E-02
    0.21563171757283637608E-02
    0.22655448286039978935E-02
    0.22463310717993839952E-02
    0.21122798086060361883E-02
    0.20604489416973259010E-02
    0.19339898953281654467E-02
    0.19397279425447521307E-02
    0.18492318428074939422E-02
    0.18773779044565560431E-02
    0.19908118965358779714E-02
    0.20528188205163160063E-02
    0.20525006799194805973E-02
    0.20385350984392439089E-02
    0.20303260010731448773E-02
    0.20438359507706999399E-02
    0.21743387944479970232E-02
    0.21669622623029338553E-02
    0.20262326642914848737E-02
    0.19878209325595026617E-02
    0.18509823524946952562E-02
    0.18362999501719461191E-02
    0.17277112688363922138E-02
    0.17395591249171507391E-02
    0.18574299885716135262E-02
    0.19000366154581899668E-02
    0.19397538340604056004E-02
    0.19340679600086260140E-02
    0.23929968304172333400E-02
    0.24253057847488973704E-02
    0.25964354296445879382E-02
    0.25950813209250226180E-02
    0.24208976013652518458E-02
    0.23819917713877231981E-02
    0.22093039109963344933E-02
    0.21793854522058624286E-02
    0.20354224648472659873E-02
    0.20393987964567000630E-02
    0.21858617854525063014E-02
    0.22241485608654521823E-02
    0.22994261598373046639E-02
    0.22978291354402609337E-02
    0.24471734894503335313E-02
    0.24661725661069039579E-02
    0.26223282672167111569E-02
    0.26159781974955135728E-02
    0.24484416395081066119E-02
    0.24035864260326320063E-02
    0.22377293755168861829E-02
    0.22198147317165389976E-02
    0.20883595114835683086E-02
    0.21025383815830821221E-02
    0.22437209585779772404E-02
    0.22927822669477136534E-02
    0.23432112147050701209E-02
    0.23371002943984317893E-02
    0.28857069725101969736E-02
    0.29279387333839843391E-02
    0.31329819933763507558E-02
    0.31344203932101083118E-02
    0.29268590827352062439E-02
    0.28817201732455367813E-02
    0.26723285187498545604E-02
    0.26359137263329375164E-02
    0.24615494794753339444E-02
    0.24661603051623673909E-02
    0.26417647181665071705E-02
    0.26851718399285551785E-02
    0.27791006974246081421E-02
    0.27780861533670021812E-02
    0.24396078929649579400E-02
    0.23918799504082711473E-02
    0.24664483943168716805E-02
    0.24268803206544567290E-02
    0.23045292270334276873E-02
    0.22309996368094320122E-02
    0.21240134778932944978E-02
    0.21621283977692543066E-02
    0.21015525886879460674E-02
    0.21546376336887560279E-02
    0.22600417135459141549E-02
    0.23520985131696829119E-02
    0.22886309182989796572E-02
    0.22614261452826912337E-02
    0.25842144858691756641E-02
    0.25775794012502569602E-02
    0.27049279444154544598E-02
    0.26869428563068968076E-02
    0.25334299963405510978E-02
    0.24773191908478765268E-02
    0.23288729671861311578E-02
    0.23324784562303089823E-02
    0.22256235291070445605E-02
    0.22565628406839548931E-02
    0.23868481536023023262E-02
    0.24547475047626571981E-02
    0.24601559990543708095E-02
    0.24456922318626681326E-02
    0.28689831273633974694E-02
    0.28198312700030551438E-02
    0.29030384492655281377E-02
    0.28631134487539888593E-02
    0.27289000455192986491E-02
    0.26509943435810796528E-02
    0.25303881049820280136E-02
    0.25702243327310626136E-02
    0.25019248490167618308E-02
    0.25600186138181576026E-02
    0.26753549990564573675E-02
    0.27745581406690839055E-02
    0.27079403055267482585E-02
    0.26791494349811531203E-02
    0.30395779023289297947E-02
    0.30394518674493834626E-02
    0.31846198198062715574E-02
    0.31708935236494616150E-02
    0.30008113194053658013E-02
    0.29446211902469866979E-02
    0.27752319392437907811E-02
    0.27733776537399970792E-02
    0.26501133188733178893E-02
    0.26814931772148995100E-02
    0.28259474839615107179E-02
    0.28960529944650772148E-02
    0.29115413801985407481E-02
    0.28981518524431558459E-02
    0.29204936709232940523E-02
    0.29491563237642411978E-02
    0.31322493774164072988E-02
    0.31304878559991074737E-02
    0.29379054354482874410E-02
    0.28912079552386497037E-02
    0.26958318721269527822E-02
    0.26703852345462816484E-02
    0.25143916715403484378E-02
    0.25281089683147290118E-02
    0.26910676484443443388E-02
    0.27426269731041070209E-02
    0.28097383929913052891E-02
    0.28050542035025520168E-02
    0.34454385450067050167E-02
    0.35030288066552057839E-02
    0.37440108104364361492E-02
    0.37527340529866634253E-02
    0.35136927368562540820E-02
    0.34680831399381273350E-02
    0.32210224109809025561E-02
    0.31725006718309346071E-02
    0.29651465357479205205E-02
    0.29667265590408945647E-02
    0.31699644241167468720E-02
    0.32134619238086215356E-02