# vtk DataFile Version 3.0
LAPLACIEN  2D
ASCII
DATASET UNSTRUCTURED_GRID
 POINTS        7297  float
   1.5625000000000000E-002  0.96875000000000000        0.0000000000000000     
   3.1250000000000000E-002  0.96875000000000000        0.0000000000000000     
   3.1250000000000000E-002  0.98437500000000000        0.0000000000000000     
   9.3749999999999997E-003  0.97812500000000002        0.0000000000000000     
   2.0312500000000001E-002  0.97968750000000004        0.0000000000000000     
   2.1874999999999999E-002  0.99062499999999998        0.0000000000000000     
   1.0937499999999999E-002  0.98906249999999996        0.0000000000000000     
   4.6875000000000000E-002  0.96875000000000000        0.0000000000000000     
   6.2500000000000000E-002  0.96875000000000000        0.0000000000000000     
   6.2500000000000000E-002  0.98437500000000000        0.0000000000000000     
   4.0625000000000001E-002  0.97812500000000002        0.0000000000000000     
   5.1562499999999997E-002  0.97968750000000004        0.0000000000000000     
   5.3124999999999999E-002  0.99062499999999998        0.0000000000000000     
   4.2187500000000003E-002  0.98906249999999996        0.0000000000000000     
   1.5625000000000000E-002  0.93750000000000000        0.0000000000000000     
   3.1250000000000000E-002  0.93750000000000000        0.0000000000000000     
   3.1250000000000000E-002  0.95312500000000000        0.0000000000000000     
   9.3749999999999997E-003  0.94687500000000002        0.0000000000000000     
   2.0312500000000001E-002  0.94843750000000004        0.0000000000000000     
   2.1874999999999999E-002  0.95937499999999998        0.0000000000000000     
   1.0937499999999999E-002  0.95781249999999996        0.0000000000000000     
   4.6875000000000000E-002  0.93750000000000000        0.0000000000000000     
   6.2500000000000000E-002  0.93750000000000000        0.0000000000000000     
   6.2500000000000000E-002  0.95312500000000000        0.0000000000000000     
   4.0625000000000001E-002  0.94687500000000002        0.0000000000000000     
   5.1562499999999997E-002  0.94843750000000004        0.0000000000000000     
   5.3124999999999999E-002  0.95937499999999998        0.0000000000000000     
   4.2187500000000003E-002  0.95781249999999996        0.0000000000000000     
   7.8125000000000000E-002  0.96875000000000000        0.0000000000000000     
   9.3750000000000000E-002  0.96875000000000000        0.0000000000000000     
   9.3750000000000000E-002  0.98437500000000000        0.0000000000000000     
   7.1874999999999994E-002  0.97812500000000002        0.0000000000000000     
   8.2812499999999997E-002  0.97968750000000004        0.0000000000000000     
   8.4375000000000006E-002  0.99062499999999998        0.0000000000000000     
   7.3437500000000003E-002  0.98906249999999996        0.0000000000000000     
  0.10937500000000000       0.96875000000000000        0.0000000000000000     
  0.12500000000000000       0.96875000000000000        0.0000000000000000     
  0.12500000000000000       0.98437500000000000        0.0000000000000000     
  0.10312499999999999       0.97812500000000002        0.0000000000000000     
  0.11406250000000000       0.97968750000000004        0.0000000000000000     
  0.11562500000000001       0.99062499999999998        0.0000000000000000     
  0.10468750000000000       0.98906249999999996        0.0000000000000000     
   7.8125000000000000E-002  0.93750000000000000        0.0000000000000000     
   9.3750000000000000E-002  0.93750000000000000        0.0000000000000000     
   9.3750000000000000E-002  0.95312500000000000        0.0000000000000000     
   7.1874999999999994E-002  0.94687500000000002        0.0000000000000000     
   8.2812499999999997E-002  0.94843750000000004        0.0000000000000000     
   8.4375000000000006E-002  0.95937499999999998        0.0000000000000000     
   7.3437500000000003E-002  0.95781249999999996        0.0000000000000000     
  0.10937500000000000       0.93750000000000000        0.0000000000000000     
  0.12500000000000000       0.93750000000000000        0.0000000000000000     
  0.12500000000000000       0.95312500000000000        0.0000000000000000     
  0.10312499999999999       0.94687500000000002        0.0000000000000000     
  0.11406250000000000       0.94843750000000004        0.0000000000000000     
  0.11562500000000001       0.95937499999999998        0.0000000000000000     
  0.10468750000000000       0.95781249999999996        0.0000000000000000     
   1.5625000000000000E-002  0.90625000000000000        0.0000000000000000     
   3.1250000000000000E-002  0.90625000000000000        0.0000000000000000     
   3.1250000000000000E-002  0.92187500000000000        0.0000000000000000     
   9.3749999999999997E-003  0.91562500000000002        0.0000000000000000     
   2.0312500000000001E-002  0.91718750000000004        0.0000000000000000     
   2.1874999999999999E-002  0.92812499999999998        0.0000000000000000     
   1.0937499999999999E-002  0.92656249999999996        0.0000000000000000     
   4.6875000000000000E-002  0.90625000000000000        0.0000000000000000     
   6.2500000000000000E-002  0.90625000000000000        0.0000000000000000     
   6.2500000000000000E-002  0.92187500000000000        0.0000000000000000     
   4.0625000000000001E-002  0.91562500000000002        0.0000000000000000     
   5.1562499999999997E-002  0.91718750000000004        0.0000000000000000     
   5.3124999999999999E-002  0.92812499999999998        0.0000000000000000     
   4.2187500000000003E-002  0.92656249999999996        0.0000000000000000     
   1.5625000000000000E-002  0.87500000000000000        0.0000000000000000     
   3.1250000000000000E-002  0.87500000000000000        0.0000000000000000     
   3.1250000000000000E-002  0.89062500000000000        0.0000000000000000     
   9.3749999999999997E-003  0.88437500000000002        0.0000000000000000     
   2.0312500000000001E-002  0.88593750000000004        0.0000000000000000     
   2.1874999999999999E-002  0.89687499999999998        0.0000000000000000     
   1.0937499999999999E-002  0.89531249999999996        0.0000000000000000     
   4.6875000000000000E-002  0.87500000000000000        0.0000000000000000     
   6.2500000000000000E-002  0.87500000000000000        0.0000000000000000     
   6.2500000000000000E-002  0.89062500000000000        0.0000000000000000     
   4.0625000000000001E-002  0.88437500000000002        0.0000000000000000     
   5.1562499999999997E-002  0.88593750000000004        0.0000000000000000     
   5.3124999999999999E-002  0.89687499999999998        0.0000000000000000     
   4.2187500000000003E-002  0.89531249999999996        0.0000000000000000     
   7.8125000000000000E-002  0.90625000000000000        0.0000000000000000     
   9.3750000000000000E-002  0.90625000000000000        0.0000000000000000     
   9.3750000000000000E-002  0.92187500000000000        0.0000000000000000     
   7.1874999999999994E-002  0.91562500000000002        0.0000000000000000     
   8.2812499999999997E-002  0.91718750000000004        0.0000000000000000     
   8.4375000000000006E-002  0.92812499999999998        0.0000000000000000     
   7.3437500000000003E-002  0.92656249999999996        0.0000000000000000     
  0.10937500000000000       0.90625000000000000        0.0000000000000000     
  0.12500000000000000       0.90625000000000000        0.0000000000000000     
  0.12500000000000000       0.92187500000000000        0.0000000000000000     
  0.10312499999999999       0.91562500000000002        0.0000000000000000     
  0.11406250000000000       0.91718750000000004        0.0000000000000000     
  0.11562500000000001       0.92812499999999998        0.0000000000000000     
  0.10468750000000000       0.92656249999999996        0.0000000000000000     
   7.8125000000000000E-002  0.87500000000000000        0.0000000000000000     
   9.3750000000000000E-002  0.87500000000000000        0.0000000000000000     
   9.3750000000000000E-002  0.89062500000000000        0.0000000000000000     
   7.1874999999999994E-002  0.88437500000000002        0.0000000000000000     
   8.2812499999999997E-002  0.88593750000000004        0.0000000000000000     
   8.4375000000000006E-002  0.89687499999999998        0.0000000000000000     
   7.3437500000000003E-002  0.89531249999999996        0.0000000000000000     
  0.10937500000000000       0.87500000000000000        0.0000000000000000     
  0.12500000000000000       0.87500000000000000        0.0000000000000000     
  0.12500000000000000       0.89062500000000000        0.0000000000000000     
  0.10312499999999999       0.88437500000000002        0.0000000000000000     
  0.11406250000000000       0.88593750000000004        0.0000000000000000     
  0.11562500000000001       0.89687499999999998        0.0000000000000000     
  0.10468750000000000       0.89531249999999996        0.0000000000000000     
  0.14062500000000000       0.96875000000000000        0.0000000000000000     
  0.15625000000000000       0.96875000000000000        0.0000000000000000     
  0.15625000000000000       0.98437500000000000        0.0000000000000000     
  0.13437499999999999       0.97812500000000002        0.0000000000000000     
  0.14531250000000001       0.97968750000000004        0.0000000000000000     
  0.14687500000000001       0.99062499999999998        0.0000000000000000     
  0.13593749999999999       0.98906249999999996        0.0000000000000000     
  0.17187500000000000       0.96875000000000000        0.0000000000000000     
  0.18750000000000000       0.96875000000000000        0.0000000000000000     
  0.18750000000000000       0.98437500000000000        0.0000000000000000     
  0.16562499999999999       0.97812500000000002        0.0000000000000000     
  0.17656250000000001       0.97968750000000004        0.0000000000000000     
  0.17812500000000001       0.99062499999999998        0.0000000000000000     
[...]
 CELL_DATA       14336
 SCALARS Tumor_cells float
 LOOKUP_TABLE default
    0.26747921929732170615E-01
    0.26747921817504276970E-01
    0.26747922859595932993E-01
    0.26747922859595128081E-01
    0.26747921817504093089E-01
    0.26747921929729849555E-01
    0.26747921125627988070E-01
    0.26747920657437283115E-01
    0.26747920149726597122E-01
    0.26747920149722378275E-01
    0.26747920657439718667E-01
    0.26747921125628310729E-01
    0.26747921061165486761E-01
    0.26747921061164508377E-01
    0.26747925453596294726E-01
    0.26747926395782668785E-01
    0.26747929066641404350E-01
    0.26747929785148435999E-01
    0.26747927725885869976E-01
    0.26747928642095797347E-01
    0.26747926554732546350E-01
    0.26747924895186341032E-01
    0.26747923165044529964E-01
    0.26747922571640939809E-01
    0.26747923652166688546E-01
    0.26747923542425253857E-01
    0.26747925220453192680E-01
    0.26747925583528547183E-01
    0.26747928642103999120E-01
    0.26747927725891740280E-01
    0.26747929785154282017E-01
    0.26747929066645907692E-01
    0.26747926395786200682E-01
    0.26747925453597228007E-01
    0.26747923542426620819E-01
    0.26747923652168506536E-01
    0.26747922571643812512E-01
    0.26747923165047392258E-01
    0.26747924895191496630E-01
    0.26747926554738905847E-01
    0.26747925583532918686E-01
    0.26747925220456839068E-01
    0.26747934021245766550E-01
    0.26747934544116717948E-01
    0.26747939155309919529E-01
    0.26747939155308923798E-01
    0.26747934544115170574E-01
    0.26747934021241738523E-01
    0.26747930084217892699E-01
    0.26747929033909639135E-01
    0.26747926246118033933E-01
    0.26747926246118363530E-01
    0.26747929033911217733E-01
    0.26747930084221854807E-01
    0.26747931417092217499E-01
    0.26747931417091624223E-01
    0.26747935595318315938E-01
    0.26747938434079840397E-01
    0.26747944239839435698E-01
    0.26747946388719204269E-01
    0.26747942458627875506E-01
    0.26747945034016878257E-01
    0.26747940431309222276E-01
    0.26747936277351100354E-01
    0.26747932055346191477E-01
    0.26747930337860811867E-01
    0.26747932561483483277E-01
    0.26747931556706024125E-01
    0.26747936394190468395E-01
    0.26747937516946741765E-01
    0.26747957990497967656E-01
    0.26747964298882549727E-01
    0.26747975457701998053E-01
    0.26747979963672174897E-01
    0.26747972770076278853E-01
    0.26747977941319972528E-01
    0.26747969077989909581E-01
    0.26747960857872281337E-01
    0.26747952408273621694E-01
    0.26747948665044967570E-01
    0.26747952983091387996E-01
    0.26747950225248413175E-01
    0.26747960761138004498E-01
    0.26747963151880844307E-01
    0.26747948678881857537E-01
    0.26747951055707413354E-01
    0.26747959695573135519E-01
    0.26747960793947245933E-01
    0.26747953000023059339E-01
    0.26747953298040350739E-01
    0.26747945810797597865E-01
    0.26747942699622748869E-01
    0.26747936842860742940E-01
    0.26747936039835527172E-01
    0.26747940984329414416E-01
    0.26747941595272231585E-01
    0.26747946090159867294E-01
    0.26747946624132604848E-01
    0.26747978075219482064E-01
    0.26747983930991300894E-01
    0.26747999834732874569E-01
    0.26748003047120348652E-01
    0.26747989701636169096E-01
    0.26747991587265915192E-01
    0.26747977981958052235E-01
    0.26747971135741000631E-01
    0.26747959915439024903E-01
    0.26747957513185420531E-01
    0.26747965997465428245E-01
    0.26747965654224315629E-01
    0.26747975936830432897E-01
    0.26747977530258565393E-01
    0.26747945034033330375E-01
    0.26747942458642100239E-01
    0.26747946388734580858E-01
    0.26747944239852584902E-01
    0.26747938434090550580E-01
    0.26747935595325587899E-01
    0.26747931556712987305E-01
    0.26747932561492330367E-01
    0.26747930337869860185E-01
    0.26747932055356367365E-01
    0.26747936277363520974E-01
    0.26747940431324068039E-01
    0.26747937516958746051E-01
    0.26747936394201386745E-01
    0.26747953298054020360E-01
    0.26747953000033672377E-01
    0.26747960793957817338E-01
    0.26747959695581025041E-01
    0.26747951055713183044E-01
    0.26747948678883998186E-01
    0.26747941595274615095E-01
    0.26747940984334257764E-01
    0.26747936039840613381E-01
    0.26747936842867484075E-01
    0.26747942699631679225E-01
    0.26747945810810004608E-01
    0.26747946624140806621E-01
    0.26747946090166667410E-01
    0.26747977941351145509E-01
    0.26747972770104710971E-01
    0.26747979963701668665E-01
    0.26747975457728574017E-01
    0.26747964298905722164E-01
    0.26747957990516723487E-01
    0.26747950225265562652E-01
    0.26747952983111288744E-01
    0.26747948665063307067E-01
    0.26747952408294126125E-01
    0.26747960857897129516E-01
    0.26747969078018195982E-01
    0.26747963151905588403E-01
    0.26747960761161381632E-01
    0.26747991587293577093E-01
    0.26747989701659861950E-01
    0.26748003047143937422E-01
    0.26747999834753150017E-01
    0.26747983931008873643E-01
    0.26747978075233137807E-01
    0.26747965654236656452E-01
    0.26747965997481047695E-01
    0.26747957513200686097E-01
    0.26747959915457045210E-01
    0.26747971135762282219E-01
    0.26747977981983420831E-01
    0.26747977530279132274E-01
    0.26747975936849240769E-01
    0.26747975446461132176E-01
    0.26747977502620066265E-01
    0.26747991101283022375E-01
    0.26747991101281440307E-01
    0.26747977502617460710E-01
    0.26747975446454089199E-01
    0.26747963324446909911E-01
    0.26747960622697564831E-01
    0.26747951587220087505E-01
    0.26747951587221235892E-01
    0.26747960622700052424E-01
    0.26747963324453494921E-01
    0.26747968229538763435E-01
    0.26747968229538017504E-01
    0.26748018195143573317E-01
    0.26748024424731339094E-01
    0.26748048472872043568E-01
    0.26748050702250236038E-01
    0.26748028209084583062E-01
    0.26748026887546422908E-01
    0.26748005560258174967E-01
    0.26747998920449236188E-01
    0.26747982504029849116E-01
    0.26747981123336563719E-01
    0.26747995785415073361E-01
    0.26747998034811943519E-01
    0.26748009980570877642E-01
    0.26748010992639962430E-01
    0.26748026887567097343E-01
    0.26748028209100684766E-01
    0.26748050702265584871E-01
    0.26748048472883333149E-01
    0.26748024424739825361E-01
    0.26748018195147021947E-01
    0.26747998034815107654E-01
    0.26747995785422803289E-01
    0.26747981123345674487E-01
    0.26747982504042078916E-01
    0.26747998920463946643E-01
    0.26748005560277558768E-01
    0.26748010992652695300E-01
    0.26748009980581473333E-01
    0.26748092607760606820E-01
    0.26748098792251488037E-01
    0.26748136393812266265E-01
    0.26748136393810063166E-01
    0.26748098792247543276E-01
    0.26748092607751284416E-01
    0.26748058899879901401E-01
    0.26748051758041915815E-01
    0.26748026500499875319E-01
    0.26748026500501693309E-01
    0.26748051758045673226E-01
    0.26748058899889008699E-01
    0.26748073121424444099E-01
    0.26748073121423365101E-01
    0.26748001528157951817E-01
    0.26748013723225876059E-01
    0.26748034412569184071E-01
    0.26748043047144405560E-01
    0.26748029942307283841E-01
    0.26748039729816378701E-01
    0.26748023375229249693E-01
    0.26748007923620115145E-01
    0.26747992069485047872E-01
    0.26747984887808502752E-01
    0.26747992844789097999E-01
    0.26747987289327861127E-01
    0.26748007451820109831E-01
    0.26748012030526065880E-01
    0.26748082832995068170E-01
    0.26748105385029044556E-01
    0.26748143281636608398E-01
    0.26748158953534502402E-01
    0.26748134960456745185E-01
    0.26748152477726491044E-01
    0.26748122901883799457E-01
    0.26748094821520369130E-01
    0.26748065784106284798E-01
    0.26748052561908826352E-01
    0.26748067107668551529E-01
    0.26748056667444824325E-01
    0.26748093960152315857E-01
    0.26748102348567125847E-01
    0.26748034458488771647E-01
    0.26748046679882005877E-01
    0.26748075896752102759E-01
    0.26748082962891450015E-01
    0.26748059259207097871E-01
    0.26748063732331656128E-01
    0.26748038811840114254E-01
    0.26748025516803067281E-01
    0.26748004744792042847E-01
    0.26747999634224466081E-01
    0.26748014462849457190E-01
    0.26748012327043411279E-01
    0.26748033107623189059E-01
    0.26748036563821755984E-01
    0.26748140289780973633E-01
    0.26748163977138649655E-01
    0.26748217521627329352E-01
    0.26748231144950441324E-01
    0.26748188155641089425E-01
    0.26748196621456145350E-01
    0.26748151279102100331E-01
    0.26748126636465335837E-01
    0.26748088572189909762E-01
    0.26748078735894399022E-01
    0.26748105388611082001E-01
    0.26748100307603314696E-01
    0.26748139805842806316E-01
    0.26748146450687012438E-01
    0.26748230861202357267E-01
    0.26748270746550558558E-01
    0.26748338260395170679E-01
    0.26748364901607400018E-01
    0.26748321730104121507E-01
    0.26748351339328242660E-01
    0.26748299618851872211E-01
    0.26748250499399422314E-01
    0.26748199104272382676E-01
    0.26748175559021335201E-01
    0.26748201882106158178E-01
    0.26748183530858275769E-01
    0.26748249714514765046E-01
    0.26748264296313179617E-01
    0.26748491951480681678E-01
    0.26748558542516426284E-01
    0.26748675434040001392E-01
    0.26748717438404824576E-01
    0.26748641067213824868E-01
    0.26748687799000882975E-01
    0.26748600983230726852E-01
    0.26748518819129773333E-01
    0.26748431159068147139E-01
    0.26748391192982678283E-01
    0.26748437781869950636E-01
    0.26748407767760114251E-01
    0.26748519906075653857E-01
    0.26748543855148111670E-01
    0.26748336052847786204E-01
    0.26748379387749054298E-01
    0.26748477154702084146E-01
    0.26748501003717391894E-01
    0.26748421824168564648E-01
    0.26748434952987475144E-01
    0.26748353314768841954E-01
    0.26748310122625434948E-01
    0.26748241452119358302E-01
    0.26748223890772748756E-01
    0.26748272432875825483E-01
    0.26748263016127059311E-01
    0.26748334999420950858E-01
    0.26748346731140609095E-01
    0.26748691775833607215E-01
    0.26748766487616957438E-01
    0.26748942522487630796E-01
    0.26748979651119959150E-01
    0.26748833694077548545E-01
    0.26748848907874801795E-01
    0.26748704338679311909E-01
    0.26748633257300133415E-01
    0.26748512144475763280E-01
    0.26748483120915805128E-01
    0.26748572126562831369E-01
    0.26748558294367334731E-01
    0.26748683129098609068E-01
    0.26748701920167639728E-01
    0.26748098116318598516E-01
    0.26748112218588759176E-01
    0.26748155138672211756E-01
    0.26748161746036280828E-01
    0.26748123265189417685E-01
    0.26748123583287781307E-01
    0.26748085427534318281E-01
    0.26748071432832521560E-01
    0.26748041620458472972E-01
    0.26748037641150634869E-01
    0.26748062421056977012E-01
    0.26748063662181145728E-01
    0.26748088585139377649E-01
    0.26748091514361214960E-01
    0.26748246456812740240E-01
    0.26748275722304384883E-01
    0.26748353914040130797E-01
    0.26748369028917390322E-01
    0.26748300656396085950E-01
    0.26748303693459419411E-01
    0.26748234353951936410E-01
    0.26748207099214726251E-01
    0.26748152525246964711E-01
    0.26748143707883781373E-01
    0.26748186991513968336E-01
    0.26748185871893166016E-01
    0.26748235425551818156E-01
    0.26748242015795394705E-01
    0.26748209775274811584E-01
    0.26748225890190269194E-01
    0.26748290016065493641E-01
    0.26748295394268619546E-01
    0.26748234581315793318E-01
    0.26748229661884993097E-01
    0.26748171661787546044E-01
    0.26748155226005512070E-01
    0.26748110895542725335E-01
    0.26748107953557677396E-01
    0.26748148389810821879E-01
    0.26748155183386645301E-01
    0.26748186487452939308E-01
    0.26748188758100019391E-01
    0.26748420753910460285E-01
    0.26748457608554217224E-01
    0.26748570871094459744E-01
    0.26748588653816504634E-01
    0.26748485773678977451E-01
    0.26748484890199798747E-01
    0.26748381536531459779E-01
    0.26748346710447696434E-01
    0.26748267116328411364E-01
    0.26748258045888626683E-01
    0.26748325176791730440E-01
    0.26748329542197968323E-01
    0.26748394435366865812E-01
    0.26748401707509670416E-01
    0.26748523768317107596E-01
    0.26748581168115490719E-01
    0.26748725686654734046E-01
    0.26748755463329193516E-01
    0.26748629896267400036E-01
    0.26748635560672556766E-01
    0.26748508335890801985E-01
    0.26748458194778054059E-01
    0.26748358131533849641E-01
    0.26748341009965877213E-01
    0.26748419035931138982E-01
    0.26748414041705893818E-01
    0.26748508685499969989E-01
    0.26748521547921916969E-01
    0.26749042202770620391E-01
    0.26749148678164247350E-01
    0.26749417115918126819E-01
    0.26749468855060212075E-01
    0.26749233168847454112E-01
    0.26749235820393811591E-01
    0.26749002362737705346E-01
    0.26748915967417036949E-01
    0.26748733453441999458E-01
    0.26748703756973760126E-01
    0.26748848079214043727E-01
    0.26748839121264824520E-01
    0.26749012938118692934E-01
    0.26749035248831976724E-01
    0.26748812481065122049E-01
    0.26748891881549833466E-01
    0.26749100326196696004E-01
    0.26749143035546311953E-01
    0.26748959021252651652E-01
    0.26748965034280376696E-01
    0.26748774987564762073E-01
    0.26748705803482299148E-01
    0.26748559246546517454E-01
    0.26748538151839584831E-01
    0.26748655073969122148E-01
    0.26748652557974074429E-01
    0.26748784420353402536E-01
    0.26748801679325962671E-01
    0.26749558297349776415E-01
    0.26749719241960345784E-01
    0.26750113310366700065E-01
    0.26750200508793710308E-01
    0.26749855291072967278E-01
    0.26749866689421104154E-01
    0.26749510416926049888E-01
    0.26749380901200939947E-01
    0.26749107312210373272E-01
    0.26749065300734318346E-01
    0.26749279138690407187E-01
    0.26749264641353437399E-01
    0.26749523472754489078E-01
    0.26749558309566261183E-01
    0.26748039729864302172E-01
    0.26748029942352032767E-01
    0.26748043047190108584E-01
    0.26748034412611823574E-01
    0.26748013723264862235E-01
    0.26748001528192191789E-01
    0.26747987289359679425E-01
    0.26747992844823938186E-01
    0.26747984887842128632E-01
    0.26747992069521241143E-01
    0.26748007923660565427E-01
    0.26748023375273887597E-01
    0.26748012030566870045E-01
    0.26748007451859148048E-01
    0.26748063732376172602E-01
    0.26748059259247690400E-01
    0.26748082962932503981E-01
    0.26748075896789146044E-01
    0.26748046679915343793E-01
    0.26748034458516627837E-01
    0.26748012327069418254E-01
    0.26748014462880203429E-01
    0.26747999634254639861E-01
    0.26748004744825613216E-01
    0.26748025516840540777E-01
    0.26748038811882281912E-01
    0.26748036563858375997E-01
    0.26748033107657710056E-01
    0.26748152477795422016E-01
    0.26748134960521401798E-01
    0.26748158953601334359E-01
    0.26748143281699117424E-01
    0.26748105385086255736E-01
    0.26748082833046742113E-01
    0.26748056667493171068E-01
    0.26748067107720596702E-01
    0.26748052561959362317E-01
    0.26748065784159759384E-01
    0.26748094821579210950E-01
    0.26748122901948327701E-01
    0.26748102348626581759E-01
    0.26748093960209384790E-01
    0.26748196621522047495E-01
    0.26748188155701787400E-01
    0.26748231145011684001E-01
    0.26748217521684207465E-01
    0.26748163977190826668E-01
    0.26748140289827141564E-01
    0.26748100307646946461E-01
    0.26748105388659178944E-01
    0.26748078735941770850E-01
    0.26748088572241018185E-01
    0.26748126636521516591E-01
    0.26748151279163911997E-01
    0.26748146450742582569E-01
    0.26748139805895968651E-01
    0.26748123583325719710E-01
    0.26748123265222089467E-01
    0.26748161746068289946E-01
    0.26748155138700251826E-01
    0.26748112218612826729E-01
    0.26748098116337219038E-01
    0.26748063662199089707E-01
    0.26748062421079518008E-01
    0.26748037641173512402E-01
    0.26748041620485031589E-01
    0.26748071432862677993E-01
    0.26748085427570060524E-01
    0.26748091514389817080E-01
    0.26748088585165637893E-01
    0.26748229661911863964E-01
    0.26748234581336703675E-01
    0.26748295394287913140E-01
    0.26748290016079728781E-01
    0.26748225890201392241E-01
    0.26748209775279360029E-01
    0.26748155183391086193E-01
    0.26748148389821334303E-01
    0.26748107953569775358E-01
    0.26748110895559309291E-01
    0.26748155226025065873E-01
    0.26748171661813632816E-01
    0.26748188758117141112E-01
    0.26748186487467053019E-01
    0.26748303693518406948E-01
    0.26748300656449224000E-01
    0.26748369028970514494E-01
    0.26748353914088689176E-01
    0.26748275722348311551E-01
    0.26748246456849530256E-01
    0.26748185871928294166E-01
    0.26748186991555122916E-01
    0.26748143707924679213E-01
    0.26748152525291894049E-01
    0.26748207099264273423E-01
    0.26748234354007655728E-01
    0.26748242015843574915E-01
    0.26748235425597642612E-01
    0.26748484890247909568E-01
    0.26748485773720423464E-01
    0.26748588653857072878E-01
    0.26748570871129116050E-01
    0.26748457608584859380E-01
    0.26748420753933983135E-01
    0.26748329542220387889E-01
    0.26748325176820693383E-01
    0.26748258045918647807E-01
    0.26748267116363435431E-01
    0.26748346710486554240E-01
    0.26748381536577828937E-01
    0.26748401707546283490E-01
    0.26748394435400394548E-01
    0.26748351339421373024E-01
    0.26748321730192241991E-01
    0.26748364901698150342E-01
    0.26748338260481917261E-01
    0.26748270746631042788E-01
    0.26748230861276603432E-01
    0.26748183530928514723E-01
    0.26748201882180466793E-01
    0.26748175559093579495E-01
    0.26748199104347947230E-01
    0.26748250499481058401E-01
    0.26748299618939791467E-01
    0.26748264296395082851E-01
    0.26748249714594232729E-01
    0.26748434953077795256E-01
    0.26748421824253153234E-01
    0.26748501003803795001E-01
    0.26748477154784115750E-01
    0.26748379387824840897E-01
    0.26748336052916054512E-01
    0.26748263016191865110E-01
    0.26748272432946026272E-01
    0.26748223890841856670E-01
    0.26748241452192809964E-01
    0.26748310122704829772E-01
    0.26748353314855130569E-01
    0.26748346731219292682E-01
    0.26748334999497053177E-01
    0.26748687799122140146E-01
    0.26748641067329607252E-01
    0.26748717438523507417E-01
    0.26748675434153809660E-01
    0.26748558542623260964E-01
    0.26748491951580199294E-01
    0.26748407767854646272E-01
    0.26748437781969440497E-01
    0.26748391193079631978E-01
    0.26748431159169219068E-01
    0.26748518819237905586E-01
    0.26748600983346082494E-01
    0.26748543855256864954E-01
    0.26748519906181721789E-01
    0.26748848907993057894E-01
    0.26748833694190135568E-01
    0.26748979651235266219E-01
    0.26748942522597241034E-01
    0.26748766487719861235E-01
    0.26748691775928430669E-01
    0.26748558294457838724E-01
    0.26748572126659174442E-01
    0.26748483121010246943E-01
    0.26748512144574677213E-01
    0.26748633257406444208E-01
    0.26748704338792679558E-01
    0.26748701920273586230E-01
    0.26748683129201842462E-01
    0.26748635560757107188E-01
    0.26748629896345504225E-01
    0.26748755463407526689E-01
    0.26748725686727630596E-01
    0.26748581168182856971E-01
    0.26748523768376639836E-01
    0.26748414041762657439E-01
    0.26748419035994366183E-01
    0.26748341010028646447E-01
    0.26748358131601281812E-01
    0.26748458194851366942E-01
    0.26748508335971997452E-01
    0.26748521547994109221E-01
    0.26748508685568949533E-01
    0.26748965034354976744E-01
    0.26748959021319879126E-01
    0.26749143035613459629E-01
    0.26749100326257668064E-01
    0.26748891881604733994E-01
    0.26748812481111116507E-01
    0.26748652558018184977E-01
    0.26748655074020709355E-01
    0.26748538151891661230E-01
    0.26748559246603940270E-01
    0.26748705803544915727E-01
    0.26748774987636041861E-01