# vtk DataFile Version 3.0
LAPLACIEN  2D
ASCII
DATASET UNSTRUCTURED_GRID
FIELD FieldData 1
TIME 1 1 double
3.9000
 POINTS        7297  float
   1.5625000000000000E-002  0.96875000000000000        0.0000000000000000     
   3.1250000000000000E-002  0.96875000000000000        0.0000000000000000     
   3.1250000000000000E-002  0.98437500000000000        0.0000000000000000     
   9.3749999999999997E-003  0.97812500000000002        0.0000000000000000     
   2.0312500000000001E-002  0.97968750000000004        0.0000000000000000     
   2.1874999999999999E-002  0.99062499999999998        0.0000000000000000     
   1.0937499999999999E-002  0.98906249999999996        0.0000000000000000     
   4.6875000000000000E-002  0.96875000000000000        0.0000000000000000     
   6.2500000000000000E-002  0.96875000000000000        0.0000000000000000     
   6.2500000000000000E-002  0.98437500000000000        0.0000000000000000     
   4.0625000000000001E-002  0.97812500000000002        0.0000000000000000     
   5.1562499999999997E-002  0.97968750000000004        0.0000000000000000     
   5.3124999999999999E-002  0.99062499999999998        0.0000000000000000     
   4.2187500000000003E-002  0.98906249999999996        0.0000000000000000     
   1.5625000000000000E-002  0.93750000000000000        0.0000000000000000     
   3.1250000000000000E-002  0.93750000000000000        0.0000000000000000     
   3.1250000000000000E-002  0.95312500000000000        0.0000000000000000     
   9.3749999999999997E-003  0.94687500000000002        0.0000000000000000     
   2.0312500000000001E-002  0.94843750000000004        0.0000000000000000     
   2.1874999999999999E-002  0.95937499999999998        0.0000000000000000     
   1.0937499999999999E-002  0.95781249999999996        0.0000000000000000     
   4.6875000000000000E-002  0.93750000000000000        0.0000000000000000     
   6.2500000000000000E-002  0.93750000000000000        0.0000000000000000     
   6.2500000000000000E-002  0.95312500000000000        0.0000000000000000     
   4.0625000000000001E-002  0.94687500000000002        0.0000000000000000     
   5.1562499999999997E-002  0.94843750000000004        0.0000000000000000     
   5.3124999999999999E-002  0.95937499999999998        0.0000000000000000     
   4.2187500000000003E-002  0.95781249999999996        0.0000000000000000     
   7.8125000000000000E-002  0.96875000000000000        0.0000000000000000     
   9.3750000000000000E-002  0.96875000000000000        0.0000000000000000     
   9.3750000000000000E-002  0.98437500000000000        0.0000000000000000     
   7.1874999999999994E-002  0.97812500000000002        0.0000000000000000     
   8.2812499999999997E-002  0.97968750000000004        0.0000000000000000     
   8.4375000000000006E-002  0.99062499999999998        0.0000000000000000     
   7.3437500000000003E-002  0.98906249999999996        0.0000000000000000     
  0.10937500000000000       0.96875000000000000        0.0000000000000000     
  0.12500000000000000       0.96875000000000000        0.0000000000000000     
  0.12500000000000000       0.98437500000000000        0.0000000000000000     
  0.10312499999999999       0.97812500000000002        0.0000000000000000     
  0.11406250000000000       0.97968750000000004        0.0000000000000000     
  0.11562500000000001       0.99062499999999998        0.0000000000000000     
  0.10468750000000000       0.98906249999999996        0.0000000000000000     
   7.8125000000000000E-002  0.93750000000000000        0.0000000000000000     
   9.3750000000000000E-002  0.93750000000000000        0.0000000000000000     
   9.3750000000000000E-002  0.95312500000000000        0.0000000000000000     
   7.1874999999999994E-002  0.94687500000000002        0.0000000000000000     
   8.2812499999999997E-002  0.94843750000000004        0.0000000000000000     
   8.4375000000000006E-002  0.95937499999999998        0.0000000000000000     
   7.3437500000000003E-002  0.95781249999999996        0.0000000000000000     
  0.10937500000000000       0.93750000000000000        0.0000000000000000     
  0.12500000000000000       0.93750000000000000        0.0000000000000000     
  0.12500000000000000       0.95312500000000000        0.0000000000000000     
  0.10312499999999999       0.94687500000000002        0.0000000000000000     
  0.11406250000000000       0.94843750000000004        0.0000000000000000     
  0.11562500000000001       0.95937499999999998        0.0000000000000000     
  0.10468750000000000       0.95781249999999996        0.0000000000000000     
   1.5625000000000000E-002  0.90625000000000000        0.0000000000000000     
   3.1250000000000000E-002  0.90625000000000000        0.0000000000000000     
   3.1250000000000000E-002  0.92187500000000000        0.0000000000000000     
   9.3749999999999997E-003  0.91562500000000002        0.0000000000000000     
   2.0312500000000001E-002  0.91718750000000004        0.0000000000000000     
   2.1874999999999999E-002  0.92812499999999998        0.0000000000000000     
   1.0937499999999999E-002  0.92656249999999996        0.0000000000000000     
   4.6875000000000000E-002  0.90625000000000000        0.0000000000000000     
   6.2500000000000000E-002  0.90625000000000000        0.0000000000000000     
   6.2500000000000000E-002  0.92187500000000000        0.0000000000000000     
   4.0625000000000001E-002  0.91562500000000002        0.0000000000000000     
   5.1562499999999997E-002  0.91718750000000004        0.0000000000000000     
   5.3124999999999999E-002  0.92812499999999998        0.0000000000000000     
   4.2187500000000003E-002  0.92656249999999996        0.0000000000000000     
   1.5625000000000000E-002  0.87500000000000000        0.0000000000000000     
   3.1250000000000000E-002  0.87500000000000000        0.0000000000000000     
   3.1250000000000000E-002  0.89062500000000000        0.0000000000000000     
   9.3749999999999997E-003  0.88437500000000002        0.0000000000000000     
   2.0312500000000001E-002  0.88593750000000004        0.0000000000000000     
   2.1874999999999999E-002  0.89687499999999998        0.0000000000000000     
   1.0937499999999999E-002  0.89531249999999996        0.0000000000000000     
   4.6875000000000000E-002  0.87500000000000000        0.0000000000000000     
   6.2500000000000000E-002  0.87500000000000000        0.0000000000000000     
   6.2500000000000000E-002  0.89062500000000000        0.0000000000000000     
   4.0625000000000001E-002  0.88437500000000002        0.0000000000000000     
   5.1562499999999997E-002  0.88593750000000004        0.0000000000000000     
   5.3124999999999999E-002  0.89687499999999998        0.0000000000000000     
   4.2187500000000003E-002  0.89531249999999996        0.0000000000000000     
   7.8125000000000000E-002  0.90625000000000000        0.0000000000000000     
   9.3750000000000000E-002  0.90625000000000000        0.0000000000000000     
   9.3750000000000000E-002  0.92187500000000000        0.0000000000000000     
   7.1874999999999994E-002  0.91562500000000002        0.0000000000000000     
   8.2812499999999997E-002  0.91718750000000004        0.0000000000000000     
   8.4375000000000006E-002  0.92812499999999998        0.0000000000000000     
   7.3437500000000003E-002  0.92656249999999996        0.0000000000000000     
  0.10937500000000000       0.90625000000000000        0.0000000000000000     
  0.12500000000000000       0.90625000000000000        0.0000000000000000     
  0.12500000000000000       0.92187500000000000        0.0000000000000000     
  0.10312499999999999       0.91562500000000002        0.0000000000000000     
  0.11406250000000000       0.91718750000000004        0.0000000000000000     
  0.11562500000000001       0.92812499999999998        0.0000000000000000     
  0.10468750000000000       0.92656249999999996        0.0000000000000000     
   7.8125000000000000E-002  0.87500000000000000        0.0000000000000000     
   9.3750000000000000E-002  0.87500000000000000        0.0000000000000000     
   9.3750000000000000E-002  0.89062500000000000        0.0000000000000000     
   7.1874999999999994E-002  0.88437500000000002        0.0000000000000000     
   8.2812499999999997E-002  0.88593750000000004        0.0000000000000000     
   8.4375000000000006E-002  0.89687499999999998        0.0000000000000000     
   7.3437500000000003E-002  0.89531249999999996        0.0000000000000000     
  0.10937500000000000       0.87500000000000000        0.0000000000000000     
  0.12500000000000000       0.87500000000000000        0.0000000000000000     
  0.12500000000000000       0.89062500000000000        0.0000000000000000     
  0.10312499999999999       0.88437500000000002        0.0000000000000000     
  0.11406250000000000       0.88593750000000004        0.0000000000000000     
  0.11562500000000001       0.89687499999999998        0.0000000000000000     
  0.10468750000000000       0.89531249999999996        0.0000000000000000     
  0.14062500000000000       0.96875000000000000        0.0000000000000000     
  0.15625000000000000       0.96875000000000000        0.0000000000000000     
  0.15625000000000000       0.98437500000000000        0.0000000000000000     
  0.13437499999999999       0.97812500000000002        0.0000000000000000     
  0.14531250000000001       0.97968750000000004        0.0000000000000000     
  0.14687500000000001       0.99062499999999998        0.0000000000000000     
  0.13593749999999999       0.98906249999999996        0.0000000000000000     
  0.17187500000000000       0.96875000000000000        0.0000000000000000     
  0.18750000000000000       0.96875000000000000        0.0000000000000000     
  0.18750000000000000       0.98437500000000000        0.0000000000000000     
  0.16562499999999999       0.97812500000000002        0.0000000000000000     
  0.17656250000000001       0.97968750000000004        0.0000000000000000     
[...]
 CELL_DATA       14336
 SCALARS Tumor_cells float
 LOOKUP_TABLE default
    0.14881063393158736399E-01
    0.14881043026270419916E-01
    0.14881166260434709747E-01
    0.14881166260429623538E-01
    0.14881043026262925910E-01
    0.14881063393141153242E-01
    0.14880960936146197388E-01
    0.14880899053231205417E-01
    0.14880832577130735650E-01
    0.14880832577130506666E-01
    0.14880899053236595203E-01
    0.14880960936157957078E-01
    0.14880949509427482055E-01
    0.14880949509425443755E-01
    0.14881447453719092583E-01
    0.14881549151228452496E-01
    0.14881802583883031732E-01
    0.14881877083798174949E-01
    0.14881698437595200155E-01
    0.14881798617104119442E-01
    0.14881596774255687748E-01
    0.14881413706637694125E-01
    0.14881216399083978599E-01
    0.14881140043251021854E-01
    0.14881262973033930475E-01
    0.14881242952258929083E-01
    0.14881437857963430299E-01
    0.14881481936587802328E-01
    0.14881798617179460217E-01
    0.14881698437654461778E-01
    0.14881877083859053335E-01
    0.14881802583928018316E-01
    0.14881549151260763456E-01
    0.14881447453732203623E-01
    0.14881242952270053864E-01
    0.14881262973058105581E-01
    0.14881140043274589807E-01
    0.14881216399115262602E-01
    0.14881413706683098777E-01
    0.14881596774317757889E-01
    0.14881481936631678689E-01
    0.14881437858000185620E-01
    0.14882183687430550201E-01
    0.14882205777166765751E-01
    0.14882515119581262233E-01
    0.14882515119570437559E-01
    0.14882205777147460013E-01
    0.14882183687385808213E-01
    0.14881879429922683158E-01
    0.14881778250597497634E-01
    0.14881524204194050698E-01
    0.14881524204201041633E-01
    0.14881778250613843934E-01
    0.14881879429961721376E-01
    0.14881971195267811384E-01
    0.14881971195262563845E-01
    0.14882330490667009665E-01
    0.14882548171836275028E-01
    0.14882924721274597840E-01
    0.14883068869230485498E-01
    0.14882838157434000528E-01
    0.14883012913052835746E-01
    0.14882718102537441721E-01
    0.14882420583757440327E-01
    0.14882098828102130125E-01
    0.14881949231668439859E-01
    0.14882126324939601997E-01
    0.14882027804374142743E-01
    0.14882419908265408226E-01
    0.14882505746523215506E-01
    0.14883682066025331545E-01
    0.14884005666382970137E-01
    0.14884494005466125666E-01
    0.14884700431501423842E-01
    0.14884422655506029248E-01
    0.14884663980123320412E-01
    0.14884285836850719500E-01
    0.14883884774391372210E-01
    0.14883449406481806532E-01
    0.14883232244571806963E-01
    0.14883459387862174594E-01
    0.14883288450368519981E-01
    0.14883861762019055461E-01
    0.14883985528437435053E-01
    0.14883069164967887080E-01
    0.14883207214630227513E-01
    0.14883640154834825581E-01
    0.14883709622121904514E-01
    0.14883347509840281001E-01
    0.14883399549776056559E-01
    0.14883001821083085073E-01
    0.14882786369848823721E-01
    0.14882407522060827135E-01
    0.14882334477007772358E-01
    0.14882643244810561667E-01
    0.14882666172492127477E-01
    0.14882955136843355887E-01
    0.14882996777886015050E-01
    0.14884424522090117932E-01
    0.14884668501790090586E-01
    0.14885214275049431926E-01
    0.14885345894951605358E-01
    0.14884935479223098884E-01
    0.14885053555015428234E-01
    0.14884571558630370347E-01
    0.14884252658655153581E-01
    0.14883759517120370708E-01
    0.14883619170662765879E-01
    0.14883978782946075126E-01
    0.14883929727187468831E-01
    0.14884399954643436764E-01
    0.14884479418243716509E-01
    0.14883012913225237769E-01
    0.14882838157584206765E-01
    0.14883068869386742450E-01
    0.14882924721409037175E-01
    0.14882548171947750093E-01
    0.14882330490749823629E-01
    0.14882027804446758268E-01
    0.14882126325031988165E-01
    0.14881949231755680838E-01
    0.14882098828203278382E-01
    0.14882420583882645729E-01
    0.14882718102688834508E-01
    0.14882505746648316824E-01
    0.14882419908379993650E-01
    0.14883399549917948265E-01
    0.14883347509950560841E-01
    0.14883709622228156327E-01
    0.14883640154913458861E-01
    0.14883207214690130984E-01
    0.14883069164992806382E-01
    0.14882666172514666739E-01
    0.14882643244862344897E-01
    0.14882334477064527306E-01
    0.14882407522137557424E-01
    0.14882786369945041893E-01
    0.14883001821211551755E-01
    0.14882996777972541322E-01
    0.14882955136915948860E-01
    0.14884663980432711813E-01
    0.14884422655786908735E-01
    0.14884700431792730752E-01
    0.14884494005729716898E-01
    0.14884005666613322333E-01
    0.14883682066217453904E-01
    0.14883288450542464174E-01
    0.14883459388062273213E-01
    0.14883232244762182456E-01
    0.14883449406692164305E-01
    0.14883884774636091386E-01
    0.14884285837131203470E-01
    0.14883985528683481292E-01
    0.14883861762251118094E-01
    0.14885053555294349217E-01
    0.14884935479464077995E-01
    0.14885345895192922741E-01
    0.14885214275257227512E-01
    0.14884668501968905882E-01
    0.14884424522224364712E-01
    0.14883929727311390537E-01
    0.14883978783105610705E-01
    0.14883619170822743813E-01
    0.14883759517306386841E-01
    0.14884252658870953182E-01
    0.14884571558887997600E-01
    0.14884479418451236274E-01
    0.14884399954833555518E-01
    0.14884289071104568614E-01
    0.14884353260465353619E-01
    0.14884839932826299247E-01
    0.14884839932809508858E-01
    0.14884353260434288191E-01
    0.14884289071032312177E-01
    0.14883791802801410800E-01
    0.14883654588280852485E-01
    0.14883220468950592724E-01
    0.14883220468963538966E-01
    0.14883654588308972352E-01
    0.14883791802868296533E-01
    0.14883984460415848952E-01
    0.14883984460407151049E-01
    0.14885651655568168938E-01
    0.14885822158688876218E-01
    0.14886423405720836458E-01
    0.14886485628949118129E-01
    0.14885948829270117394E-01
    0.14885950219319378854E-01
    0.14885366996050555105E-01
    0.14885126215159864144E-01
    0.14884576701471067053E-01
    0.14884509517008976190E-01
    0.14884995613610459142E-01
    0.14885061114323539996E-01
    0.14885435723798407306E-01
    0.14885473522873043234E-01
    0.14885950219528662833E-01
    0.14885948829431875154E-01
    0.14886485629100960210E-01
    0.14886423405833180619E-01
    0.14885822158776710472E-01
    0.14885651655605220897E-01
    0.14885061114358038442E-01
    0.14884995613690088154E-01
    0.14884509517099278955E-01
    0.14884576701593314751E-01
    0.14885126215307577582E-01
    0.14885366996246589266E-01
    0.14885473523002729426E-01
    0.14885435723907229980E-01
    0.14887325292854037759E-01
    0.14887430586357816575E-01
    0.14888084510415323936E-01
    0.14888084510392625079E-01
    0.14887430586314972375E-01
    0.14887325292754091666E-01
    0.14886646420846539815E-01
    0.14886476826139501475E-01
    0.14885873579962089625E-01
    0.14885873579981076173E-01
    0.14886476826179452157E-01
    0.14886646420941165511E-01
    0.14886935847179051315E-01
    0.14886935847166885699E-01
    0.14885455895393296527E-01
    0.14885871841179655617E-01
    0.14886457568572425761E-01
    0.14886717039312368296E-01
    0.14886398233488343582E-01
    0.14886696228375745008E-01
    0.14886246661005355166E-01
    0.14885755952456017348E-01
    0.14885221264809463115E-01
    0.14884944468855066529E-01
    0.14885216009232210208E-01
    0.14884981368551953099E-01
    0.14885713856769323959E-01
    0.14885870524732554981E-01
    0.14887594287190384842E-01
    0.14888086735729425328E-01
    0.14888753869271287994E-01
    0.14889055838948651866E-01
    0.14888702186751340273E-01
    0.14889045486225127926E-01
    0.14888537590993095039E-01
    0.14887973172611581804E-01
    0.14887355656211844965E-01
    0.14887028707531517815E-01
    0.14887338150822639060E-01
    0.14887050321230077890E-01
    0.14887916053236638358E-01
    0.14888099771863609611E-01
    0.14886205345964759889E-01
    0.14886541950292915201E-01
    0.14887187195395916103E-01
    0.14887371723283691557E-01
    0.14886917843976589515E-01
    0.14887091497390474160E-01
    0.14886536068581009487E-01
    0.14886127843950949790E-01
    0.14885534120660274052E-01
    0.14885334584691309323E-01
    0.14885740083580824289E-01
    0.14885627867418675316E-01
    0.14886257770488218327E-01
    0.14886369967053187519E-01
    0.14888357204362139691E-01
    0.14888770948413666134E-01
    0.14889501543966695771E-01
    0.14889728326445576811E-01
    0.14889234970234600450E-01
    0.14889451891862196670E-01
    0.14888834261659289818E-01
    0.14888352904998050988E-01
    0.14887673982918408697E-01
    0.14887425072925815697E-01
    0.14887871368984810158E-01
    0.14887707020494944307E-01
    0.14888471075340130312E-01
    0.14888609992049051112E-01
    0.14890033248620315742E-01
    0.14890585034284073429E-01
    0.14891317468923581657E-01
    0.14891650476662058114E-01
    0.14891267420904892235E-01
    0.14891643775433007282E-01
    0.14891090831988033211E-01
    0.14890469525247543303E-01
    0.14889786678585641144E-01
    0.14889419920126023208E-01
    0.14889760704522624415E-01
    0.14889431615006746765E-01
    0.14890402279716974041E-01
    0.14890606663928628028E-01
    0.14892708335132705602E-01
    0.14893301705785190123E-01
    0.14894085541802314435E-01
    0.14894437412200077844E-01
    0.14894027930052544315E-01
    0.14894424437826151927E-01
    0.14893838753454596846E-01
    0.14893177128451628305E-01
    0.14892445858109120901E-01
    0.14892049934890501037E-01
    0.14892416382214187717E-01
    0.14892058980678890209E-01
    0.14893105789379305209E-01
    0.14893324227531933718E-01
    0.14890822540658458714E-01
    0.14891296939182943268E-01
    0.14892100951773753689E-01
    0.14892358385892907544E-01
    0.14891826199152184695E-01
    0.14892072087872706629E-01
    0.14891401671610746474E-01
    0.14890864662645320743E-01
    0.14890115721601484070E-01
    0.14889828500466131128E-01
    0.14890311748235660755E-01
    0.14890108101728357498E-01
    0.14890979124236765341E-01
    0.14891138108173489207E-01
    0.14893550126689594770E-01
    0.14894068745213198332E-01
    0.14894940235122200098E-01
    0.14895215402340494099E-01
    0.14894638133633106292E-01
    0.14894895850682519228E-01
    0.14894177335278781932E-01
    0.14893602719798290993E-01
    0.14892796240023502621E-01
    0.14892482673498342455E-01
    0.14893002814005603177E-01
    0.14892774859166490672E-01
    0.14893725908147283088E-01
    0.14893897679537297651E-01
    0.14887445297767138222E-01
    0.14887709269950817614E-01
    0.14888413050060646248E-01
    0.14888528488310261849E-01
    0.14887945136626844905E-01
    0.14888001606318645997E-01
    0.14887341917293019436E-01
    0.14887011294510787626E-01
    0.14886359083668187012E-01
    0.14886232759805287373E-01
    0.14886766805335070393E-01
    0.14886769561745394341E-01
    0.14887305229337417095E-01
    0.14887375799121147293E-01
    0.14889620467726532096E-01
    0.14889963656315650248E-01
    0.14890758845713950725E-01
    0.14890917649766107281E-01
    0.14890288970239038205E-01
    0.14890388040403729902E-01
    0.14889660195465111853E-01
    0.14889255354089964492E-01
    0.14888513810380825733E-01
    0.14888338031510635340E-01
    0.14888916547081096006E-01
    0.14888867463716443790E-01
    0.14889540592012254910E-01
    0.14889638157486576042E-01
    0.14889139240362312538E-01
    0.14889339143831805540E-01
    0.14890099809160620842E-01
    0.14890153591409766368E-01
    0.14889449153744314935E-01
    0.14889398760136276709E-01
    0.14888639316845178953E-01
    0.14888378794566555635E-01
    0.14887669729212824749E-01
    0.14887610391212268215E-01
    0.14888264356880384631E-01
    0.14888371558982753384E-01
    0.14888824313292104221E-01
    0.14888857285879847706E-01
    0.14891348721678559358E-01
    0.14891630955424535812E-01
    0.14892490694232653550E-01
    0.14892590036708414775E-01
    0.14891833567839433614E-01
    0.14891826556472583659E-01
    0.14890991124830879264E-01
    0.14890653507113176326E-01
    0.14889849302152221786E-01
    0.14889739773066252432E-01
    0.14890442707678336332E-01
    0.14890497999533484560E-01
    0.14891093205578532707E-01
    0.14891153932467237828E-01
    0.14892130805064697149E-01
    0.14892539405042959019E-01
    0.14893420288890391739E-01
    0.14893612251278286890E-01
    0.14892933105700074253E-01
    0.14893060062674517985E-01
    0.14892267447158203525E-01
    0.14891804506049344595E-01
    0.14890984677838215583E-01
    0.14890770239524201909E-01
    0.14891392810841461505E-01
    0.14891304639707335020E-01
    0.14892091790804092011E-01
    0.14892210101578760503E-01
    0.14894948567064796030E-01
    0.14895411289389969348E-01
    0.14896385041213022413E-01
    0.14896599618690676767E-01
    0.14895851322954465137E-01
    0.14895987331750511901E-01
    0.14895122539338591372E-01
    0.14894617294669247956E-01
    0.14893723234271821765E-01
    0.14893481798321256404E-01
    0.14894155591092321858E-01
    0.14894043303308551057E-01
    0.14894925193076566719E-01
    0.14895057644351096526E-01
    0.14893922082600905693E-01
    0.14894277781749655498E-01
    0.14895239221183100703E-01
    0.14895377480494062516E-01
    0.14894557309514588547E-01
    0.14894580632550561555E-01
    0.14893664452203582774E-01
    0.14893262310934329493E-01
    0.14892367904395150888E-01
    0.14892217614248994678E-01
    0.14892972908243439639E-01
    0.14892987383023446185E-01
    0.14893708822483347348E-01
    0.14893792383776117971E-01
    0.14896865675708725538E-01
    0.14897293627435557323E-01
    0.14898382227058857771E-01
    0.14898555705350546158E-01
    0.14897638054449238026E-01
    0.14897675199125222367E-01
    0.14896653507553507187E-01
    0.14896195602164388760E-01
    0.14895202179608520512E-01
    0.14895020202113144064E-01
    0.14895843674822000988E-01
    0.14895829490021387370E-01
    0.14896672338169839045E-01
    0.14896774597328037507E-01
    0.14886696228860723384E-01
    0.14886398233938700347E-01
    0.14886717039777386945E-01
    0.14886457569004019758E-01
    0.14885871841568072346E-01
    0.14885455895734162751E-01
    0.14884981368866831430E-01
    0.14885216009579512256E-01
    0.14884944469188315583E-01
    0.14885221265168538732E-01
    0.14885755952859441170E-01
    0.14886246661453793327E-01
    0.14885870525138671094E-01
    0.14885713857158098042E-01
    0.14887091497845006405E-01
    0.14886917844387063253E-01
    0.14887371723698713741E-01
    0.14887187195771688433E-01
    0.14886541950629789827E-01
    0.14886205346247741860E-01
    0.14885627867683538100E-01
    0.14885740083887582380E-01
    0.14885334584994193777E-01
    0.14885534120995040988E-01
    0.14886127844325483527E-01
    0.14886536069006636035E-01
    0.14886369967420791036E-01
    0.14886257770835053735E-01
    0.14889045486922707073E-01
    0.14888702187408465669E-01
    0.14889055839624500133E-01
    0.14888753869908250699E-01
    0.14888086736313681929E-01
    0.14887594287718139766E-01
    0.14887050321724340507E-01
    0.14887338151355339680E-01
    0.14887028708046012512E-01
    0.14887355656757783259E-01
    0.14887973173211461325E-01
    0.14888537591646844663E-01
    0.14888099772467494608E-01
    0.14887916053819947801E-01
    0.14889451892529381727E-01
    0.14889234970851858431E-01
    0.14889728327071419939E-01
    0.14889501544547822931E-01
    0.14888770948946377162E-01
    0.14888357204831993014E-01
    0.14887707020939196581E-01
    0.14887871369476984168E-01
    0.14887425073409968346E-01
    0.14887673983440067801E-01
    0.14888352905569078588E-01
    0.14888834262290290278E-01
    0.14888609992614444330E-01
    0.14888471075881518427E-01
    0.14888001606703506544E-01
    0.14887945136958052189E-01
    0.14888528488635765362E-01
    0.14888413050340948071E-01
    0.14887709270196688646E-01
    0.14887445297952894147E-01
    0.14886769561920821722E-01
    0.14886766805561901100E-01
    0.14886232760038487985E-01
    0.14886359083939168166E-01
    0.14887011294817214385E-01
    0.14887341917657025137E-01
    0.14887375799410892951E-01
    0.14887305229602933870E-01
    0.14889398760411776818E-01
    0.14889449153956586108E-01
    0.14890153591606116248E-01
    0.14890099809305865769E-01
    0.14889339143946989444E-01
    0.14889139240411058268E-01
    0.14888371559029046215E-01
    0.14888264356987616563E-01
    0.14887610391336155227E-01
    0.14887669729380518732E-01
    0.14888378794765198820E-01
    0.14888639317107751903E-01
    0.14888857286052058909E-01
    0.14888824313436622299E-01
    0.14890388041001224179E-01
    0.14890288970777021058E-01
    0.14890917650302443881E-01
    0.14890758846199602175E-01
    0.14889963656757326457E-01
    0.14889620468099112535E-01
    0.14888867464071212088E-01
    0.14888916547493309672E-01
    0.14888338031925069452E-01
    0.14888513810838673035E-01
    0.14889255354592845215E-01
    0.14889660196034460241E-01
    0.14889638157974078442E-01
    0.14889540592472287964E-01
    0.14891826556960729641E-01
    0.14891833568258502907E-01
    0.14892590037115615090E-01
    0.14892490694583275859E-01
    0.14891630955735533567E-01
    0.14891348721914148684E-01
    0.14890497999759100961E-01
    0.14890442707970933875E-01
    0.14889739773371345188E-01
    0.14889849302506745488E-01
    0.14890653507508264802E-01
    0.14890991125298796635E-01
    0.14891153932837204038E-01
    0.14891093205917561859E-01
    0.14891643776378407291E-01
    0.14891267421804297785E-01
    0.14891650477584030682E-01
    0.14891317469801511331E-01
    0.14890585035100248681E-01
    0.14890033249371483967E-01
    0.14889431615717256541E-01
    0.14889760705277315864E-01
    0.14889419920858532748E-01
    0.14889786679354959781E-01
    0.14890469526079920873E-01
    0.14891090832882696027E-01
    0.14890606664766256606E-01
    0.14890402280530960072E-01
    0.14892072088787761119E-01
    0.14891826200011781811E-01
    0.14892358386764951300E-01
    0.14892100952595892921E-01
    0.14891296939947602437E-01
    0.14890822541351737482E-01
    0.14890108102388858666E-01
    0.14890311748949849879E-01
    0.14889828501168340252E-01
    0.14890115722346553007E-01
    0.14890864663448893229E-01
    0.14891401672482710433E-01
    0.14891138108972676313E-01
    0.14890979125008869943E-01
    0.14894424439052401932E-01
    0.14894027931227710182E-01
    0.14894437413401483139E-01
    0.14894085542954797058E-01
    0.14893301706867402567E-01
    0.14892708336141893127E-01
    0.14892058981640652129E-01
    0.14892416383225552320E-01
    0.14892049935875938463E-01
    0.14892445859136415470E-01
    0.14893177129550561749E-01
    0.14893838754623684242E-01
    0.14893324228637304721E-01
    0.14893105790458154025E-01
    0.14894895851878574636E-01
    0.14894638134768618115E-01
    0.14895215403492171810E-01
    0.14894940236219105650E-01
    0.14894068746244035206E-01
    0.14893550127641009065E-01
    0.14892774860078316843E-01
    0.14893002814976541784E-01
    0.14892482674453528038E-01
    0.14892796241026603002E-01
    0.14893602720868511294E-01
    0.14894177336425305780E-01
    0.14893897680604331266E-01
    0.14893725909184358028E-01
    0.14893060063519958022E-01
    0.14892933106480470834E-01
    0.14893612252060914325E-01
    0.14893420289617145466E-01
    0.14892539405716625003E-01
    0.14892130805660723850E-01
    0.14891304640278357416E-01
    0.14891392811475692021E-01
    0.14890770240156690762E-01
    0.14890984678519488330E-01
    0.14891804506784804898E-01
    0.14892267447968574393E-01
    0.14892210102300093219E-01
    0.14892091791494876246E-01
    0.14894580633286804219E-01
    0.14894557310176189530E-01
    0.14895377481147730608E-01
    0.14895239221774969271E-01
    0.14894277782292743642E-01
    0.14893922083060010669E-01
    0.14892987383465356582E-01
    0.14892972908758109543E-01
    0.14892217614772168197E-01
    0.14892367904973129525E-01
    0.14893262311562070407E-01
    0.14893664452912621504E-01