# vtk DataFile Version 3.0
LAPLACIEN  2D
ASCII
DATASET UNSTRUCTURED_GRID
FIELD FieldData 1
TIME 1 1 double
20.0000
 POINTS        7297  float
   1.5625000000000000E-002  0.96875000000000000        0.0000000000000000     
   3.1250000000000000E-002  0.96875000000000000        0.0000000000000000     
   3.1250000000000000E-002  0.98437500000000000        0.0000000000000000     
   9.3749999999999997E-003  0.97812500000000002        0.0000000000000000     
   2.0312500000000001E-002  0.97968750000000004        0.0000000000000000     
   2.1874999999999999E-002  0.99062499999999998        0.0000000000000000     
   1.0937499999999999E-002  0.98906249999999996        0.0000000000000000     
   4.6875000000000000E-002  0.96875000000000000        0.0000000000000000     
   6.2500000000000000E-002  0.96875000000000000        0.0000000000000000     
   6.2500000000000000E-002  0.98437500000000000        0.0000000000000000     
   4.0625000000000001E-002  0.97812500000000002        0.0000000000000000     
   5.1562499999999997E-002  0.97968750000000004        0.0000000000000000     
   5.3124999999999999E-002  0.99062499999999998        0.0000000000000000     
   4.2187500000000003E-002  0.98906249999999996        0.0000000000000000     
   1.5625000000000000E-002  0.93750000000000000        0.0000000000000000     
   3.1250000000000000E-002  0.93750000000000000        0.0000000000000000     
   3.1250000000000000E-002  0.95312500000000000        0.0000000000000000     
   9.3749999999999997E-003  0.94687500000000002        0.0000000000000000     
   2.0312500000000001E-002  0.94843750000000004        0.0000000000000000     
   2.1874999999999999E-002  0.95937499999999998        0.0000000000000000     
   1.0937499999999999E-002  0.95781249999999996        0.0000000000000000     
   4.6875000000000000E-002  0.93750000000000000        0.0000000000000000     
   6.2500000000000000E-002  0.93750000000000000        0.0000000000000000     
   6.2500000000000000E-002  0.95312500000000000        0.0000000000000000     
   4.0625000000000001E-002  0.94687500000000002        0.0000000000000000     
   5.1562499999999997E-002  0.94843750000000004        0.0000000000000000     
   5.3124999999999999E-002  0.95937499999999998        0.0000000000000000     
   4.2187500000000003E-002  0.95781249999999996        0.0000000000000000     
   7.8125000000000000E-002  0.96875000000000000        0.0000000000000000     
   9.3750000000000000E-002  0.96875000000000000        0.0000000000000000     
   9.3750000000000000E-002  0.98437500000000000        0.0000000000000000     
   7.1874999999999994E-002  0.97812500000000002        0.0000000000000000     
   8.2812499999999997E-002  0.97968750000000004        0.0000000000000000     
   8.4375000000000006E-002  0.99062499999999998        0.0000000000000000     
   7.3437500000000003E-002  0.98906249999999996        0.0000000000000000     
  0.10937500000000000       0.96875000000000000        0.0000000000000000     
  0.12500000000000000       0.96875000000000000        0.0000000000000000     
  0.12500000000000000       0.98437500000000000        0.0000000000000000     
  0.10312499999999999       0.97812500000000002        0.0000000000000000     
  0.11406250000000000       0.97968750000000004        0.0000000000000000     
  0.11562500000000001       0.99062499999999998        0.0000000000000000     
  0.10468750000000000       0.98906249999999996        0.0000000000000000     
   7.8125000000000000E-002  0.93750000000000000        0.0000000000000000     
   9.3750000000000000E-002  0.93750000000000000        0.0000000000000000     
   9.3750000000000000E-002  0.95312500000000000        0.0000000000000000     
   7.1874999999999994E-002  0.94687500000000002        0.0000000000000000     
   8.2812499999999997E-002  0.94843750000000004        0.0000000000000000     
   8.4375000000000006E-002  0.95937499999999998        0.0000000000000000     
   7.3437500000000003E-002  0.95781249999999996        0.0000000000000000     
  0.10937500000000000       0.93750000000000000        0.0000000000000000     
  0.12500000000000000       0.93750000000000000        0.0000000000000000     
  0.12500000000000000       0.95312500000000000        0.0000000000000000     
  0.10312499999999999       0.94687500000000002        0.0000000000000000     
  0.11406250000000000       0.94843750000000004        0.0000000000000000     
  0.11562500000000001       0.95937499999999998        0.0000000000000000     
  0.10468750000000000       0.95781249999999996        0.0000000000000000     
   1.5625000000000000E-002  0.90625000000000000        0.0000000000000000     
   3.1250000000000000E-002  0.90625000000000000        0.0000000000000000     
   3.1250000000000000E-002  0.92187500000000000        0.0000000000000000     
   9.3749999999999997E-003  0.91562500000000002        0.0000000000000000     
   2.0312500000000001E-002  0.91718750000000004        0.0000000000000000     
   2.1874999999999999E-002  0.92812499999999998        0.0000000000000000     
   1.0937499999999999E-002  0.92656249999999996        0.0000000000000000     
   4.6875000000000000E-002  0.90625000000000000        0.0000000000000000     
   6.2500000000000000E-002  0.90625000000000000        0.0000000000000000     
   6.2500000000000000E-002  0.92187500000000000        0.0000000000000000     
   4.0625000000000001E-002  0.91562500000000002        0.0000000000000000     
   5.1562499999999997E-002  0.91718750000000004        0.0000000000000000     
   5.3124999999999999E-002  0.92812499999999998        0.0000000000000000     
   4.2187500000000003E-002  0.92656249999999996        0.0000000000000000     
   1.5625000000000000E-002  0.87500000000000000        0.0000000000000000     
   3.1250000000000000E-002  0.87500000000000000        0.0000000000000000     
   3.1250000000000000E-002  0.89062500000000000        0.0000000000000000     
   9.3749999999999997E-003  0.88437500000000002        0.0000000000000000     
   2.0312500000000001E-002  0.88593750000000004        0.0000000000000000     
   2.1874999999999999E-002  0.89687499999999998        0.0000000000000000     
   1.0937499999999999E-002  0.89531249999999996        0.0000000000000000     
   4.6875000000000000E-002  0.87500000000000000        0.0000000000000000     
   6.2500000000000000E-002  0.87500000000000000        0.0000000000000000     
   6.2500000000000000E-002  0.89062500000000000        0.0000000000000000     
   4.0625000000000001E-002  0.88437500000000002        0.0000000000000000     
   5.1562499999999997E-002  0.88593750000000004        0.0000000000000000     
   5.3124999999999999E-002  0.89687499999999998        0.0000000000000000     
   4.2187500000000003E-002  0.89531249999999996        0.0000000000000000     
   7.8125000000000000E-002  0.90625000000000000        0.0000000000000000     
   9.3750000000000000E-002  0.90625000000000000        0.0000000000000000     
   9.3750000000000000E-002  0.92187500000000000        0.0000000000000000     
   7.1874999999999994E-002  0.91562500000000002        0.0000000000000000     
   8.2812499999999997E-002  0.91718750000000004        0.0000000000000000     
   8.4375000000000006E-002  0.92812499999999998        0.0000000000000000     
   7.3437500000000003E-002  0.92656249999999996        0.0000000000000000     
  0.10937500000000000       0.90625000000000000        0.0000000000000000     
  0.12500000000000000       0.90625000000000000        0.0000000000000000     
  0.12500000000000000       0.92187500000000000        0.0000000000000000     
  0.10312499999999999       0.91562500000000002        0.0000000000000000     
  0.11406250000000000       0.91718750000000004        0.0000000000000000     
  0.11562500000000001       0.92812499999999998        0.0000000000000000     
  0.10468750000000000       0.92656249999999996        0.0000000000000000     
   7.8125000000000000E-002  0.87500000000000000        0.0000000000000000     
   9.3750000000000000E-002  0.87500000000000000        0.0000000000000000     
   9.3750000000000000E-002  0.89062500000000000        0.0000000000000000     
   7.1874999999999994E-002  0.88437500000000002        0.0000000000000000     
   8.2812499999999997E-002  0.88593750000000004        0.0000000000000000     
   8.4375000000000006E-002  0.89687499999999998        0.0000000000000000     
   7.3437500000000003E-002  0.89531249999999996        0.0000000000000000     
  0.10937500000000000       0.87500000000000000        0.0000000000000000     
  0.12500000000000000       0.87500000000000000        0.0000000000000000     
  0.12500000000000000       0.89062500000000000        0.0000000000000000     
  0.10312499999999999       0.88437500000000002        0.0000000000000000     
  0.11406250000000000       0.88593750000000004        0.0000000000000000     
  0.11562500000000001       0.89687499999999998        0.0000000000000000     
  0.10468750000000000       0.89531249999999996        0.0000000000000000     
  0.14062500000000000       0.96875000000000000        0.0000000000000000     
  0.15625000000000000       0.96875000000000000        0.0000000000000000     
  0.15625000000000000       0.98437500000000000        0.0000000000000000     
  0.13437499999999999       0.97812500000000002        0.0000000000000000     
  0.14531250000000001       0.97968750000000004        0.0000000000000000     
  0.14687500000000001       0.99062499999999998        0.0000000000000000     
  0.13593749999999999       0.98906249999999996        0.0000000000000000     
  0.17187500000000000       0.96875000000000000        0.0000000000000000     
  0.18750000000000000       0.96875000000000000        0.0000000000000000     
  0.18750000000000000       0.98437500000000000        0.0000000000000000     
  0.16562499999999999       0.97812500000000002        0.0000000000000000     
  0.17656250000000001       0.97968750000000004        0.0000000000000000     
[...]
 CELL_DATA       14336
 SCALARS Tumor_cells float
 LOOKUP_TABLE default
    0.66779521546055098380E-01
    0.66779521075051626045E-01
    0.66779524813321292087E-01
    0.66779524813320237375E-01
    0.66779521075055858770E-01
    0.66779521546051462400E-01
    0.66779518585889402482E-01
    0.66779516833238392048E-01
    0.66779514938490283638E-01
    0.66779514938466011387E-01
    0.66779516833250895935E-01
    0.66779518585884212190E-01
    0.66779518313886829239E-01
    0.66779518313882874070E-01
    0.66779533854340808463E-01
    0.66779537133470373567E-01
    0.66779546039816672920E-01
    0.66779548506065516955E-01
    0.66779541825131669142E-01
    0.66779545022189440440E-01
    0.66779538021612641630E-01
    0.66779532207037306524E-01
    0.66779526065236349819E-01
    0.66779523876018070938E-01
    0.66779527693534720956E-01
    0.66779527224965912202E-01
    0.66779533219656087017E-01
    0.66779534531873394054E-01
    0.66779545022190134329E-01
    0.66779541825131058519E-01
    0.66779548506065822266E-01
    0.66779546039816464753E-01
    0.66779537133471442156E-01
    0.66779533854339503951E-01
    0.66779527224968479593E-01
    0.66779527693532209076E-01
    0.66779523876021359974E-01
    0.66779526065233255072E-01
    0.66779532207038985736E-01
    0.66779538021612128151E-01
    0.66779534531874240599E-01
    0.66779533219655767828E-01
    0.66779561576338047901E-01
    0.66779563017068901964E-01
    0.66779576972289936276E-01
    0.66779576972289853010E-01
    0.66779563017069193398E-01
    0.66779561576337687079E-01
    0.66779549216087322194E-01
    0.66779545698053152658E-01
    0.66779536516243312438E-01
    0.66779536516242049560E-01
    0.66779545698053957570E-01
    0.66779549216086836472E-01
    0.66779553279568443225E-01
    0.66779553279568221180E-01
    0.66779566795569317295E-01
    0.66779575684392536439E-01
    0.66779593105746049009E-01
    0.66779599598240951819E-01
    0.66779588069729736710E-01
    0.66779595868948632420E-01
    0.66779582103250467728E-01
    0.66779569335343305636E-01
    0.66779556137435927554E-01
    0.66779550561165024192E-01
    0.66779557602970343599E-01
    0.66779554219145290106E-01
    0.66779569602151520047E-01
    0.66779573113110793359E-01
    0.66779632864984617147E-01
    0.66779650827643130540E-01
    0.66779681685872699370E-01
    0.66779694238940312534E-01
    0.66779674752862311360E-01
    0.66779689206773115706E-01
    0.66779664809221331301E-01
    0.66779641622111821087E-01
    0.66779617525231871333E-01
    0.66779606582368825074E-01
    0.66779618957561376336E-01
    0.66779610782044501738E-01
    0.66779641155754312920E-01
    0.66779647976809949905E-01
    0.66779604858012542312E-01
    0.66779611814837880335E-01
    0.66779636337105957589E-01
    0.66779639608238086645E-01
    0.66779617801298263302E-01
    0.66779619046425736650E-01
    0.66779597550247177251E-01
    0.66779588068127185285E-01
    0.66779570498831986036E-01
    0.66779567855159191470E-01
    0.66779582568821882482E-01
    0.66779584217162957227E-01
    0.66779597683364985694E-01
    0.66779599363247538202E-01
    0.66779686962645953829E-01
    0.66779703004517868004E-01
    0.66779745303527135447E-01
    0.66779754064637431021E-01
    0.66779719088300021346E-01
    0.66779724669415549410E-01
    0.66779688310373189197E-01
    0.66779669180256198691E-01
    0.66779638122856074811E-01
    0.66779631094918606715E-01
    0.66779654449621611567E-01
    0.66779653135737360170E-01
    0.66779681785203895417E-01
    0.66779686292740947362E-01
    0.66779595868949020998E-01
    0.66779588069729861610E-01
    0.66779599598241229375E-01
    0.66779593105746187787E-01
    0.66779575684392897261E-01
    0.66779566795569109128E-01
    0.66779554219145928484E-01
    0.66779557602970038288E-01
    0.66779550561165690326E-01
    0.66779556137435663876E-01
    0.66779569335343777481E-01
    0.66779582103250703651E-01
    0.66779573113111098670E-01
    0.66779569602151631069E-01
    0.66779619046426014206E-01
    0.66779617801298374324E-01
    0.66779639608238322568E-01
    0.66779636337106082489E-01
    0.66779611814838074624E-01
    0.66779604858012459045E-01
    0.66779584217163137638E-01
    0.66779582568821715949E-01
    0.66779567855159566170E-01
    0.66779570498831805625E-01
    0.66779588068127462841E-01
    0.66779597550247260518E-01
    0.66779599363247746369E-01
    0.66779597683365055083E-01
    0.66779689206773823473E-01
    0.66779674752862908105E-01
    0.66779694238940978668E-01
    0.66779681685873282238E-01
    0.66779650827643657895E-01
    0.66779632864984894702E-01
    0.66779610782044876438E-01
    0.66779618957561667769E-01
    0.66779606582369241408E-01
    0.66779617525232218278E-01
    0.66779641622112390076E-01
    0.66779664809221983557E-01
    0.66779647976810477261E-01
    0.66779641155754784765E-01
    0.66779724669416215543E-01
    0.66779719088300562579E-01
    0.66779754064638027766E-01
    0.66779745303527648925E-01
    0.66779703004518325971E-01
    0.66779686962646231385E-01
    0.66779653135737651604E-01
    0.66779654449621903001E-01
    0.66779631094918953660E-01
    0.66779638122856380122E-01
    0.66779669180256684413E-01
    0.66779688310373744309E-01
    0.66779686292741433085E-01
    0.66779681785204325628E-01
    0.66779679484544329782E-01
    0.66779684898859825726E-01
    0.66779721321315849147E-01
    0.66779721321315835270E-01
    0.66779684898859811848E-01
    0.66779679484544163248E-01
    0.66779646305059919831E-01
    0.66779638620624678924E-01
    0.66779613176357999205E-01
    0.66779613176357929816E-01
    0.66779638620624831580E-01
    0.66779646305060044731E-01
    0.66779659647661748778E-01
    0.66779659647661693267E-01
    0.66779792084171327171E-01
    0.66779808147586924849E-01
    0.66779869566555002947E-01
    0.66779875303881380821E-01
    0.66779818128599927052E-01
    0.66779815099787073751E-01
    0.66779760055953249487E-01
    0.66779742276302136994E-01
    0.66779698759817818221E-01
    0.66779694875889070160E-01
    0.66779733711585104183E-01
    0.66779739582132638387E-01
    0.66779770941491456426E-01
    0.66779773657197796788E-01
    0.66779815099787698252E-01
    0.66779818128600426652E-01
    0.66779875303881908177E-01
    0.66779869566555405402E-01
    0.66779808147587230160E-01
    0.66779792084171438193E-01
    0.66779739582132721654E-01
    0.66779733711585270717E-01
    0.66779694875889292205E-01
    0.66779698759818095777E-01
    0.66779742276302553328E-01
    0.66779760055953776843E-01
    0.66779773657198185366E-01
    0.66779770941491761738E-01
    0.66779979972664424426E-01
    0.66779995226545443843E-01
    0.66780087925420061890E-01
    0.66780087925419978623E-01
    0.66779995226545249554E-01
    0.66779979972664008092E-01
    0.66779895780890552448E-01
    0.66779877667815512599E-01
    0.66779813472439497612E-01
    0.66779813472439567001E-01
    0.66779877667815706888E-01
    0.66779895780890941026E-01
    0.66779931376983472924E-01
    0.66779931376983417413E-01
    0.66779751753966151706E-01
    0.66779784128179753289E-01
    0.66779837710523926031E-01
    0.66779860233354401688E-01
    0.66779826878594059081E-01
    0.66779852451247137535E-01
    0.66779810247166213055E-01
    0.66779769623784457355E-01
    0.66779727582502126926E-01
    0.66779708148527197609E-01
    0.66779729299308851487E-01
    0.66779714044309990140E-01
    0.66779768090787866575E-01
    0.66779780254186529853E-01
    0.66779960390503642631E-01
    0.66780017076735559423E-01
    0.66780110483804402954E-01
    0.66780149409769715141E-01
    0.66780091071144617731E-01
    0.66780134652441508480E-01
    0.66780061898621609351E-01
    0.66779991852958575649E-01
    0.66779919022043804366E-01
    0.66779885326497034903E-01
    0.66779921828848440302E-01
    0.66779894891740826379E-01
    0.66779989253723151532E-01
    0.66780010351736474039E-01
    0.66779835108061527671E-01
    0.66779866606277202279E-01
    0.66779940175361263144E-01
    0.66779958253726234840E-01
    0.66779899335176445829E-01
    0.66779911411594894410E-01
    0.66779848595075880224E-01
    0.66779813822674283230E-01
    0.66779759955604672816E-01
    0.66779746112990243101E-01
    0.66779784395276237108E-01
    0.66779778314793925009E-01
    0.66779832562294985654E-01
    0.66779841660795355440E-01
    0.66780099297284511994E-01
    0.66780157562255221260E-01
    0.66780286988683087990E-01
    0.66780320342632856767E-01
    0.66780217499107910606E-01
    0.66780239111415853892E-01
    0.66780129500210699822E-01
    0.66780068236272374649E-01
    0.66779974306976311316E-01
    0.66779949200732338643E-01
    0.66780014678958485308E-01
    0.66780001340703720736E-01
    0.66780099420804983623E-01
    0.66780116032588418551E-01
    0.66780323194542343113E-01
    0.66780419678848790266E-01
    0.66780580575554082667E-01
    0.66780644596602253826E-01
    0.66780542761448333233E-01
    0.66780614011250849504E-01
    0.66780490836270092747E-01
    0.66780372674012725143E-01
    0.66780248640300882146E-01
    0.66780191166357208421E-01
    0.66780254597832738872E-01
    0.66780209297243500743E-01
    0.66780370094819546667E-01
    0.66780405411788937298E-01
    0.66780943363491135356E-01
    0.66781100443671026490E-01
    0.66781372887299600416E-01
    0.66781471709404821580E-01
    0.66781295051166048027E-01
    0.66781405089533424357E-01
    0.66781202657373583964E-01
    0.66781009674952512833E-01
    0.66780803480368008951E-01
    0.66780708678921621435E-01
    0.66780817984209109306E-01
    0.66780746044095992686E-01
    0.66781011195829159677E-01
    0.66781067767999399698E-01
    0.66780569791029975590E-01
    0.66780672985490008298E-01
    0.66780902711014417106E-01
    0.66780959432127834363E-01
    0.66780774828447561631E-01
    0.66780807343551004673E-01
    0.66780615482907534908E-01
    0.66780511749695251056E-01
    0.66780348061793184944E-01
    0.66780305067779474615E-01
    0.66780420266678519603E-01
    0.66780396675782782712E-01
    0.66780569187579505441E-01
    0.66780597500926630605E-01
    0.66781402832306616113E-01
    0.66781577023128313453E-01
    0.66781983107277259615E-01
    0.66782069884632255796E-01
    0.66781735067052830357E-01
    0.66781772535305289340E-01
    0.66781438919883570615E-01
    0.66781272014326778508E-01
    0.66780989833811268963E-01
    0.66780920703042048747E-01
    0.66781127189323621907E-01
    0.66781093319167567079E-01
    0.66781385552361988145E-01
    0.66781429904903585881E-01
    0.66779993747818816585E-01
    0.66780028645160513512E-01
    0.66780133870128779994E-01
    0.66780150077345640236E-01
    0.66780056241770621717E-01
    0.66780057523074032311E-01
    0.66779963565566133332E-01
    0.66779928138405358906E-01
    0.66779853126843313760E-01
    0.66779842698433247716E-01
    0.66779905012570542344E-01
    0.66779907915113428940E-01
    0.66779970437785246551E-01
    0.66779977852605892918E-01
    0.66780354158592791780E-01
    0.66780424090374518320E-01
    0.66780609787064515448E-01
    0.66780645610318045691E-01
    0.66780483961513426028E-01
    0.66780491851921808255E-01
    0.66780326874022161165E-01
    0.66780260697216112242E-01
    0.66780128806170846456E-01
    0.66780106898857008457E-01
    0.66780211488419075061E-01
    0.66780208502135521287E-01
    0.66780328104464742323E-01
    0.66780344071505723380E-01
    0.66780266149260331110E-01
    0.66780304856023833815E-01
    0.66780458602054615369E-01
    0.66780471303899593960E-01
    0.66780325653907679495E-01
    0.66780313834629678738E-01
    0.66780173903726453011E-01
    0.66780133794862264751E-01
    0.66780025300019849044E-01
    0.66780017998329221918E-01
    0.66780117106059452836E-01
    0.66780133760835524992E-01
    0.66780209752734090434E-01
    0.66780215237715059851E-01
    0.66780768194008049976E-01
    0.66780854439876427553E-01
    0.66781119801437069383E-01
    0.66781160839959316511E-01
    0.66780919994840245990E-01
    0.66780917685661217442E-01
    0.66780674874939618957E-01
    0.66780592535924845898E-01
    0.66780403539664912049E-01
    0.66780381885551326482E-01
    0.66780541728704373439E-01
    0.66780552378715579698E-01
    0.66780705546756802260E-01
    0.66780722577782988814E-01
    0.66781008526118512680E-01
    0.66781142387343242484E-01
    0.66781477988163820414E-01
    0.66781547082269993032E-01
    0.66781256481733344832E-01
    0.66781270620807506311E-01
    0.66780974895544881198E-01
    0.66780856586628634108E-01
    0.66780621500363138154E-01
    0.66780580453350071868E-01
    0.66780763693962116867E-01
    0.66780751559315398858E-01
    0.66780973815843636121E-01
    0.66781004114865955001E-01
    0.66782207439609705957E-01
    0.66782451899686331998E-01
    0.66783066194618670441E-01
    0.66783184741781964622E-01
    0.66782646711422061214E-01
    0.66782654276300229546E-01
    0.66782119675374659873E-01
    0.66781919512265919270E-01
    0.66781498626762608728E-01
    0.66781429008759440880E-01
    0.66781761545405146641E-01
    0.66781740232980765781E-01
    0.66782141132765482361E-01
    0.66782192790995731357E-01
    0.66781680404279550323E-01
    0.66781862856035864584E-01
    0.66782342844389594450E-01
    0.66782440128296510773E-01
    0.66782016605159075229E-01
    0.66782030056840080423E-01
    0.66781591860086156331E-01
    0.66781431697654838886E-01
    0.66781091316261850799E-01
    0.66781042211377303341E-01
    0.66781314523134974181E-01
    0.66781309339542890835E-01
    0.66781614186228771546E-01
    0.66781653861264680949E-01
    0.66783390360328098723E-01
    0.66783756115915457463E-01
    0.66784653041044875210E-01
    0.66784850199619244515E-01
    0.66784064770628315255E-01
    0.66784090392566108907E-01
    0.66783278866578560384E-01
    0.66782982954594491409E-01
    0.66782356838463549642E-01
    0.66782260513297553306E-01
    0.66782750809672122849E-01
    0.66782718530101370380E-01
    0.66783309078304611828E-01
    0.66783388302137522419E-01
    0.66779852451248622458E-01
    0.66779826878595377471E-01
    0.66779860233355789467E-01
    0.66779837710525188910E-01
    0.66779784128180821878E-01
    0.66779751753967012129E-01
    0.66779714044310739540E-01
    0.66779729299309711910E-01
    0.66779708148528002520E-01
    0.66779727582503028982E-01
    0.66779769623785567578E-01
    0.66779810247167559201E-01
    0.66779780254187626198E-01
    0.66779768090788893531E-01
    0.66779911411596365456E-01
    0.66779899335177764219E-01
    0.66779958253727705886E-01
    0.66779940175362623167E-01
    0.66779866606278270869E-01
    0.66779835108062360338E-01
    0.66779778314794605021E-01
    0.66779784395277042020E-01
    0.66779746112991006379E-01
    0.66779759955605505484E-01
    0.66779813822675351820E-01
    0.66779848595077156981E-01
    0.66779841660796465663E-01
    0.66779832562296012610E-01
    0.66780134652444186893E-01
    0.66780091071147060222E-01
    0.66780149409772338043E-01
    0.66780110483806845445E-01
    0.66780017076737668846E-01
    0.66779960390505446743E-01
    0.66779894891742325180E-01
    0.66779921828850175025E-01
    0.66779885326498686360E-01
    0.66779919022045622357E-01
    0.66779991852960712828E-01
    0.66780061898624121230E-01
    0.66780010351738625096E-01
    0.66779989253725191567E-01
    0.66780239111418657205E-01
    0.66780217499110616775E-01
    0.66780320342635909880E-01
    0.66780286988685974570E-01
    0.66780157562257608239E-01
    0.66780099297286496518E-01
    0.66780001340705344437E-01
    0.66780014678960303298E-01
    0.66779949200733976222E-01
    0.66779974306978143184E-01
    0.66780068236274553461E-01
    0.66780129500213170068E-01
    0.66780116032590736141E-01
    0.66780099420807190191E-01
    0.66780057523075628256E-01
    0.66780056241772078884E-01
    0.66780150077347277815E-01
    0.66780133870130223284E-01
    0.66780028645161665368E-01
    0.66779993747819732519E-01
    0.66779907915114081196E-01
    0.66779905012571375011E-01
    0.66779842698434010995E-01
    0.66779853126844160305E-01
    0.66779928138406496885E-01
    0.66779963565567534989E-01
    0.66779977852607072530E-01
    0.66779970437786329018E-01
    0.66780313834631316317E-01
    0.66780325653908970129E-01
    0.66780471303900912350E-01
    0.66780458602055614570E-01
    0.66780304856024597093E-01
    0.66780266149260705810E-01
    0.66780133760835719281E-01
    0.66780117106060007948E-01
    0.66780017998329804785E-01
    0.66780025300020681711E-01
    0.66780133794863347219E-01
    0.66780173903727924056E-01
    0.66780215237716045173E-01
    0.66780209752734936979E-01
    0.66780491851925277702E-01
    0.66780483961516701186E-01
    0.66780645610321764938E-01
    0.66780609787067971017E-01
    0.66780424090377335511E-01
    0.66780354158595164882E-01
    0.66780208502137353155E-01
    0.66780211488421184485E-01
    0.66780106898858854203E-01
    0.66780128806172886491E-01
    0.66780260697218693511E-01
    0.66780326874025158768E-01
    0.66780344071508471182E-01
    0.66780328104467351347E-01
    0.66780917685665242001E-01
    0.66780919994843854215E-01
    0.66781160839963313314E-01
    0.66781119801440580463E-01
    0.66780854439879203110E-01
    0.66780768194010131644E-01
    0.66780552378717134010E-01
    0.66780541728706468985E-01
    0.66780381885553269372E-01
    0.66780403539667243518E-01
    0.66780592535927774112E-01
    0.66780674874943227182E-01
    0.66780722577785944782E-01
    0.66780705546759480673E-01
    0.66780614011255762241E-01
    0.66780542761452885148E-01
    0.66780644596607111052E-01
    0.66780580575558620704E-01
    0.66780419678852676046E-01
    0.66780323194545687659E-01
    0.66780209297246345690E-01
    0.66780254597835903008E-01
    0.66780191166360178268E-01
    0.66780248640304157304E-01
    0.66780372674016638679E-01
    0.66780490836274686295E-01
    0.66780405411792878589E-01
    0.66780370094823279792E-01
    0.66780807343556292111E-01
    0.66780774828452696412E-01
    0.66780959432133732423E-01
    0.66780902711020051488E-01
    0.66780672985494671234E-01
    0.66780569791034041782E-01
    0.66780396675786127259E-01
    0.66780420266682100072E-01
    0.66780305067782624873E-01
    0.66780348061796585002E-01
    0.66780511749699372759E-01
    0.66780615482912142333E-01
    0.66780597500931043742E-01
    0.66780569187583765922E-01
    0.66781405089542236753E-01
    0.66781295051174249799E-01
    0.66781471709413758875E-01
    0.66781372887307940966E-01
    0.66781100443678159673E-01
    0.66780943363497324849E-01
    0.66780746044101252368E-01
    0.66780817984214937977E-01
    0.66780708678927019895E-01
    0.66780803480373976400E-01
    0.66781009674959576627E-01
    0.66781202657381841248E-01
    0.66781067768006574514E-01
    0.66781011195836001426E-01
    0.66781772535315045425E-01
    0.66781735067062503175E-01
    0.66782069884643524560E-01
    0.66781983107288112045E-01
    0.66781577023137222993E-01
    0.66781402832314540330E-01
    0.66781093319173978617E-01
    0.66781127189330422023E-01
    0.66780920703047946807E-01
    0.66780989833817611112E-01
    0.66781272014334452924E-01
    0.66781438919892091577E-01
    0.66781429904911884798E-01
    0.66781385552370051140E-01
    0.66781270620814375816E-01
    0.66781256481740020048E-01
    0.66781547082277722960E-01
    0.66781477988171161764E-01
    0.66781142387349209932E-01
    0.66781008526123744606E-01
    0.66780751559319506683E-01
    0.66780763693966613270E-01
    0.66780580453353957648E-01
    0.66780621500367329246E-01
    0.66780856586633852157E-01
    0.66780974895550848647E-01
    0.66781004114871603261E-01
    0.66780973815849076214E-01
    0.66782030056848878941E-01
    0.66782016605167304757E-01
    0.66782440128305864402E-01
    0.66782342844398170922E-01
    0.66781862856042803478E-01
    0.66781680404285365116E-01
    0.66781309339547428872E-01
    0.66781314523140206107E-01
    0.66781042211381952400E-01
    0.66781091316267082725E-01
    0.66781431697661375324E-01
    0.66781591860093844626E-01