# vtk DataFile Version 3.0
LAPLACIEN  2D
ASCII
DATASET UNSTRUCTURED_GRID
FIELD FieldData 1
TIME 1 1 double
18.6000
 POINTS        7297  float
   1.5625000000000000E-002  0.96875000000000000        0.0000000000000000     
   3.1250000000000000E-002  0.96875000000000000        0.0000000000000000     
   3.1250000000000000E-002  0.98437500000000000        0.0000000000000000     
   9.3749999999999997E-003  0.97812500000000002        0.0000000000000000     
   2.0312500000000001E-002  0.97968750000000004        0.0000000000000000     
   2.1874999999999999E-002  0.99062499999999998        0.0000000000000000     
   1.0937499999999999E-002  0.98906249999999996        0.0000000000000000     
   4.6875000000000000E-002  0.96875000000000000        0.0000000000000000     
   6.2500000000000000E-002  0.96875000000000000        0.0000000000000000     
   6.2500000000000000E-002  0.98437500000000000        0.0000000000000000     
   4.0625000000000001E-002  0.97812500000000002        0.0000000000000000     
   5.1562499999999997E-002  0.97968750000000004        0.0000000000000000     
   5.3124999999999999E-002  0.99062499999999998        0.0000000000000000     
   4.2187500000000003E-002  0.98906249999999996        0.0000000000000000     
   1.5625000000000000E-002  0.93750000000000000        0.0000000000000000     
   3.1250000000000000E-002  0.93750000000000000        0.0000000000000000     
   3.1250000000000000E-002  0.95312500000000000        0.0000000000000000     
   9.3749999999999997E-003  0.94687500000000002        0.0000000000000000     
   2.0312500000000001E-002  0.94843750000000004        0.0000000000000000     
   2.1874999999999999E-002  0.95937499999999998        0.0000000000000000     
   1.0937499999999999E-002  0.95781249999999996        0.0000000000000000     
   4.6875000000000000E-002  0.93750000000000000        0.0000000000000000     
   6.2500000000000000E-002  0.93750000000000000        0.0000000000000000     
   6.2500000000000000E-002  0.95312500000000000        0.0000000000000000     
   4.0625000000000001E-002  0.94687500000000002        0.0000000000000000     
   5.1562499999999997E-002  0.94843750000000004        0.0000000000000000     
   5.3124999999999999E-002  0.95937499999999998        0.0000000000000000     
   4.2187500000000003E-002  0.95781249999999996        0.0000000000000000     
   7.8125000000000000E-002  0.96875000000000000        0.0000000000000000     
   9.3750000000000000E-002  0.96875000000000000        0.0000000000000000     
   9.3750000000000000E-002  0.98437500000000000        0.0000000000000000     
   7.1874999999999994E-002  0.97812500000000002        0.0000000000000000     
   8.2812499999999997E-002  0.97968750000000004        0.0000000000000000     
   8.4375000000000006E-002  0.99062499999999998        0.0000000000000000     
   7.3437500000000003E-002  0.98906249999999996        0.0000000000000000     
  0.10937500000000000       0.96875000000000000        0.0000000000000000     
  0.12500000000000000       0.96875000000000000        0.0000000000000000     
  0.12500000000000000       0.98437500000000000        0.0000000000000000     
  0.10312499999999999       0.97812500000000002        0.0000000000000000     
  0.11406250000000000       0.97968750000000004        0.0000000000000000     
  0.11562500000000001       0.99062499999999998        0.0000000000000000     
  0.10468750000000000       0.98906249999999996        0.0000000000000000     
   7.8125000000000000E-002  0.93750000000000000        0.0000000000000000     
   9.3750000000000000E-002  0.93750000000000000        0.0000000000000000     
   9.3750000000000000E-002  0.95312500000000000        0.0000000000000000     
   7.1874999999999994E-002  0.94687500000000002        0.0000000000000000     
   8.2812499999999997E-002  0.94843750000000004        0.0000000000000000     
   8.4375000000000006E-002  0.95937499999999998        0.0000000000000000     
   7.3437500000000003E-002  0.95781249999999996        0.0000000000000000     
  0.10937500000000000       0.93750000000000000        0.0000000000000000     
  0.12500000000000000       0.93750000000000000        0.0000000000000000     
  0.12500000000000000       0.95312500000000000        0.0000000000000000     
  0.10312499999999999       0.94687500000000002        0.0000000000000000     
  0.11406250000000000       0.94843750000000004        0.0000000000000000     
  0.11562500000000001       0.95937499999999998        0.0000000000000000     
  0.10468750000000000       0.95781249999999996        0.0000000000000000     
   1.5625000000000000E-002  0.90625000000000000        0.0000000000000000     
   3.1250000000000000E-002  0.90625000000000000        0.0000000000000000     
   3.1250000000000000E-002  0.92187500000000000        0.0000000000000000     
   9.3749999999999997E-003  0.91562500000000002        0.0000000000000000     
   2.0312500000000001E-002  0.91718750000000004        0.0000000000000000     
   2.1874999999999999E-002  0.92812499999999998        0.0000000000000000     
   1.0937499999999999E-002  0.92656249999999996        0.0000000000000000     
   4.6875000000000000E-002  0.90625000000000000        0.0000000000000000     
   6.2500000000000000E-002  0.90625000000000000        0.0000000000000000     
   6.2500000000000000E-002  0.92187500000000000        0.0000000000000000     
   4.0625000000000001E-002  0.91562500000000002        0.0000000000000000     
   5.1562499999999997E-002  0.91718750000000004        0.0000000000000000     
   5.3124999999999999E-002  0.92812499999999998        0.0000000000000000     
   4.2187500000000003E-002  0.92656249999999996        0.0000000000000000     
   1.5625000000000000E-002  0.87500000000000000        0.0000000000000000     
   3.1250000000000000E-002  0.87500000000000000        0.0000000000000000     
   3.1250000000000000E-002  0.89062500000000000        0.0000000000000000     
   9.3749999999999997E-003  0.88437500000000002        0.0000000000000000     
   2.0312500000000001E-002  0.88593750000000004        0.0000000000000000     
   2.1874999999999999E-002  0.89687499999999998        0.0000000000000000     
   1.0937499999999999E-002  0.89531249999999996        0.0000000000000000     
   4.6875000000000000E-002  0.87500000000000000        0.0000000000000000     
   6.2500000000000000E-002  0.87500000000000000        0.0000000000000000     
   6.2500000000000000E-002  0.89062500000000000        0.0000000000000000     
   4.0625000000000001E-002  0.88437500000000002        0.0000000000000000     
   5.1562499999999997E-002  0.88593750000000004        0.0000000000000000     
   5.3124999999999999E-002  0.89687499999999998        0.0000000000000000     
   4.2187500000000003E-002  0.89531249999999996        0.0000000000000000     
   7.8125000000000000E-002  0.90625000000000000        0.0000000000000000     
   9.3750000000000000E-002  0.90625000000000000        0.0000000000000000     
   9.3750000000000000E-002  0.92187500000000000        0.0000000000000000     
   7.1874999999999994E-002  0.91562500000000002        0.0000000000000000     
   8.2812499999999997E-002  0.91718750000000004        0.0000000000000000     
   8.4375000000000006E-002  0.92812499999999998        0.0000000000000000     
   7.3437500000000003E-002  0.92656249999999996        0.0000000000000000     
  0.10937500000000000       0.90625000000000000        0.0000000000000000     
  0.12500000000000000       0.90625000000000000        0.0000000000000000     
  0.12500000000000000       0.92187500000000000        0.0000000000000000     
  0.10312499999999999       0.91562500000000002        0.0000000000000000     
  0.11406250000000000       0.91718750000000004        0.0000000000000000     
  0.11562500000000001       0.92812499999999998        0.0000000000000000     
  0.10468750000000000       0.92656249999999996        0.0000000000000000     
   7.8125000000000000E-002  0.87500000000000000        0.0000000000000000     
   9.3750000000000000E-002  0.87500000000000000        0.0000000000000000     
   9.3750000000000000E-002  0.89062500000000000        0.0000000000000000     
   7.1874999999999994E-002  0.88437500000000002        0.0000000000000000     
   8.2812499999999997E-002  0.88593750000000004        0.0000000000000000     
   8.4375000000000006E-002  0.89687499999999998        0.0000000000000000     
   7.3437500000000003E-002  0.89531249999999996        0.0000000000000000     
  0.10937500000000000       0.87500000000000000        0.0000000000000000     
  0.12500000000000000       0.87500000000000000        0.0000000000000000     
  0.12500000000000000       0.89062500000000000        0.0000000000000000     
  0.10312499999999999       0.88437500000000002        0.0000000000000000     
  0.11406250000000000       0.88593750000000004        0.0000000000000000     
  0.11562500000000001       0.89687499999999998        0.0000000000000000     
  0.10468750000000000       0.89531249999999996        0.0000000000000000     
  0.14062500000000000       0.96875000000000000        0.0000000000000000     
  0.15625000000000000       0.96875000000000000        0.0000000000000000     
  0.15625000000000000       0.98437500000000000        0.0000000000000000     
  0.13437499999999999       0.97812500000000002        0.0000000000000000     
  0.14531250000000001       0.97968750000000004        0.0000000000000000     
  0.14687500000000001       0.99062499999999998        0.0000000000000000     
  0.13593749999999999       0.98906249999999996        0.0000000000000000     
  0.17187500000000000       0.96875000000000000        0.0000000000000000     
  0.18750000000000000       0.96875000000000000        0.0000000000000000     
  0.18750000000000000       0.98437500000000000        0.0000000000000000     
  0.16562499999999999       0.97812500000000002        0.0000000000000000     
  0.17656250000000001       0.97968750000000004        0.0000000000000000     
[...]
 CELL_DATA       14336
 SCALARS Tumor_cells float
 LOOKUP_TABLE default
    0.59053038494855172869E-01
    0.59053038071454649893E-01
    0.59053041433988991138E-01
    0.59053041433988137654E-01
    0.59053038071457980562E-01
    0.59053038494852244655E-01
    0.59053035832787356685E-01
    0.59053034255700215249E-01
    0.59053032551599111966E-01
    0.59053032551579842657E-01
    0.59053034255710123990E-01
    0.59053035832783234982E-01
    0.59053035587265378936E-01
    0.59053035587262256434E-01
    0.59053049565640440555E-01
    0.59053052515267427658E-01
    0.59053060525037191775E-01
    0.59053062744106266102E-01
    0.59053056735597062032E-01
    0.59053059610354126374E-01
    0.59053053315321631100E-01
    0.59053048084906023529E-01
    0.59053042560248167336E-01
    0.59053040592175046197E-01
    0.59053044024630109432E-01
    0.59053043603648512627E-01
    0.59053048995524895504E-01
    0.59053050175182884851E-01
    0.59053059610354799447E-01
    0.59053056735596666516E-01
    0.59053062744106599169E-01
    0.59053060525037059936E-01
    0.59053052515268301959E-01
    0.59053049565639413598E-01
    0.59053043603650580418E-01
    0.59053044024628159603E-01
    0.59053040592177717671E-01
    0.59053042560245759540E-01
    0.59053048084907383553E-01
    0.59053053315321291095E-01
    0.59053050175183592618E-01
    0.59053048995524666520E-01
    0.59053074497091816164E-01
    0.59053075791958418994E-01
    0.59053088340626350150E-01
    0.59053088340626246067E-01
    0.59053075791958599405E-01
    0.59053074497091469219E-01
    0.59053063382226336775E-01
    0.59053060217342120963E-01
    0.59053051959981638086E-01
    0.59053051959980645824E-01
    0.59053060217342773219E-01
    0.59053063382225982891E-01
    0.59053067035224469927E-01
    0.59053067035224275638E-01
    0.59053079191023268024E-01
    0.59053087184649466490E-01
    0.59053102850016407632E-01
    0.59053108688665659209E-01
    0.59053098322486327620E-01
    0.59053105336345709797E-01
    0.59053092957990570289E-01
    0.59053081476384897130E-01
    0.59053069607218997006E-01
    0.59053064594387721931E-01
    0.59053070924873579672E-01
    0.59053067881891872781E-01
    0.59053081716225204467E-01
    0.59053084872596937893E-01
    0.59053138599374603579E-01
    0.59053154750231783010E-01
    0.59053182493782392648E-01
    0.59053193779990451051E-01
    0.59053176261582795981E-01
    0.59053189257999162687E-01
    0.59053167322778120363E-01
    0.59053146474972804947E-01
    0.59053124808929734202E-01
    0.59053114969696118841E-01
    0.59053126096024713410E-01
    0.59053118744638304072E-01
    0.59053146054973526535E-01
    0.59053152187922910987E-01
    0.59053113413972707635E-01
    0.59053119668975945222E-01
    0.59053141716763381253E-01
    0.59053144658227904595E-01
    0.59053125052609463375E-01
    0.59053126173717648828E-01
    0.59053106846098796234E-01
    0.59053098318941059375E-01
    0.59053082521229378898E-01
    0.59053080143366430688E-01
    0.59053093373266217492E-01
    0.59053094855012588926E-01
    0.59053106963415896713E-01
    0.59053108474350544943E-01
    0.59053187230878316505E-01
    0.59053201653183333419E-01
    0.59053239678983501793E-01
    0.59053247555872573349E-01
    0.59053216114646561730E-01
    0.59053221134575221984E-01
    0.59053188448234913976E-01
    0.59053171248231950408E-01
    0.59053143326108469002E-01
    0.59053137006724730484E-01
    0.59053158002652907099E-01
    0.59053156820309642139E-01
    0.59053182578243525180E-01
    0.59053186631129843398E-01
    0.59053105336346306542E-01
    0.59053098322486674565E-01
    0.59053108688666151871E-01
    0.59053102850016782333E-01
    0.59053087184649959152E-01
    0.59053079191023281902E-01
    0.59053067881892511160E-01
    0.59053070924873496406E-01
    0.59053064594388388064E-01
    0.59053069607218920678E-01
    0.59053081476385424486E-01
    0.59053092957990951928E-01
    0.59053084872597388921E-01
    0.59053081716225502840E-01
    0.59053126173718113734E-01
    0.59053125052609740930E-01
    0.59053144658228230723E-01
    0.59053141716763596358E-01
    0.59053119668976195022E-01
    0.59053113413972714574E-01
    0.59053094855012797093E-01
    0.59053093373266196675E-01
    0.59053080143366819266E-01
    0.59053082521229399715E-01
    0.59053098318941482647E-01
    0.59053106846099101546E-01
    0.59053108474350891888E-01
    0.59053106963416104880E-01
    0.59053189258000203521E-01
    0.59053176261583691098E-01
    0.59053193779991415557E-01
    0.59053182493783260010E-01
    0.59053154750232560166E-01
    0.59053138599375172568E-01
    0.59053118744638880000E-01
    0.59053126096025240765E-01
    0.59053114969696750280E-01
    0.59053124808930351763E-01
    0.59053146474973630675E-01
    0.59053167322779070991E-01
    0.59053152187923702021E-01
    0.59053146054974234302E-01
    0.59053221134576207307E-01
    0.59053216114647408275E-01
    0.59053247555873489283E-01
    0.59053239678984292826E-01
    0.59053201653183985675E-01
    0.59053187230878739777E-01
    0.59053156820310051534E-01
    0.59053158002653358127E-01
    0.59053137006725264779E-01
    0.59053143326109017175E-01
    0.59053171248232672053E-01
    0.59053188448235753583E-01
    0.59053186631130558104E-01
    0.59053182578244163559E-01
    0.59053180506847130493E-01
    0.59053185373341476883E-01
    0.59053218116236053103E-01
    0.59053218116235976776E-01
    0.59053185373341372799E-01
    0.59053180506846873754E-01
    0.59053150677938620605E-01
    0.59053143768819947590E-01
    0.59053120892964064415E-01
    0.59053120892964022781E-01
    0.59053143768820079429E-01
    0.59053150677938801016E-01
    0.59053162672363913865E-01
    0.59053162672363872232E-01
    0.59053281726143221075E-01
    0.59053296165640478677E-01
    0.59053351373890401732E-01
    0.59053356531578553301E-01
    0.59053305138909099881E-01
    0.59053302418355067827E-01
    0.59053252939201543448E-01
    0.59053236955058499569E-01
    0.59053197835748610922E-01
    0.59053194343788951992E-01
    0.59053229254620268063E-01
    0.59053234531473319802E-01
    0.59053262721633123511E-01
    0.59053265163044064978E-01
    0.59053302418355900494E-01
    0.59053305138909745198E-01
    0.59053356531579198618E-01
    0.59053351373890901332E-01
    0.59053296165640846438E-01
    0.59053281726143394548E-01
    0.59053234531473458579E-01
    0.59053229254620510924E-01
    0.59053194343789271181E-01
    0.59053197835749006439E-01
    0.59053236955059096314E-01
    0.59053252939202313665E-01
    0.59053265163044571517E-01
    0.59053262721633532906E-01
    0.59053450609962782059E-01
    0.59053464319086916567E-01
    0.59053547637538846005E-01
    0.59053547637538728043E-01
    0.59053464319086722278E-01
    0.59053450609962289397E-01
    0.59053374935814556546E-01
    0.59053358653980730919E-01
    0.59053300951476789260E-01
    0.59053300951476872527E-01
    0.59053358653980932147E-01
    0.59053374935815014513E-01
    0.59053406929527416103E-01
    0.59053406929527360592E-01
    0.59053245485491616396E-01
    0.59053274589730767041E-01
    0.59053322757261675346E-01
    0.59053343004151263862E-01
    0.59053313021727817100E-01
    0.59053336011680584994E-01
    0.59053298072673079955E-01
    0.59053261553325131494E-01
    0.59053223758740877591E-01
    0.59053206286978909834E-01
    0.59053225300787243190E-01
    0.59053211585821170637E-01
    0.59053260173937666133E-01
    0.59053271108797059097E-01
    0.59053433033815529163E-01
    0.59053483989124015696E-01
    0.59053567948044553837E-01
    0.59053602937178442667E-01
    0.59053550501848350862E-01
    0.59053589677059363516E-01
    0.59053524281886995984E-01
    0.59053461319834375798E-01
    0.59053395853287005135E-01
    0.59053365563894712198E-01
    0.59053398374372186030E-01
    0.59053374159740663896E-01
    0.59053458981767739666E-01
    0.59053477946541463317E-01
    0.59053320406708555146E-01
    0.59053348722126051962E-01
    0.59053414851655980367E-01
    0.59053431103039399908E-01
    0.59053378145612255012E-01
    0.59053389004407111362E-01
    0.59053332539558398007E-01
    0.59053301280422750008E-01
    0.59053252857398201570E-01
    0.59053240412393355474E-01
    0.59053274823648832514E-01
    0.59053269355814605457E-01
    0.59053318122316504624E-01
    0.59053326301797853803E-01
    0.59053557877261152187E-01
    0.59053610249543010691E-01
    0.59053726578844799311E-01
    0.59053756559948406002E-01
    0.59053664127266765338E-01
    0.59053683557429195727E-01
    0.59053585038071051971E-01
    0.59053529969267395949E-01
    0.59053445541421681342E-01
    0.59053422972754163189E-01
    0.59053481824674354528E-01
    0.59053469832865440603E-01
    0.59053557994337979586E-01
    0.59053572926660892473E-01
    0.59053759136889157066E-01
    0.59053845859671459662E-01
    0.59053990471448949973E-01
    0.59054048014980778381E-01
    0.59053956488693111482E-01
    0.59054020530002700184E-01
    0.59053909821218504572E-01
    0.59053803616055569603E-01
    0.59053692132992559316E-01
    0.59053640473780685816E-01
    0.59053697485472782247E-01
    0.59053656766753052920E-01
    0.59053801295906649393E-01
    0.59053833039622964651E-01
    0.59054316536554900263E-01
    0.59054457717470282274E-01
    0.59054702578125527201E-01
    0.59054791397703865208E-01
    0.59054632626082362301E-01
    0.59054731526461012869E-01
    0.59054549588530153015E-01
    0.59054376142873628297E-01
    0.59054190821131537226E-01
    0.59054105615453558742E-01
    0.59054203854491511827E-01
    0.59054139194380531053E-01
    0.59054377507352574794E-01
    0.59054428353405026553E-01
    0.59053980758152310737E-01
    0.59054073510855231710E-01
    0.59054279979722290594E-01
    0.59054330963007745092E-01
    0.59054165051223565797E-01
    0.59054194280602358147E-01
    0.59054021842986102742E-01
    0.59053928606229676157E-01
    0.59053781485483312907E-01
    0.59053742840146604409E-01
    0.59053846376030637300E-01
    0.59053825168658154177E-01
    0.59053980224089905327E-01
    0.59054005673362525153E-01
    0.59054729469095380845E-01
    0.59054886028396078035E-01
    0.59055250995283241344E-01
    0.59055328991432419483E-01
    0.59055028077809323950E-01
    0.59055061758454652221E-01
    0.59054761922755459602E-01
    0.59054611911759223586E-01
    0.59054358300336375065E-01
    0.59054296165403544205E-01
    0.59054481742194422922E-01
    0.59054451295705023828E-01
    0.59054713947907365446E-01
    0.59054753812083839171E-01
    0.59053462993665539749E-01
    0.59053494361445871275E-01
    0.59053588939367296362E-01
    0.59053603507765187186E-01
    0.59053519169522443455E-01
    0.59053520324837870115E-01
    0.59053435873717814719E-01
    0.59053404027552408584E-01
    0.59053336602289958901E-01
    0.59053327227129026600E-01
    0.59053383237297286945E-01
    0.59053385844832648188E-01
    0.59053442045028527174E-01
    0.59053448710485359485E-01
    0.59053786932536773968E-01
    0.59053849788313468594E-01
    0.59054016686442924178E-01
    0.59054048885858960449E-01
    0.59053903604664080562E-01
    0.59053910701665449090E-01
    0.59053762424304045986E-01
    0.59053702941859548270E-01
    0.59053584398327585436E-01
    0.59053564705510402932E-01
    0.59053658707655463933E-01
    0.59053656020770360635E-01
    0.59053763521380274459E-01
    0.59053777873681642663E-01
    0.59053707821675148482E-01
    0.59053742610767914756E-01
    0.59053880792456991955E-01
    0.59053892209353087139E-01
    0.59053761305998070386E-01
    0.59053750686084545418E-01
    0.59053624919282253491E-01
    0.59053588867919407090E-01
    0.59053491352503560685E-01
    0.59053484788527003946E-01
    0.59053573865400756093E-01
    0.59053588833981235373E-01
    0.59053657135281767410E-01
    0.59053662065729380093E-01
    0.59054159038760732636E-01
    0.59054236553771427554E-01
    0.59054475045574067460E-01
    0.59054511931163303218E-01
    0.59054295476932028297E-01
    0.59054293406916071041E-01
    0.59054075182045286108E-01
    0.59054001175521994571E-01
    0.59053831313236250511E-01
    0.59053811848986038913E-01
    0.59053955506817891463E-01
    0.59053965076525799516E-01
    0.59054102739605547623E-01
    0.59054118047736497976E-01
    0.59054375056995386806E-01
    0.59054495368959264434E-01
    0.59054796989056794476E-01
    0.59054859092002247312E-01
    0.59054597919882753643E-01
    0.59054610634855946028E-01
    0.59054344853319264141E-01
    0.59054238516643375867E-01
    0.59054027230444110230E-01
    0.59053990335292662339E-01
    0.59054155020451214175E-01
    0.59054144109667222606E-01
    0.59054343869786800336E-01
    0.59054371103533884191E-01
    0.59055452582020100116E-01
    0.59055672295912860215E-01
    0.59056224389636279015E-01
    0.59056330940208366653E-01
    0.59055847392840983556E-01
    0.59055854200580251701E-01
    0.59055373732345650684E-01
    0.59055193830335035721E-01
    0.59054815560874919511E-01
    0.59054752987406644582E-01
    0.59055051847957076849E-01
    0.59055032686329188285E-01
    0.59055393001702392863E-01
    0.59055439432372867914E-01
    0.59054978880855688028E-01
    0.59055142861937484633E-01
    0.59055574244014592822E-01
    0.59055661682747839780E-01
    0.59055281052013935961E-01
    0.59055293150048780715E-01
    0.59054899327163484779E-01
    0.59054755376749305806E-01
    0.59054449461376681829E-01
    0.59054405325001509131E-01
    0.59054650058536828361E-01
    0.59054645394362122179E-01
    0.59054919378546198716E-01
    0.59054955038572373716E-01
    0.59056515689782512757E-01
    0.59056844419755255560E-01
    0.59057650525264078489E-01
    0.59057827731306154762E-01
    0.59057121836534873238E-01
    0.59057144876674877443E-01
    0.59056415523388298972E-01
    0.59056149566393538464E-01
    0.59055586849457504528E-01
    0.59055500272215288859E-01
    0.59055940914656677998E-01
    0.59055911895064122641E-01
    0.59056442655682515885E-01
    0.59056513861854446901E-01
    0.59053336011682486251E-01
    0.59053313021729558763E-01
    0.59053343004153081852E-01
    0.59053322757263285170E-01
    0.59053274589732203392E-01
    0.59053245485492816824E-01
    0.59053211585822239227E-01
    0.59053225300788450558E-01
    0.59053206286980040873E-01
    0.59053223758742126592E-01
    0.59053261553326664990E-01
    0.59053298072674849373E-01
    0.59053271108798592592E-01
    0.59053260173939095545E-01
    0.59053389004408943230E-01
    0.59053378145613941164E-01
    0.59053431103041238714E-01
    0.59053414851657659579E-01
    0.59053348722127460557E-01
    0.59053320406709700063E-01
    0.59053269355815618535E-01
    0.59053274823649970493E-01
    0.59053240412394451819E-01
    0.59053252857399401998E-01
    0.59053301280424179420E-01
    0.59053332539560021708E-01
    0.59053326301799304032E-01
    0.59053318122317878525E-01
    0.59053589677062701124E-01
    0.59053550501851403975E-01
    0.59053602937181683130E-01
    0.59053567948047523684E-01
    0.59053483989126617781E-01
    0.59053433033817763487E-01
    0.59053374159742634542E-01
    0.59053398374374385660E-01
    0.59053365563896779988E-01
    0.59053395853289267214E-01
    0.59053461319837040333E-01
    0.59053524281890083791E-01
    0.59053477946544155608E-01
    0.59053458981770300118E-01
    0.59053683557432526396E-01
    0.59053664127269922535E-01
    0.59053756559951882388E-01
    0.59053726578848074469E-01
    0.59053610249545730737E-01
    0.59053557877263483655E-01
    0.59053469832867432066E-01
    0.59053481824676568035E-01
    0.59053422972756203224E-01
    0.59053445541423922605E-01
    0.59053529969270032729E-01
    0.59053585038074021818E-01
    0.59053572926663647213E-01
    0.59053557994340595549E-01
    0.59053520324839743616E-01
    0.59053519169524122667E-01
    0.59053603507767012115E-01
    0.59053588939368878430E-01
    0.59053494361447154970E-01
    0.59053462993666504255E-01
    0.59053385844833411467E-01
    0.59053383237298306963E-01
    0.59053327227129991106E-01
    0.59053336602291083002E-01
    0.59053404027553803302E-01
    0.59053435873719514748E-01
    0.59053448710486754203E-01
    0.59053442045029810870E-01
    0.59053750686086266264E-01
    0.59053761305999437348E-01
    0.59053892209354495735E-01
    0.59053880792458088300E-01
    0.59053742610768733545E-01
    0.59053707821675530121E-01
    0.59053588833981471296E-01
    0.59053573865401366716E-01
    0.59053484788527649263E-01
    0.59053491352504455802E-01
    0.59053588867920579764E-01
    0.59053624919283828620E-01
    0.59053662065730469499E-01
    0.59053657135282683344E-01
    0.59053910701669244665E-01
    0.59053903604667654093E-01
    0.59054048885862929497E-01
    0.59054016686446594853E-01
    0.59053849788316480074E-01
    0.59053786932539299726E-01
    0.59053656020772407609E-01
    0.59053658707657850913E-01
    0.59053564705512547051E-01
    0.59053584398329965477E-01
    0.59053702941862462605E-01
    0.59053762424307439105E-01
    0.59053777873684674959E-01
    0.59053763521383147161E-01
    0.59054293406920262133E-01
    0.59054295476935733666E-01
    0.59054511931167341654E-01
    0.59054475045577640990E-01
    0.59054236553774272500E-01
    0.59054159038762897571E-01
    0.59053965076527450972E-01
    0.59053955506820070276E-01
    0.59053811848988085886E-01
    0.59053831313238686063E-01
    0.59054001175525033807E-01
    0.59054075182049046988E-01
    0.59054118047739544151E-01
    0.59054102739608337058E-01
    0.59054020530008355383E-01
    0.59053956488698350347E-01
    0.59054048014986329496E-01
    0.59053990471454161082E-01
    0.59053845859676004637E-01
    0.59053759136893133053E-01
    0.59053656766756536245E-01
    0.59053697485476633333E-01
    0.59053640473784307918E-01
    0.59053692132996514486E-01
    0.59053803616060170090E-01
    0.59053909821223812826E-01
    0.59053833039627599832E-01
    0.59053801295911055591E-01
    0.59054194280608297840E-01
    0.59054165051229269567E-01
    0.59054330963014121936E-01
    0.59054279979728382943E-01
    0.59054073510860338736E-01
    0.59053980758156800202E-01
    0.59053825168661915057E-01
    0.59053846376034703491E-01
    0.59053742840150309779E-01
    0.59053781485487309710E-01
    0.59053928606234387666E-01
    0.59054021842991383240E-01
    0.59054005673367465645E-01
    0.59053980224094665408E-01
    0.59054731526470519154E-01
    0.59054632626091278780E-01
    0.59054791397713447820E-01
    0.59054702578134506130E-01
    0.59054457717478060774E-01
    0.59054316536561762829E-01
    0.59054139194386491563E-01
    0.59054203854498062143E-01
    0.59054105615459713541E-01
    0.59054190821138240197E-01
    0.59054376142881413736E-01
    0.59054549588539069493E-01
    0.59054428353412909136E-01
    0.59054377507360117372E-01
    0.59055061758464991173E-01
    0.59055028077819510246E-01
    0.59055328991444000497E-01
    0.59055250995294336636E-01
    0.59054886028405376153E-01
    0.59054729469103631190E-01
    0.59054451295711893333E-01
    0.59054481742201757333E-01
    0.59054296165410101460E-01
    0.59054358300343390287E-01
    0.59054611911767529442E-01
    0.59054761922764598125E-01
    0.59054753812092686260E-01
    0.59054713947915948857E-01
    0.59054610634863176355E-01
    0.59054597919889720292E-01
    0.59054859092010150712E-01
    0.59054796989064267665E-01
    0.59054495368965426172E-01
    0.59054375057000785265E-01
    0.59054144109671594109E-01
    0.59054155020455988134E-01
    0.59053990335296902003E-01
    0.59054027230448724595E-01
    0.59054238516648954738E-01
    0.59054344853325627107E-01
    0.59054371103539844701E-01
    0.59054343869792511046E-01
    0.59055293150057613927E-01
    0.59055281052022151611E-01
    0.59055661682757054631E-01
    0.59055574244023030517E-01
    0.59055142861944361077E-01
    0.59054978880861405677E-01
    0.59054645394366687972E-01
    0.59054650058542115798E-01
    0.59054405325006303906E-01
    0.59054449461382059472E-01
    0.59054755376755911633E-01
    0.59054899327171228585E-01