# vtk DataFile Version 3.0
LAPLACIEN  2D
ASCII
DATASET UNSTRUCTURED_GRID
FIELD FieldData 1
TIME 1 1 double
5.2000
 POINTS        7297  float
   1.5625000000000000E-002  0.96875000000000000        0.0000000000000000     
   3.1250000000000000E-002  0.96875000000000000        0.0000000000000000     
   3.1250000000000000E-002  0.98437500000000000        0.0000000000000000     
   9.3749999999999997E-003  0.97812500000000002        0.0000000000000000     
   2.0312500000000001E-002  0.97968750000000004        0.0000000000000000     
   2.1874999999999999E-002  0.99062499999999998        0.0000000000000000     
   1.0937499999999999E-002  0.98906249999999996        0.0000000000000000     
   4.6875000000000000E-002  0.96875000000000000        0.0000000000000000     
   6.2500000000000000E-002  0.96875000000000000        0.0000000000000000     
   6.2500000000000000E-002  0.98437500000000000        0.0000000000000000     
   4.0625000000000001E-002  0.97812500000000002        0.0000000000000000     
   5.1562499999999997E-002  0.97968750000000004        0.0000000000000000     
   5.3124999999999999E-002  0.99062499999999998        0.0000000000000000     
   4.2187500000000003E-002  0.98906249999999996        0.0000000000000000     
   1.5625000000000000E-002  0.93750000000000000        0.0000000000000000     
   3.1250000000000000E-002  0.93750000000000000        0.0000000000000000     
   3.1250000000000000E-002  0.95312500000000000        0.0000000000000000     
   9.3749999999999997E-003  0.94687500000000002        0.0000000000000000     
   2.0312500000000001E-002  0.94843750000000004        0.0000000000000000     
   2.1874999999999999E-002  0.95937499999999998        0.0000000000000000     
   1.0937499999999999E-002  0.95781249999999996        0.0000000000000000     
   4.6875000000000000E-002  0.93750000000000000        0.0000000000000000     
   6.2500000000000000E-002  0.93750000000000000        0.0000000000000000     
   6.2500000000000000E-002  0.95312500000000000        0.0000000000000000     
   4.0625000000000001E-002  0.94687500000000002        0.0000000000000000     
   5.1562499999999997E-002  0.94843750000000004        0.0000000000000000     
   5.3124999999999999E-002  0.95937499999999998        0.0000000000000000     
   4.2187500000000003E-002  0.95781249999999996        0.0000000000000000     
   7.8125000000000000E-002  0.96875000000000000        0.0000000000000000     
   9.3750000000000000E-002  0.96875000000000000        0.0000000000000000     
   9.3750000000000000E-002  0.98437500000000000        0.0000000000000000     
   7.1874999999999994E-002  0.97812500000000002        0.0000000000000000     
   8.2812499999999997E-002  0.97968750000000004        0.0000000000000000     
   8.4375000000000006E-002  0.99062499999999998        0.0000000000000000     
   7.3437500000000003E-002  0.98906249999999996        0.0000000000000000     
  0.10937500000000000       0.96875000000000000        0.0000000000000000     
  0.12500000000000000       0.96875000000000000        0.0000000000000000     
  0.12500000000000000       0.98437500000000000        0.0000000000000000     
  0.10312499999999999       0.97812500000000002        0.0000000000000000     
  0.11406250000000000       0.97968750000000004        0.0000000000000000     
  0.11562500000000001       0.99062499999999998        0.0000000000000000     
  0.10468750000000000       0.98906249999999996        0.0000000000000000     
   7.8125000000000000E-002  0.93750000000000000        0.0000000000000000     
   9.3750000000000000E-002  0.93750000000000000        0.0000000000000000     
   9.3750000000000000E-002  0.95312500000000000        0.0000000000000000     
   7.1874999999999994E-002  0.94687500000000002        0.0000000000000000     
   8.2812499999999997E-002  0.94843750000000004        0.0000000000000000     
   8.4375000000000006E-002  0.95937499999999998        0.0000000000000000     
   7.3437500000000003E-002  0.95781249999999996        0.0000000000000000     
  0.10937500000000000       0.93750000000000000        0.0000000000000000     
  0.12500000000000000       0.93750000000000000        0.0000000000000000     
  0.12500000000000000       0.95312500000000000        0.0000000000000000     
  0.10312499999999999       0.94687500000000002        0.0000000000000000     
  0.11406250000000000       0.94843750000000004        0.0000000000000000     
  0.11562500000000001       0.95937499999999998        0.0000000000000000     
  0.10468750000000000       0.95781249999999996        0.0000000000000000     
   1.5625000000000000E-002  0.90625000000000000        0.0000000000000000     
   3.1250000000000000E-002  0.90625000000000000        0.0000000000000000     
   3.1250000000000000E-002  0.92187500000000000        0.0000000000000000     
   9.3749999999999997E-003  0.91562500000000002        0.0000000000000000     
   2.0312500000000001E-002  0.91718750000000004        0.0000000000000000     
   2.1874999999999999E-002  0.92812499999999998        0.0000000000000000     
   1.0937499999999999E-002  0.92656249999999996        0.0000000000000000     
   4.6875000000000000E-002  0.90625000000000000        0.0000000000000000     
   6.2500000000000000E-002  0.90625000000000000        0.0000000000000000     
   6.2500000000000000E-002  0.92187500000000000        0.0000000000000000     
   4.0625000000000001E-002  0.91562500000000002        0.0000000000000000     
   5.1562499999999997E-002  0.91718750000000004        0.0000000000000000     
   5.3124999999999999E-002  0.92812499999999998        0.0000000000000000     
   4.2187500000000003E-002  0.92656249999999996        0.0000000000000000     
   1.5625000000000000E-002  0.87500000000000000        0.0000000000000000     
   3.1250000000000000E-002  0.87500000000000000        0.0000000000000000     
   3.1250000000000000E-002  0.89062500000000000        0.0000000000000000     
   9.3749999999999997E-003  0.88437500000000002        0.0000000000000000     
   2.0312500000000001E-002  0.88593750000000004        0.0000000000000000     
   2.1874999999999999E-002  0.89687499999999998        0.0000000000000000     
   1.0937499999999999E-002  0.89531249999999996        0.0000000000000000     
   4.6875000000000000E-002  0.87500000000000000        0.0000000000000000     
   6.2500000000000000E-002  0.87500000000000000        0.0000000000000000     
   6.2500000000000000E-002  0.89062500000000000        0.0000000000000000     
   4.0625000000000001E-002  0.88437500000000002        0.0000000000000000     
   5.1562499999999997E-002  0.88593750000000004        0.0000000000000000     
   5.3124999999999999E-002  0.89687499999999998        0.0000000000000000     
   4.2187500000000003E-002  0.89531249999999996        0.0000000000000000     
   7.8125000000000000E-002  0.90625000000000000        0.0000000000000000     
   9.3750000000000000E-002  0.90625000000000000        0.0000000000000000     
   9.3750000000000000E-002  0.92187500000000000        0.0000000000000000     
   7.1874999999999994E-002  0.91562500000000002        0.0000000000000000     
   8.2812499999999997E-002  0.91718750000000004        0.0000000000000000     
   8.4375000000000006E-002  0.92812499999999998        0.0000000000000000     
   7.3437500000000003E-002  0.92656249999999996        0.0000000000000000     
  0.10937500000000000       0.90625000000000000        0.0000000000000000     
  0.12500000000000000       0.90625000000000000        0.0000000000000000     
  0.12500000000000000       0.92187500000000000        0.0000000000000000     
  0.10312499999999999       0.91562500000000002        0.0000000000000000     
  0.11406250000000000       0.91718750000000004        0.0000000000000000     
  0.11562500000000001       0.92812499999999998        0.0000000000000000     
  0.10468750000000000       0.92656249999999996        0.0000000000000000     
   7.8125000000000000E-002  0.87500000000000000        0.0000000000000000     
   9.3750000000000000E-002  0.87500000000000000        0.0000000000000000     
   9.3750000000000000E-002  0.89062500000000000        0.0000000000000000     
   7.1874999999999994E-002  0.88437500000000002        0.0000000000000000     
   8.2812499999999997E-002  0.88593750000000004        0.0000000000000000     
   8.4375000000000006E-002  0.89687499999999998        0.0000000000000000     
   7.3437500000000003E-002  0.89531249999999996        0.0000000000000000     
  0.10937500000000000       0.87500000000000000        0.0000000000000000     
  0.12500000000000000       0.87500000000000000        0.0000000000000000     
  0.12500000000000000       0.89062500000000000        0.0000000000000000     
  0.10312499999999999       0.88437500000000002        0.0000000000000000     
  0.11406250000000000       0.88593750000000004        0.0000000000000000     
  0.11562500000000001       0.89687499999999998        0.0000000000000000     
  0.10468750000000000       0.89531249999999996        0.0000000000000000     
  0.14062500000000000       0.96875000000000000        0.0000000000000000     
  0.15625000000000000       0.96875000000000000        0.0000000000000000     
  0.15625000000000000       0.98437500000000000        0.0000000000000000     
  0.13437499999999999       0.97812500000000002        0.0000000000000000     
  0.14531250000000001       0.97968750000000004        0.0000000000000000     
  0.14687500000000001       0.99062499999999998        0.0000000000000000     
  0.13593749999999999       0.98906249999999996        0.0000000000000000     
  0.17187500000000000       0.96875000000000000        0.0000000000000000     
  0.18750000000000000       0.96875000000000000        0.0000000000000000     
  0.18750000000000000       0.98437500000000000        0.0000000000000000     
  0.16562499999999999       0.97812500000000002        0.0000000000000000     
  0.17656250000000001       0.97968750000000004        0.0000000000000000     
[...]
 CELL_DATA       14336
 SCALARS Tumor_cells float
 LOOKUP_TABLE default
    0.17223126383467266681E-01
    0.17223124417993368462E-01
    0.17223136510134066934E-01
    0.17223136510130816063E-01
    0.17223124417988861651E-01
    0.17223126383456160982E-01
    0.17223116366166312668E-01
    0.17223110329936779095E-01
    0.17223103842221382936E-01
    0.17223103842220238019E-01
    0.17223110329940557323E-01
    0.17223116366173199521E-01
    0.17223115265556539211E-01
    0.17223115265555109799E-01
    0.17223164233699052306E-01
    0.17223174262542301216E-01
    0.17223199457959536413E-01
    0.17223206821094533964E-01
    0.17223188951570420069E-01
    0.17223198825830059178E-01
    0.17223178783353759042E-01
    0.17223160751900019189E-01
    0.17223141356861263601E-01
    0.17223133891917003641E-01
    0.17223145984044833934E-01
    0.17223144054239088174E-01
    0.17223163195623381744E-01
    0.17223167517481176997E-01
    0.17223198825877871626E-01
    0.17223188951608049690E-01
    0.17223206821133388300E-01
    0.17223199457988211392E-01
    0.17223174262562878506E-01
    0.17223164233707323467E-01
    0.17223144054246235235E-01
    0.17223145984060002356E-01
    0.17223133891931936140E-01
    0.17223141356880831282E-01
    0.17223160751928746209E-01
    0.17223178783392849300E-01
    0.17223167517509001961E-01
    0.17223163195646672141E-01
    0.17223237927597626062E-01
    0.17223240303993813533E-01
    0.17223271897415813603E-01
    0.17223271897408850423E-01
    0.17223240303981490057E-01
    0.17223237927569058636E-01
    0.17223207225012721056E-01
    0.17223197177418561599E-01
    0.17223171852547149857E-01
    0.17223171852551549116E-01
    0.17223197177429015042E-01
    0.17223207225037603929E-01
    0.17223216575978389509E-01
    0.17223216575975027615E-01
    0.17223252538106567644E-01
    0.17223274515777452220E-01
    0.17223313092064963803E-01
    0.17223327811351975269E-01
    0.17223303942212254969E-01
    0.17223321768991207287E-01
    0.17223291531654014164E-01
    0.17223261323406378193E-01
    0.17223228822832510609E-01
    0.17223213861482140202E-01
    0.17223231691954946770E-01
    0.17223221919149184211E-01
    0.17223261334843767423E-01
    0.17223270004220476992E-01
    0.17223391967150180476E-01
    0.17223425935279732674E-01
    0.17223478219270976775E-01
    0.17223500185953997954E-01
    0.17223469918267269446E-01
    0.17223495539590204240E-01
    0.17223454916521878377E-01
    0.17223412564896355831E-01
    0.17223366884179119179E-01
    0.17223344392291100452E-01
    0.17223368171059530440E-01
    0.17223350586521010697E-01
    0.17223410370342088355E-01
    0.17223423348397534638E-01
    0.17223329271325651946E-01
    0.17223343568892313799E-01
    0.17223389147214947237E-01
    0.17223396279729935587E-01
    0.17223357804500436657E-01
    0.17223362819851813915E-01
    0.17223321229385055858E-01
    0.17223299289737654949E-01
    0.17223260466717502104E-01
    0.17223253185490797201E-01
    0.17223284932830738164E-01
    0.17223287442186999141E-01
    0.17223317071503096987E-01
    0.17223321269652508425E-01
    0.17223473413852413705E-01
    0.17223499705695251988E-01
    0.17223560270620306284E-01
    0.17223574483659662843E-01
    0.17223528076301834744E-01
    0.17223540207113401806E-01
    0.17223486991989250816E-01
    0.17223453127230833187E-01
    0.17223400357803779481E-01
    0.17223385834527898952E-01
    0.17223424506232324488E-01
    0.17223419741000549343E-01
    0.17223469795296677404E-01
    0.17223478162743912495E-01
    0.17223321769100945894E-01
    0.17223303942307911091E-01
    0.17223327811451565744E-01
    0.17223313092150679959E-01
    0.17223274515848513433E-01
    0.17223252538159414260E-01
    0.17223221919195601942E-01
    0.17223231692013764305E-01
    0.17223213861537578495E-01
    0.17223228822896768236E-01
    0.17223261323485984653E-01
    0.17223291531750145600E-01
    0.17223270004300111208E-01
    0.17223261334916743770E-01
    0.17223362819942376889E-01
    0.17223357804570783164E-01
    0.17223396279797676539E-01
    0.17223389147265042581E-01
    0.17223343568930522818E-01
    0.17223329271341576707E-01
    0.17223287442201518777E-01
    0.17223284932863819341E-01
    0.17223253185527042514E-01
    0.17223260466766462939E-01
    0.17223299289799050282E-01
    0.17223321229466990318E-01
    0.17223321269707717734E-01
    0.17223317071549424512E-01
    0.17223495539786574937E-01
    0.17223469918445647592E-01
    0.17223500186139009682E-01
    0.17223478219438453918E-01
    0.17223425935426209255E-01
    0.17223391967272495828E-01
    0.17223350586631890752E-01
    0.17223368171186859144E-01
    0.17223344392412229253E-01
    0.17223366884312859421E-01
    0.17223412565051783585E-01
    0.17223454916699781209E-01
    0.17223423348553885265E-01
    0.17223410370489616178E-01
    0.17223540207290569115E-01
    0.17223528076454906743E-01
    0.17223574483812835456E-01
    0.17223560270752166085E-01
    0.17223499705808890253E-01
    0.17223473413937831489E-01
    0.17223419741079572937E-01
    0.17223424506333920303E-01
    0.17223385834629862529E-01
    0.17223400357922219461E-01
    0.17223453127368063692E-01
    0.17223486992152953201E-01
    0.17223478162875834746E-01
    0.17223469795417570283E-01
    0.17223459206528297927E-01
    0.17223466448390380157E-01
    0.17223520100337834371E-01
    0.17223520100327127658E-01
    0.17223466448370569615E-01
    0.17223459206482223671E-01
    0.17223405488055766599E-01
    0.17223391066364231172E-01
    0.17223345131347832931E-01
    0.17223345131356093685E-01
    0.17223391066382123110E-01
    0.17223405488098298549E-01
    0.17223426432390009228E-01
    0.17223426432384468521E-01
    0.17223612317738324490E-01
    0.17223632015885746716E-01
    0.17223702780067181445E-01
    0.17223709934785190467E-01
    0.17223646118229532509E-01
    0.17223645418189492684E-01
    0.17223578012177168800E-01
    0.17223551533035202921E-01
    0.17223490301235103855E-01
    0.17223483207084649277E-01
    0.17223537464666167224E-01
    0.17223544949466568221E-01
    0.17223587154185121539E-01
    0.17223591290237590806E-01
    0.17223645418322223316E-01
    0.17223646118332092830E-01
    0.17223709934881356598E-01
    0.17223702780138287760E-01
    0.17223632015941396645E-01
    0.17223612317761739787E-01
    0.17223544949488571454E-01
    0.17223537464716789924E-01
    0.17223483207142138013E-01
    0.17223490301312850692E-01
    0.17223551533128957786E-01
    0.17223578012301482554E-01
    0.17223591290319865271E-01
    0.17223587154254167003E-01
    0.17223813914253309487E-01
    0.17223827532048978373E-01
    0.17223911565045778999E-01
    0.17223911565031415488E-01
    0.17223827532021861175E-01
    0.17223813914190040653E-01
    0.17223729963193535469E-01
    0.17223709786413566453E-01
    0.17223638086437450395E-01
    0.17223638086449454682E-01
    0.17223709786438827496E-01
    0.17223729963253359143E-01
    0.17223765670736492644E-01
    0.17223765670728797411E-01
    0.17223583737760141815E-01
    0.17223629932716151558E-01
    0.17223697166931041524E-01
    0.17223726617810991568E-01
    0.17223688880131166751E-01
    0.17223722625735658071E-01
    0.17223670727855886625E-01
    0.17223615566395639870E-01
    0.17223556067077098325E-01
    0.17223525902905090917E-01
    0.17223556062892712848E-01
    0.17223530825475858591E-01
    0.17223611366554307522E-01
    0.17223628757046308829E-01
    0.17223832747893075279E-01
    0.17223892451470268483E-01
    0.17223977868891598986E-01
    0.17224015613852654977E-01
    0.17223967926050798294E-01
    0.17224010656293524402E-01
    0.17223945178956385355E-01
    0.17223875366519304092E-01
    0.17223800023418063543E-01
    0.17223761462173088621E-01
    0.17223799216739024004E-01
    0.17223766014324098927E-01
    0.17223869526880535019E-01
    0.17223891785471821120E-01
    0.17223673796054765617E-01
    0.17223712627442218370E-01
    0.17223790662815395558E-01
    0.17223812170248480047E-01
    0.17223755324888127133E-01
    0.17223774220053382489E-01
    0.17223707186364761723E-01
    0.17223661030667903465E-01
    0.17223593001532172542E-01
    0.17223571301893753072E-01
    0.17223618168637426507E-01
    0.17223606429370697662E-01
    0.17223677812729831088E-01
    0.17223690373173766027E-01
    0.17223939183403348674E-01
    0.17223992250474287613E-01
    0.17224093203259568247E-01
    0.17224122677299617129E-01
    0.17224050291153824438E-01
    0.17224075675113522527E-01
    0.17223990278827216310E-01
    0.17223930322392499992E-01
    0.17223843704304735158E-01
    0.17223814495917682404E-01
    0.17223872451125367411E-01
    0.17223854049094124846E-01
    0.17223949447402978064E-01
    0.17223966458661189166E-01
    0.17224150842599889738E-01
    0.17224226740275433434E-01
    0.17224336449035780594E-01
    0.17224383835081322897E-01
    0.17224321626370574234E-01
    0.17224374878244696346E-01
    0.17224291588793235602E-01
    0.17224203530337052481E-01
    0.17224108340830188851E-01
    0.17224059713793413162E-01
    0.17224107635458240501E-01
    0.17224065714964428148E-01
    0.17224196788674272368E-01
    0.17224224785160377471E-01
    0.17224560418802922768E-01
    0.17224656596204788311E-01
    0.17224801387627192151E-01
    0.17224859968739826555E-01
    0.17224774945743651783E-01
    0.17224840595890716921E-01
    0.17224732721257015461E-01
    0.17224620613856812118E-01
    0.17224498639776906345E-01
    0.17224437201649782370E-01
    0.17224499957216855145E-01
    0.17224448222131968911E-01
    0.17224614626873305939E-01
    0.17224649689066732355E-01
    0.17224289058704059241E-01
    0.17224359844273482573E-01
    0.17224494782730258996E-01
    0.17224533393089581923E-01
    0.17224435184442467989E-01
    0.17224466143819634062E-01
    0.17224353543615976425E-01
    0.17224276994468313423E-01
    0.17224165038759623597E-01
    0.17224127506273344962E-01
    0.17224202359025622688E-01
    0.17224177628898874187E-01
    0.17224302957838683731E-01
    0.17224324966635593676E-01
    0.17224761513529480983E-01
    0.17224855660556315229E-01
    0.17225044838912462186E-01
    0.17225093249129127398E-01
    0.17224949947632177405E-01
    0.17224983314158823222E-01
    0.17224827669387224316E-01
    0.17224730492520375774E-01
    0.17224581006177172582E-01
    0.17224533972609711724E-01
    0.17224637075500814909E-01
    0.17224607357773369376E-01
    0.17224772571268458926E-01
    0.17224800107604933824E-01
    0.17223828455890249217E-01
    0.17223861691449428996E-01
    0.17223953625655801652E-01
    0.17223968418502783734E-01
    0.17223890413092694113E-01
    0.17223895838309657286E-01
    0.17223810940900034089E-01
    0.17223771574397774703E-01
    0.17223692520857192961E-01
    0.17223678328241572022E-01
    0.17223743299682774816E-01
    0.17223744338351002631E-01
    0.17223809517090567928E-01
    0.17223817879525048918E-01
    0.17224122205925663370E-01
    0.17224172125540195694E-01
    0.17224294244165123252E-01
    0.17224318290940267284E-01
    0.17224217695327601052E-01
    0.17224228751659326209E-01
    0.17224118338373679837E-01
    0.17224063910307691599E-01
    0.17223961302736040535E-01
    0.17223939533718216066E-01
    0.17224020041248320340E-01
    0.17224014815103085019E-01
    0.17224107926182438688E-01
    0.17224121048961978792E-01
    0.17224054941062886398E-01
    0.17224083462626740143E-01
    0.17224193750541131470E-01
    0.17224202050378216444E-01
    0.17224099025952822883E-01
    0.17224091278537464328E-01
    0.17223984871827784787E-01
    0.17223950522786173750E-01
    0.17223857223706520725E-01
    0.17223849899588600937E-01
    0.17223935684187695327E-01
    0.17223949856824592730E-01
    0.17224011265360682221E-01
    0.17224015725095714879E-01
    0.17224390441254049805E-01
    0.17224439342661459346E-01
    0.17224589014783811547E-01
    0.17224609149170028860E-01
    0.17224475452556980981E-01
    0.17224474202387408950E-01
    0.17224332873360132662E-01
    0.17224280063920842376E-01
    0.17224156237120688551E-01
    0.17224140484674049789E-01
    0.17224247249637884838E-01
    0.17224255118593434499E-01
    0.17224350400119617377E-01
    0.17224360507171639079E-01
    0.17224526344679899625E-01
    0.17224599601908092972E-01
    0.17224770367303080670E-01
    0.17224806483418588637E-01
    0.17224666126340441169E-01
    0.17224681393805452156E-01
    0.17224529448883772742E-01
    0.17224455561950128418E-01
    0.17224317739060787669E-01
    0.17224287270873453459E-01
    0.17224393215485259145E-01
    0.17224381979425523737E-01
    0.17224513370868183709E-01
    0.17224532272338839711E-01
    0.17225106862880652792E-01
    0.17225215202190981290E-01
    0.17225470461566898955E-01
    0.17225522122451542018E-01
    0.17225307939446578287E-01
    0.17225322218768161081E-01
    0.17225098519004278241E-01
    0.17224998474218152639E-01
    0.17224803223064192453E-01
    0.17224762527181119304E-01
    0.17224913861651171970E-01
    0.17224897951416299341E-01
    0.17225086660188220627E-01
    0.17225112666533700517E-01
    0.17224870663359474754E-01
    0.17224952451704633738E-01
    0.17225169894465614667E-01
    0.17225208898307278055E-01
    0.17225019570304436756E-01
    0.17225025353809170908E-01
    0.17224823391781208387E-01
    0.17224743525381881054E-01
    0.17224570242065802977E-01
    0.17224543329386832191E-01
    0.17224685517967425891E-01
    0.17224685389598828889E-01
    0.17224833450357510123E-01
    0.17224851795670258203E-01
    0.17225602116833722832E-01
    0.17225740495864283464E-01
    0.17226083305656326311E-01
    0.17226152776055773247E-01
    0.17225855782149211703E-01
    0.17225866137039747006E-01
    0.17225552670190470705E-01
    0.17225430698807015634E-01
    0.17225170444757357396E-01
    0.17225127781409416139E-01
    0.17225335655068629154E-01
    0.17225325545395426402E-01
    0.17225562586076968025E-01
    0.17225593420732564220E-01
    0.17223722626042506367E-01
    0.17223688880416244268E-01
    0.17223726618105315161E-01
    0.17223697167204315983E-01
    0.17223629932962270656E-01
    0.17223583737976343871E-01
    0.17223530825675785472E-01
    0.17223556063112981096E-01
    0.17223525903116484320E-01
    0.17223556067304721801E-01
    0.17223615566651119535E-01
    0.17223670728139572894E-01
    0.17223628757303544035E-01
    0.17223611366800641725E-01
    0.17223774220341051683E-01
    0.17223755325147933198E-01
    0.17223812170511013098E-01
    0.17223790663053090838E-01
    0.17223712627655530377E-01
    0.17223673796234094391E-01
    0.17223606429538792367E-01
    0.17223618168831968805E-01
    0.17223571302085984719E-01
    0.17223593001744488817E-01
    0.17223661030905210167E-01
    0.17223707186634264893E-01
    0.17223690373406600612E-01
    0.17223677812949558102E-01
    0.17224010656733696606E-01
    0.17223967926465612310E-01
    0.17224015614279209602E-01
    0.17223977869293742582E-01
    0.17223892451839372536E-01
    0.17223832748226735462E-01
    0.17223766014636838345E-01
    0.17223799217075837914E-01
    0.17223761462498460295E-01
    0.17223800023763141676E-01
    0.17223875366898171169E-01
    0.17223945179368926883E-01
    0.17223891785853238240E-01
    0.17223869527249066613E-01
    0.17224075675534571139E-01
    0.17224050291543419045E-01
    0.17224122677694461009E-01
    0.17224093203626222870E-01
    0.17223992250810657434E-01
    0.17223939183700191086E-01
    0.17223854049375070252E-01
    0.17223872451436490066E-01
    0.17223814496223913140E-01
    0.17223843704634526908E-01
    0.17223930322753204514E-01
    0.17223990279225599026E-01
    0.17223966459018250769E-01
    0.17223949447744933694E-01
    0.17223895838552952253E-01
    0.17223890413302044011E-01
    0.17223968418708379691E-01
    0.17223953625832812836E-01
    0.17223861691604811647E-01
    0.17223828456007624077E-01
    0.17223744338462101261E-01
    0.17223743299826389103E-01
    0.17223678328389366993E-01
    0.17223692521028861196E-01
    0.17223771574591654338E-01
    0.17223810941130197200E-01
    0.17223817879708298167E-01
    0.17223809517258499568E-01
    0.17224091278711370356E-01
    0.17224099026086795577E-01
    0.17224202050502075700E-01
    0.17224193750632717931E-01
    0.17224083462699400771E-01
    0.17224054941093597942E-01
    0.17223949856853888740E-01
    0.17223935684255453626E-01
    0.17223849899666934110E-01
    0.17223857223812484574E-01
    0.17223950522911597727E-01
    0.17223984871993527207E-01
    0.17224015725204426530E-01
    0.17224011265451914798E-01
    0.17224228752036115087E-01
    0.17224217695666860922E-01
    0.17224318291278337134E-01
    0.17224294244471239496E-01
    0.17224172125818754120E-01
    0.17224122206160683707E-01
    0.17224014815327128025E-01
    0.17224020041508594780E-01
    0.17223939533980076044E-01
    0.17223961303025243225E-01
    0.17224063910625059259E-01
    0.17224118338732819639E-01
    0.17224121049269552203E-01
    0.17224107926472706498E-01
    0.17224474202694992769E-01
    0.17224475452821037119E-01
    0.17224609149426532012E-01
    0.17224589015004666132E-01
    0.17224439342857413709E-01
    0.17224390441402493562E-01
    0.17224255118735747744E-01
    0.17224247249822400435E-01
    0.17224140484866545114E-01
    0.17224156237344304815E-01
    0.17224280064169903565E-01
    0.17224332873655004428E-01
    0.17224360507404810200E-01
    0.17224350400333307554E-01
    0.17224374878839883440E-01
    0.17224321626936999613E-01
    0.17224383835661858516E-01
    0.17224336449588744519E-01
    0.17224226740789778944E-01
    0.17224150843073562922E-01
    0.17224065715412725797E-01
    0.17224107635934154947E-01
    0.17224059714255435943E-01
    0.17224108341315224474E-01
    0.17224203530861507960E-01
    0.17224291589356573173E-01
    0.17224224785688149741E-01
    0.17224196789187257856E-01
    0.17224466144395798178E-01
    0.17224435184983805797E-01
    0.17224533393638614964E-01
    0.17224494783247938645E-01
    0.17224359844755239568E-01
    0.17224289059141039554E-01
    0.17224177629315478438E-01
    0.17224202359475943025E-01
    0.17224127506716296193E-01
    0.17224165039229424878E-01
    0.17224276994974689614E-01
    0.17224353544165189878E-01
    0.17224324967139117981E-01
    0.17224302958325221624E-01
    0.17224840596661329661E-01
    0.17224774946482349081E-01
    0.17224859969494910050E-01
    0.17224801388351720227E-01
    0.17224656596885424414E-01
    0.17224560419437942582E-01
    0.17224448222737411690E-01
    0.17224499957853255799E-01
    0.17224437202269980707E-01
    0.17224498640423240026E-01
    0.17224620614547873909E-01
    0.17224732721991851264E-01
    0.17224649689761825644E-01
    0.17224614627551849966E-01
    0.17224983314910596865E-01
    0.17224949948346078565E-01
    0.17225093249853100363E-01
    0.17225044839602160485E-01
    0.17224855661204695884E-01
    0.17224761514128134055E-01
    0.17224607358347330394E-01
    0.17224637076111812273E-01
    0.17224533973210935656E-01
    0.17224581006808379474E-01
    0.17224730493193483177E-01
    0.17224827670108026206E-01
    0.17224800108276022009E-01
    0.17224772571920794750E-01
    0.17224681394337651441E-01
    0.17224666126831756491E-01
    0.17224806483911205002E-01
    0.17224770367760575823E-01
    0.17224599602332316128E-01
    0.17224526345055304194E-01
    0.17224381979785399061E-01
    0.17224393215884911679E-01
    0.17224287271272162303E-01
    0.17224317739490156015E-01
    0.17224455562413375914E-01
    0.17224529449394003489E-01
    0.17224532272793118687E-01
    0.17224513371303269704E-01
    0.17225025354272571060E-01
    0.17225019570720912637E-01
    0.17225208898718768341E-01
    0.17225169894838219392E-01
    0.17224952452046565082E-01
    0.17224870663648549074E-01
    0.17224685389877186087E-01
    0.17224685518291562442E-01
    0.17224543329716405365E-01
    0.17224570242429831229E-01
    0.17224743525777113512E-01
    0.17224823392227521512E-01