# vtk DataFile Version 3.0
LAPLACIEN  2D
ASCII
DATASET UNSTRUCTURED_GRID
FIELD FieldData 1
TIME 1 1 double
8.6000
 POINTS        7297  float
   1.5625000000000000E-002  0.96875000000000000        0.0000000000000000     
   3.1250000000000000E-002  0.96875000000000000        0.0000000000000000     
   3.1250000000000000E-002  0.98437500000000000        0.0000000000000000     
   9.3749999999999997E-003  0.97812500000000002        0.0000000000000000     
   2.0312500000000001E-002  0.97968750000000004        0.0000000000000000     
   2.1874999999999999E-002  0.99062499999999998        0.0000000000000000     
   1.0937499999999999E-002  0.98906249999999996        0.0000000000000000     
   4.6875000000000000E-002  0.96875000000000000        0.0000000000000000     
   6.2500000000000000E-002  0.96875000000000000        0.0000000000000000     
   6.2500000000000000E-002  0.98437500000000000        0.0000000000000000     
   4.0625000000000001E-002  0.97812500000000002        0.0000000000000000     
   5.1562499999999997E-002  0.97968750000000004        0.0000000000000000     
   5.3124999999999999E-002  0.99062499999999998        0.0000000000000000     
   4.2187500000000003E-002  0.98906249999999996        0.0000000000000000     
   1.5625000000000000E-002  0.93750000000000000        0.0000000000000000     
   3.1250000000000000E-002  0.93750000000000000        0.0000000000000000     
   3.1250000000000000E-002  0.95312500000000000        0.0000000000000000     
   9.3749999999999997E-003  0.94687500000000002        0.0000000000000000     
   2.0312500000000001E-002  0.94843750000000004        0.0000000000000000     
   2.1874999999999999E-002  0.95937499999999998        0.0000000000000000     
   1.0937499999999999E-002  0.95781249999999996        0.0000000000000000     
   4.6875000000000000E-002  0.93750000000000000        0.0000000000000000     
   6.2500000000000000E-002  0.93750000000000000        0.0000000000000000     
   6.2500000000000000E-002  0.95312500000000000        0.0000000000000000     
   4.0625000000000001E-002  0.94687500000000002        0.0000000000000000     
   5.1562499999999997E-002  0.94843750000000004        0.0000000000000000     
   5.3124999999999999E-002  0.95937499999999998        0.0000000000000000     
   4.2187500000000003E-002  0.95781249999999996        0.0000000000000000     
   7.8125000000000000E-002  0.96875000000000000        0.0000000000000000     
   9.3750000000000000E-002  0.96875000000000000        0.0000000000000000     
   9.3750000000000000E-002  0.98437500000000000        0.0000000000000000     
   7.1874999999999994E-002  0.97812500000000002        0.0000000000000000     
   8.2812499999999997E-002  0.97968750000000004        0.0000000000000000     
   8.4375000000000006E-002  0.99062499999999998        0.0000000000000000     
   7.3437500000000003E-002  0.98906249999999996        0.0000000000000000     
  0.10937500000000000       0.96875000000000000        0.0000000000000000     
  0.12500000000000000       0.96875000000000000        0.0000000000000000     
  0.12500000000000000       0.98437500000000000        0.0000000000000000     
  0.10312499999999999       0.97812500000000002        0.0000000000000000     
  0.11406250000000000       0.97968750000000004        0.0000000000000000     
  0.11562500000000001       0.99062499999999998        0.0000000000000000     
  0.10468750000000000       0.98906249999999996        0.0000000000000000     
   7.8125000000000000E-002  0.93750000000000000        0.0000000000000000     
   9.3750000000000000E-002  0.93750000000000000        0.0000000000000000     
   9.3750000000000000E-002  0.95312500000000000        0.0000000000000000     
   7.1874999999999994E-002  0.94687500000000002        0.0000000000000000     
   8.2812499999999997E-002  0.94843750000000004        0.0000000000000000     
   8.4375000000000006E-002  0.95937499999999998        0.0000000000000000     
   7.3437500000000003E-002  0.95781249999999996        0.0000000000000000     
  0.10937500000000000       0.93750000000000000        0.0000000000000000     
  0.12500000000000000       0.93750000000000000        0.0000000000000000     
  0.12500000000000000       0.95312500000000000        0.0000000000000000     
  0.10312499999999999       0.94687500000000002        0.0000000000000000     
  0.11406250000000000       0.94843750000000004        0.0000000000000000     
  0.11562500000000001       0.95937499999999998        0.0000000000000000     
  0.10468750000000000       0.95781249999999996        0.0000000000000000     
   1.5625000000000000E-002  0.90625000000000000        0.0000000000000000     
   3.1250000000000000E-002  0.90625000000000000        0.0000000000000000     
   3.1250000000000000E-002  0.92187500000000000        0.0000000000000000     
   9.3749999999999997E-003  0.91562500000000002        0.0000000000000000     
   2.0312500000000001E-002  0.91718750000000004        0.0000000000000000     
   2.1874999999999999E-002  0.92812499999999998        0.0000000000000000     
   1.0937499999999999E-002  0.92656249999999996        0.0000000000000000     
   4.6875000000000000E-002  0.90625000000000000        0.0000000000000000     
   6.2500000000000000E-002  0.90625000000000000        0.0000000000000000     
   6.2500000000000000E-002  0.92187500000000000        0.0000000000000000     
   4.0625000000000001E-002  0.91562500000000002        0.0000000000000000     
   5.1562499999999997E-002  0.91718750000000004        0.0000000000000000     
   5.3124999999999999E-002  0.92812499999999998        0.0000000000000000     
   4.2187500000000003E-002  0.92656249999999996        0.0000000000000000     
   1.5625000000000000E-002  0.87500000000000000        0.0000000000000000     
   3.1250000000000000E-002  0.87500000000000000        0.0000000000000000     
   3.1250000000000000E-002  0.89062500000000000        0.0000000000000000     
   9.3749999999999997E-003  0.88437500000000002        0.0000000000000000     
   2.0312500000000001E-002  0.88593750000000004        0.0000000000000000     
   2.1874999999999999E-002  0.89687499999999998        0.0000000000000000     
   1.0937499999999999E-002  0.89531249999999996        0.0000000000000000     
   4.6875000000000000E-002  0.87500000000000000        0.0000000000000000     
   6.2500000000000000E-002  0.87500000000000000        0.0000000000000000     
   6.2500000000000000E-002  0.89062500000000000        0.0000000000000000     
   4.0625000000000001E-002  0.88437500000000002        0.0000000000000000     
   5.1562499999999997E-002  0.88593750000000004        0.0000000000000000     
   5.3124999999999999E-002  0.89687499999999998        0.0000000000000000     
   4.2187500000000003E-002  0.89531249999999996        0.0000000000000000     
   7.8125000000000000E-002  0.90625000000000000        0.0000000000000000     
   9.3750000000000000E-002  0.90625000000000000        0.0000000000000000     
   9.3750000000000000E-002  0.92187500000000000        0.0000000000000000     
   7.1874999999999994E-002  0.91562500000000002        0.0000000000000000     
   8.2812499999999997E-002  0.91718750000000004        0.0000000000000000     
   8.4375000000000006E-002  0.92812499999999998        0.0000000000000000     
   7.3437500000000003E-002  0.92656249999999996        0.0000000000000000     
  0.10937500000000000       0.90625000000000000        0.0000000000000000     
  0.12500000000000000       0.90625000000000000        0.0000000000000000     
  0.12500000000000000       0.92187500000000000        0.0000000000000000     
  0.10312499999999999       0.91562500000000002        0.0000000000000000     
  0.11406250000000000       0.91718750000000004        0.0000000000000000     
  0.11562500000000001       0.92812499999999998        0.0000000000000000     
  0.10468750000000000       0.92656249999999996        0.0000000000000000     
   7.8125000000000000E-002  0.87500000000000000        0.0000000000000000     
   9.3750000000000000E-002  0.87500000000000000        0.0000000000000000     
   9.3750000000000000E-002  0.89062500000000000        0.0000000000000000     
   7.1874999999999994E-002  0.88437500000000002        0.0000000000000000     
   8.2812499999999997E-002  0.88593750000000004        0.0000000000000000     
   8.4375000000000006E-002  0.89687499999999998        0.0000000000000000     
   7.3437500000000003E-002  0.89531249999999996        0.0000000000000000     
  0.10937500000000000       0.87500000000000000        0.0000000000000000     
  0.12500000000000000       0.87500000000000000        0.0000000000000000     
  0.12500000000000000       0.89062500000000000        0.0000000000000000     
  0.10312499999999999       0.88437500000000002        0.0000000000000000     
  0.11406250000000000       0.88593750000000004        0.0000000000000000     
  0.11562500000000001       0.89687499999999998        0.0000000000000000     
  0.10468750000000000       0.89531249999999996        0.0000000000000000     
  0.14062500000000000       0.96875000000000000        0.0000000000000000     
  0.15625000000000000       0.96875000000000000        0.0000000000000000     
  0.15625000000000000       0.98437500000000000        0.0000000000000000     
  0.13437499999999999       0.97812500000000002        0.0000000000000000     
  0.14531250000000001       0.97968750000000004        0.0000000000000000     
  0.14687500000000001       0.99062499999999998        0.0000000000000000     
  0.13593749999999999       0.98906249999999996        0.0000000000000000     
  0.17187500000000000       0.96875000000000000        0.0000000000000000     
  0.18750000000000000       0.96875000000000000        0.0000000000000000     
  0.18750000000000000       0.98437500000000000        0.0000000000000000     
  0.16562499999999999       0.97812500000000002        0.0000000000000000     
  0.17656250000000001       0.97968750000000004        0.0000000000000000     
[...]
 CELL_DATA       14336
 SCALARS Tumor_cells float
 LOOKUP_TABLE default
    0.23799904309400161939E-01
    0.23799904110762593740E-01
    0.23799905631024440705E-01
    0.23799905631023490077E-01
    0.23799904110761955361E-01
    0.23799904309396897190E-01
    0.23799903101216737106E-01
    0.23799902388734226616E-01
    0.23799901619090624294E-01
    0.23799901619087432403E-01
    0.23799902388736679515E-01
    0.23799903101217861207E-01
    0.23799902989576772472E-01
    0.23799902989575939805E-01
    0.23799909297002930231E-01
    0.23799910626612481163E-01
    0.23799914234467291207E-01
    0.23799915233590436536E-01
    0.23799912530328110744E-01
    0.23799913829905504359E-01
    0.23799910992859583253E-01
    0.23799908632492476623E-01
    0.23799906142753915472E-01
    0.23799905245939660670E-01
    0.23799906801694220571E-01
    0.23799906607646675177E-01
    0.23799909039797263743E-01
    0.23799909576242068987E-01
    0.23799913829917779262E-01
    0.23799912530337634375E-01
    0.23799915233600386910E-01
    0.23799914234474590924E-01
    0.23799910626617858805E-01
    0.23799909297004886999E-01
    0.23799906607648801948E-01
    0.23799906801697780223E-01
    0.23799905245943848292E-01
    0.23799906142758529837E-01
    0.23799908632499991445E-01
    0.23799910992869478116E-01
    0.23799909576249257681E-01
    0.23799909039803151395E-01
    0.23799920511734434792E-01
    0.23799921089716867539E-01
    0.23799926721026376519E-01
    0.23799926721024582815E-01
    0.23799921089713751976E-01
    0.23799920511727089972E-01
    0.23799915516415921790E-01
    0.23799914091206773176E-01
    0.23799910374212918107E-01
    0.23799910374213886083E-01
    0.23799914091209534855E-01
    0.23799915516422218836E-01
    0.23799917155462438356E-01
    0.23799917155461553647E-01
    0.23799922625430885298E-01
    0.23799926217257693500E-01
    0.23799933245895549261E-01
    0.23799935866639684856E-01
    0.23799931219329262949E-01
    0.23799934369434939258E-01
    0.23799928815483411410E-01
    0.23799923658836371482E-01
    0.23799918326807105451E-01
    0.23799916069513385453E-01
    0.23799918916471547725E-01
    0.23799917545550948461E-01
    0.23799923764367181267E-01
    0.23799925183552787106E-01
    0.23799949263651233589E-01
    0.23799956496883805518E-01
    0.23799968906509642863E-01
    0.23799973956533812536E-01
    0.23799966127440761593E-01
    0.23799971945057389611E-01
    0.23799962134793579971E-01
    0.23799952801656462653E-01
    0.23799943098890875143E-01
    0.23799938688349710214E-01
    0.23799943671151339852E-01
    0.23799940373990465664E-01
    0.23799952609841398821E-01
    0.23799955356469882500E-01
    0.23799937959014097477E-01
    0.23799940762198181637E-01
    0.23799950632539250417E-01
    0.23799951952423629292E-01
    0.23799943180904128970E-01
    0.23799943691061840184E-01
    0.23799935033952016039E-01
    0.23799931205497504294E-01
    0.23799924117993236788E-01
    0.23799923048589105568E-01
    0.23799928980507298326E-01
    0.23799929642513564104E-01
    0.23799935074206655938E-01
    0.23799935752956750262E-01
    0.23799970985079504232E-01
    0.23799977433800297705E-01
    0.23799994415099251510E-01
    0.23799997937277203586E-01
    0.23799983907244706693E-01
    0.23799986162138069001E-01
    0.23799971562599702563E-01
    0.23799963864765873861E-01
    0.23799951375512867074E-01
    0.23799948542979284388E-01
    0.23799957929207186946E-01
    0.23799957393318901810E-01
    0.23799968918416382346E-01
    0.23799970733108626042E-01
    0.23799934369462996675E-01
    0.23799931219353687856E-01
    0.23799935866665143658E-01
    0.23799933245917441471E-01
    0.23799926217275880341E-01
    0.23799922625444343283E-01
    0.23799917545562876420E-01
    0.23799918916486521858E-01
    0.23799916069527610185E-01
    0.23799918326823470832E-01
    0.23799923658856737135E-01
    0.23799928815507961216E-01
    0.23799925183573163168E-01
    0.23799923764385822605E-01
    0.23799943691084988334E-01
    0.23799943180922097236E-01
    0.23799951952440948771E-01
    0.23799950632552052676E-01
    0.23799940762207962008E-01
    0.23799937959018163669E-01
    0.23799929642517307637E-01
    0.23799928980515725613E-01
    0.23799923048598403685E-01
    0.23799924118005719859E-01
    0.23799931205513210480E-01
    0.23799935033972933335E-01
    0.23799935752970870911E-01
    0.23799935074218490222E-01
    0.23799971945107595978E-01
    0.23799966127486357065E-01
    0.23799973956581094159E-01
    0.23799968906552455838E-01
    0.23799956496921251259E-01
    0.23799949263682493306E-01
    0.23799940374018817985E-01
    0.23799943671183886734E-01
    0.23799938688380671559E-01
    0.23799943098925052665E-01
    0.23799952801696201699E-01
    0.23799962134839060951E-01
    0.23799955356509853999E-01
    0.23799952609879111709E-01
    0.23799986162183355692E-01
    0.23799983907283835116E-01
    0.23799997937316373642E-01
    0.23799994415132974535E-01
    0.23799977433829350854E-01
    0.23799970985101340931E-01
    0.23799957393339107870E-01
    0.23799957929233148818E-01
    0.23799948543005350343E-01
    0.23799951375543134530E-01
    0.23799963864800949970E-01
    0.23799971562641540623E-01
    0.23799970733142356005E-01
    0.23799968918447288180E-01
    0.23799967973073127281E-01
    0.23799970143648842974E-01
    0.23799984768151687814E-01
    0.23799984768148946951E-01
    0.23799970143643784520E-01
    0.23799967973061341570E-01
    0.23799954638629921416E-01
    0.23799951544971342104E-01
    0.23799941308060297562E-01
    0.23799941308062403517E-01
    0.23799951544975921774E-01
    0.23799954638640787724E-01
    0.23799959997706447712E-01
    0.23799959997705032178E-01
    0.23800013148592754492E-01
    0.23800019588615627109E-01
    0.23800044199221090380E-01
    0.23800046500221196111E-01
    0.23800023596846232171E-01
    0.23800022393222548811E-01
    0.23800000326198011286E-01
    0.23799993185169950743E-01
    0.23799975719739043661E-01
    0.23799974156750131754E-01
    0.23799989741114038755E-01
    0.23799992094555039862E-01
    0.23800004676140233684E-01
    0.23800005766928838957E-01
    0.23800022393256511227E-01
    0.23800023596872482007E-01
    0.23800046500245843062E-01
    0.23800044199239315384E-01
    0.23800019588629883066E-01
    0.23800013148598760104E-01
    0.23799992094560667305E-01
    0.23799989741126979792E-01
    0.23799974156764831801E-01
    0.23799975719758923592E-01
    0.23799993185193931561E-01
    0.23800000326229812236E-01
    0.23800005766949891561E-01
    0.23800004676157903577E-01
    0.23800088394955815074E-01
    0.23800094493833544307E-01
    0.23800131580108283003E-01
    0.23800131580104605389E-01
    0.23800094493826595005E-01
    0.23800088394939598879E-01
    0.23800054693346641560E-01
    0.23800047435782827748E-01
    0.23800021720419783922E-01
    0.23800021720422864790E-01
    0.23800047435789312145E-01
    0.23800054693361990393E-01
    0.23800068939628375719E-01
    0.23800068939626398135E-01
    0.23799997050791561748E-01
    0.23800010048767826498E-01
    0.23800031538846411205E-01
    0.23800040573771621966E-01
    0.23800027208665447409E-01
    0.23800037471054125843E-01
    0.23800020547444192265E-01
    0.23800004244630832556E-01
    0.23799987366285052515E-01
    0.23799979558567940785E-01
    0.23799988047851688977E-01
    0.23799981915081168393E-01
    0.23800003622623789462E-01
    0.23800008505612920556E-01
    0.23800080692331675863E-01
    0.23800103400482410659E-01
    0.23800140782784584559E-01
    0.23800156365760376243E-01
    0.23800133035394081121E-01
    0.23800150486933544652E-01
    0.23800121371467711229E-01
    0.23800093324651567378E-01
    0.23800064154657629700E-01
    0.23800050650953721160E-01
    0.23800065267287274368E-01
    0.23800054466250233909E-01
    0.23800092274014663513E-01
    0.23800100724374158995E-01
    0.23800030429110056313E-01
    0.23800043061526478250E-01
    0.23800072528884844147E-01
    0.23800079776310999885E-01
    0.23800056196498171890E-01
    0.23800061053752923079E-01
    0.23800035891177524772E-01
    0.23800021939366540480E-01
    0.23800000335796704654E-01
    0.23799994773180122021E-01
    0.23800010117968613960E-01
    0.23800007667082994506E-01
    0.23800029432481134561E-01
    0.23800033084622085333E-01
    0.23800136212234496852E-01
    0.23800159532023152514E-01
    0.23800211283724396344E-01
    0.23800224632197695268E-01
    0.23800183534668603591E-01
    0.23800192204483941461E-01
    0.23800148376334689243E-01
    0.23800123846625186042E-01
    0.23800086255392392809E-01
    0.23800076191656582836E-01
    0.23800102384248119497E-01
    0.23800097028067585675E-01
    0.23800136296518673712E-01
    0.23800142949982470986E-01
    0.23800225855958336701E-01
    0.23800264442144322685E-01
    0.23800328739956758128E-01
    0.23800354337293435497E-01
    0.23800313659481795586E-01
    0.23800342147889660960E-01
    0.23800292924006535150E-01
    0.23800245683594820761E-01
    0.23800196088739594691E-01
    0.23800173098698418350E-01
    0.23800198455760968735E-01
    0.23800180324899354589E-01
    0.23800244639155001408E-01
    0.23800258762565879717E-01
    0.23800473666538129319E-01
    0.23800536418286874496E-01
    0.23800645198401911701E-01
    0.23800684673541613878E-01
    0.23800614157029827828E-01
    0.23800658111356759461E-01
    0.23800577283642907617E-01
    0.23800500210457403716E-01
    0.23800417851638427241E-01
    0.23800379974908348474E-01
    0.23800423626050466047E-01
    0.23800394868982152619E-01
    0.23800500799431110327E-01
    0.23800523399654816697E-01
    0.23800324303783034624E-01
    0.23800365551846690282E-01
    0.23800457302151179634E-01
    0.23800479977947517490E-01
    0.23800406275551487523E-01
    0.23800419298819642383E-01
    0.23800342670661962102E-01
    0.23800301198779745537E-01
    0.23800235783664011602E-01
    0.23800218579911568140E-01
    0.23800264600554774108E-01
    0.23800255146509061155E-01
    0.23800324111177613429E-01
    0.23800335435112007776E-01
    0.23800656995367135832E-01
    0.23800726559236592278E-01
    0.23800888639518028023E-01
    0.23800923303932099845E-01
    0.23800789697603536715E-01
    0.23800804696967079593E-01
    0.23800671541023044747E-01
    0.23800604875154868223E-01
    0.23800492209160806212E-01
    0.23800464580157970618E-01
    0.23800547001990253471E-01
    0.23800533442464365946E-01
    0.23800650156947725233E-01
    0.23800667878558941920E-01
    0.23800093916681110823E-01
    0.23800107885910679051E-01
    0.23800149980812489864E-01
    0.23800156467770467589E-01
    0.23800118944589568337E-01
    0.23800119474666075331E-01
    0.23800081881023706087E-01
    0.23800067684226700743E-01
    0.23800037642399050203E-01
    0.23800033456607735949E-01
    0.23800058406534499444E-01
    0.23800059561505895744E-01
    0.23800084602390126493E-01
    0.23800087574211988006E-01
    0.23800238047139297276E-01
    0.23800266003296991629E-01
    0.23800340194111844344E-01
    0.23800354514150707380E-01
    0.23800289951377048836E-01
    0.23800293128618827537E-01
    0.23800227210311199200E-01
    0.23800200738645874154E-01
    0.23800148004821844450E-01
    0.23800139230600304147E-01
    0.23800181038772558195E-01
    0.23800179832102193872E-01
    0.23800227658256015856E-01
    0.23800234046487948880E-01
    0.23800202837548262852E-01
    0.23800218309590347870E-01
    0.23800279750532650491E-01
    0.23800284827366107593E-01
    0.23800226630286903245E-01
    0.23800221916121609006E-01
    0.23800165980469297627E-01
    0.23800149934454409295E-01
    0.23800106538587294247E-01
    0.23800103612943494108E-01
    0.23800143250941971362E-01
    0.23800149909694593570E-01
    0.23800180297325428808E-01
    0.23800182492183873106E-01
    0.23800403414862461582E-01
    0.23800437858757975129E-01
    0.23800543816225424448E-01
    0.23800560203770519674E-01
    0.23800464050501433239E-01
    0.23800463143393697091E-01
    0.23800366181815846983E-01
    0.23800333279437122652E-01
    0.23800257775063886345E-01
    0.23800249114810625300E-01
    0.23800312967871682657E-01
    0.23800317218266128783E-01
    0.23800378405501636248E-01
    0.23800385211249264900E-01
    0.23800499439101150539E-01
    0.23800552899128253614E-01
    0.23800686873155615236E-01
    0.23800714470967002101E-01
    0.23800598486589049502E-01
    0.23800604165980378257E-01
    0.23800486109796507861E-01
    0.23800438836339549847E-01
    0.23800344947215720109E-01
    0.23800328532287480521E-01
    0.23800401700623596141E-01
    0.23800396834325471263E-01
    0.23800485614599520279E-01
    0.23800497723619383483E-01
    0.23800978015099637231E-01
    0.23801075593358957116E-01
    0.23801320715809298062E-01
    0.23801368043479133318E-01
    0.23801153381469587061E-01
    0.23801156444286111769E-01
    0.23800943122054496470E-01
    0.23800863201961539733E-01
    0.23800695215496710938E-01
    0.23800667401817330454E-01
    0.23800800105052141026E-01
    0.23800791567678503124E-01
    0.23800951604738027761E-01
    0.23800972234936438460E-01
    0.23800767592239910342E-01
    0.23800840417301807883E-01
    0.23801031967060955891E-01
    0.23801070798943824852E-01
    0.23800901799596020647E-01
    0.23800907190824019399E-01
    0.23800732311877969422E-01
    0.23800668363016239115E-01
    0.23800532483969974451E-01
    0.23800512867980277293E-01
    0.23800621566779669308E-01
    0.23800619486140397324E-01
    0.23800741182578084854E-01
    0.23800757023952096025E-01
    0.23801449944521182317E-01
    0.23801595894199976261E-01
    0.23801953738359700463E-01
    0.23802032419292344645E-01
    0.23801719076444339401E-01
    0.23801729335338632498E-01
    0.23801405557006542757E-01
    0.23801287458274669045E-01
    0.23801037621944722000E-01
    0.23800999164507861960E-01
    0.23801194791966150122E-01
    0.23801181892988299005E-01
    0.23801417550354510289E-01
    0.23801449171357142581E-01
    0.23800037471132635958E-01
    0.23800027208738368245E-01
    0.23800040573846919373E-01
    0.23800031538916310153E-01
    0.23800010048830769205E-01
    0.23799997050846833507E-01
    0.23799981915132269877E-01
    0.23799988047908011979E-01
    0.23799979558621991299E-01
    0.23799987366343259426E-01
    0.23800004244696176120E-01
    0.23800020547516766156E-01
    0.23800008505678708209E-01
    0.23800003622686791149E-01
    0.23800061053826541274E-01
    0.23800056196564670780E-01
    0.23800079776378227359E-01
    0.23800072528945708655E-01
    0.23800043061581069997E-01
    0.23800030429155943218E-01
    0.23800007667125977484E-01
    0.23800010118018369298E-01
    0.23799994773229263267E-01
    0.23800000335850984151E-01
    0.23800021939427238454E-01
    0.23800035891246466152E-01
    0.23800033084681662676E-01
    0.23800029432537346541E-01
    0.23800150487046301678E-01
    0.23800133035500312118E-01
    0.23800156365869646474E-01
    0.23800140782887585500E-01
    0.23800103400576914925E-01
    0.23800080692417076300E-01
    0.23800054466330253233E-01
    0.23800065267373462369E-01
    0.23800050651036987887E-01
    0.23800064154745958350E-01
    0.23800093324748576584E-01
    0.23800121371573387113E-01
    0.23800100724471813518E-01
    0.23800092274108997775E-01
    0.23800192204591865547E-01
    0.23800183534768485499E-01
    0.23800224632299013527E-01
    0.23800211283818508562E-01
    0.23800159532109409904E-01
    0.23800136212310606110E-01
    0.23800097028139545474E-01
    0.23800102384327805755E-01
    0.23800076191734964581E-01
    0.23800086255476818331E-01
    0.23800123846717567005E-01
    0.23800148376436736086E-01
    0.23800142950073967241E-01
    0.23800136296606301534E-01
    0.23800119474728438640E-01
    0.23800118944643244151E-01
    0.23800156467823251755E-01
    0.23800149980857946558E-01
    0.23800107885950542996E-01
    0.23800093916711236031E-01
    0.23800059561534359087E-01
    0.23800058406571285990E-01
    0.23800033456645556390E-01
    0.23800037642442990748E-01
    0.23800067684276362406E-01
    0.23800081881082672808E-01
    0.23800087574258950440E-01
    0.23800084602433161513E-01
    0.23800221916166330177E-01
    0.23800226630321368732E-01
    0.23800284827398029974E-01
    0.23800279750556267017E-01
    0.23800218309609058598E-01
    0.23800202837556176660E-01
    0.23800149909702101453E-01
    0.23800143250959367169E-01
    0.23800103612963603023E-01
    0.23800106538614505119E-01
    0.23800149934486633518E-01
    0.23800165980511885089E-01
    0.23800182492211812563E-01
    0.23800180297348871861E-01
    0.23800293128715691027E-01
    0.23800289951464315835E-01
    0.23800354514237811315E-01
    0.23800340194190739568E-01
    0.23800266003368680812E-01
    0.23800238047199769736E-01
    0.23800179832159724241E-01
    0.23800181038839383213E-01
    0.23800139230667469170E-01
    0.23800148004896017756E-01
    0.23800200738727371463E-01
    0.23800227210403451794E-01
    0.23800234046566996760E-01
    0.23800227658330619374E-01
    0.23800463143473147426E-01
    0.23800464050569687668E-01
    0.23800560203836973461E-01
    0.23800543816282680731E-01
    0.23800437858808667219E-01
    0.23800403414900882237E-01
    0.23800317218302814715E-01
    0.23800312967919245305E-01
    0.23800249114860169003E-01
    0.23800257775121451409E-01
    0.23800333279501342115E-01
    0.23800366181891914608E-01
    0.23800385211309463274E-01
    0.23800378405556807393E-01
    0.23800342148042469281E-01
    0.23800313659627182761E-01
    0.23800354337442514163E-01
    0.23800328740098717489E-01
    0.23800264442276269222E-01
    0.23800225856079805509E-01
    0.23800180325014217569E-01
    0.23800198455882954490E-01
    0.23800173098816816697E-01
    0.23800196088863929261E-01
    0.23800245683729348567E-01
    0.23800292924151152107E-01
    0.23800258762701264476E-01
    0.23800244639286569776E-01
    0.23800419298967735726E-01
    0.23800406275690681734E-01
    0.23800479978088897454E-01
    0.23800457302284527827E-01
    0.23800365551970605049E-01
    0.23800324303895385725E-01
    0.23800255146616003388E-01
    0.23800264600670369142E-01
    0.23800218580025161302E-01
    0.23800235783784512433E-01
    0.23800301198909756123E-01
    0.23800342670802998590E-01
    0.23800335435241373044E-01
    0.23800324111302617602E-01
    0.23800658111555305502E-01
    0.23800614157220099237E-01
    0.23800684673736281077E-01
    0.23800645198588630397E-01
    0.23800536418462067689E-01
    0.23800473666701460473E-01
    0.23800394869137684456E-01
    0.23800423626214036593E-01
    0.23800379975067668947E-01
    0.23800417851804551300E-01
    0.23800500210635219811E-01
    0.23800577283832207581E-01
    0.23800523399833690974E-01
    0.23800500799605679020E-01
    0.23800804697161163925E-01
    0.23800789697787996801E-01
    0.23800923304119613044E-01
    0.23800888639696697602E-01
    0.23800726559404149218E-01
    0.23800656995521741327E-01
    0.23800533442612230306E-01
    0.23800547002147658809E-01
    0.23800464580312621216E-01
    0.23800492209323211024E-01
    0.23800604875328330162E-01
    0.23800671541208871795E-01
    0.23800667878732084670E-01
    0.23800650157116038513E-01
    0.23800604166117792643E-01
    0.23800598486716020852E-01
    0.23800714471094611829E-01
    0.23800686873274173178E-01
    0.23800552899237943649E-01
    0.23800499439198208318E-01
    0.23800396834418244274E-01
    0.23800401700726586673E-01
    0.23800328532390047781E-01
    0.23800344947326183831E-01
    0.23800438836458936986E-01
    0.23800486109928058881E-01
    0.23800497723736626504E-01
    0.23800485614711812399E-01
    0.23800907190944551456E-01
    0.23800901799704454742E-01
    0.23801070799051349952E-01
    0.23801031967158367553E-01
    0.23800840417390892872E-01
    0.23800767592315200810E-01
    0.23800619486212572229E-01
    0.23800621566863706252E-01
    0.23800512868065507727E-01
    0.23800532484064135241E-01
    0.23800668363118740456E-01
    0.23800732311993789969E-01