# vtk DataFile Version 3.0
LAPLACIEN  2D
ASCII
DATASET UNSTRUCTURED_GRID
FIELD FieldData 1
TIME 1 1 double
19.9000
 POINTS        7297  float
   1.5625000000000000E-002  0.96875000000000000        0.0000000000000000     
   3.1250000000000000E-002  0.96875000000000000        0.0000000000000000     
   3.1250000000000000E-002  0.98437500000000000        0.0000000000000000     
   9.3749999999999997E-003  0.97812500000000002        0.0000000000000000     
   2.0312500000000001E-002  0.97968750000000004        0.0000000000000000     
   2.1874999999999999E-002  0.99062499999999998        0.0000000000000000     
   1.0937499999999999E-002  0.98906249999999996        0.0000000000000000     
   4.6875000000000000E-002  0.96875000000000000        0.0000000000000000     
   6.2500000000000000E-002  0.96875000000000000        0.0000000000000000     
   6.2500000000000000E-002  0.98437500000000000        0.0000000000000000     
   4.0625000000000001E-002  0.97812500000000002        0.0000000000000000     
   5.1562499999999997E-002  0.97968750000000004        0.0000000000000000     
   5.3124999999999999E-002  0.99062499999999998        0.0000000000000000     
   4.2187500000000003E-002  0.98906249999999996        0.0000000000000000     
   1.5625000000000000E-002  0.93750000000000000        0.0000000000000000     
   3.1250000000000000E-002  0.93750000000000000        0.0000000000000000     
   3.1250000000000000E-002  0.95312500000000000        0.0000000000000000     
   9.3749999999999997E-003  0.94687500000000002        0.0000000000000000     
   2.0312500000000001E-002  0.94843750000000004        0.0000000000000000     
   2.1874999999999999E-002  0.95937499999999998        0.0000000000000000     
   1.0937499999999999E-002  0.95781249999999996        0.0000000000000000     
   4.6875000000000000E-002  0.93750000000000000        0.0000000000000000     
   6.2500000000000000E-002  0.93750000000000000        0.0000000000000000     
   6.2500000000000000E-002  0.95312500000000000        0.0000000000000000     
   4.0625000000000001E-002  0.94687500000000002        0.0000000000000000     
   5.1562499999999997E-002  0.94843750000000004        0.0000000000000000     
   5.3124999999999999E-002  0.95937499999999998        0.0000000000000000     
   4.2187500000000003E-002  0.95781249999999996        0.0000000000000000     
   7.8125000000000000E-002  0.96875000000000000        0.0000000000000000     
   9.3750000000000000E-002  0.96875000000000000        0.0000000000000000     
   9.3750000000000000E-002  0.98437500000000000        0.0000000000000000     
   7.1874999999999994E-002  0.97812500000000002        0.0000000000000000     
   8.2812499999999997E-002  0.97968750000000004        0.0000000000000000     
   8.4375000000000006E-002  0.99062499999999998        0.0000000000000000     
   7.3437500000000003E-002  0.98906249999999996        0.0000000000000000     
  0.10937500000000000       0.96875000000000000        0.0000000000000000     
  0.12500000000000000       0.96875000000000000        0.0000000000000000     
  0.12500000000000000       0.98437500000000000        0.0000000000000000     
  0.10312499999999999       0.97812500000000002        0.0000000000000000     
  0.11406250000000000       0.97968750000000004        0.0000000000000000     
  0.11562500000000001       0.99062499999999998        0.0000000000000000     
  0.10468750000000000       0.98906249999999996        0.0000000000000000     
   7.8125000000000000E-002  0.93750000000000000        0.0000000000000000     
   9.3750000000000000E-002  0.93750000000000000        0.0000000000000000     
   9.3750000000000000E-002  0.95312500000000000        0.0000000000000000     
   7.1874999999999994E-002  0.94687500000000002        0.0000000000000000     
   8.2812499999999997E-002  0.94843750000000004        0.0000000000000000     
   8.4375000000000006E-002  0.95937499999999998        0.0000000000000000     
   7.3437500000000003E-002  0.95781249999999996        0.0000000000000000     
  0.10937500000000000       0.93750000000000000        0.0000000000000000     
  0.12500000000000000       0.93750000000000000        0.0000000000000000     
  0.12500000000000000       0.95312500000000000        0.0000000000000000     
  0.10312499999999999       0.94687500000000002        0.0000000000000000     
  0.11406250000000000       0.94843750000000004        0.0000000000000000     
  0.11562500000000001       0.95937499999999998        0.0000000000000000     
  0.10468750000000000       0.95781249999999996        0.0000000000000000     
   1.5625000000000000E-002  0.90625000000000000        0.0000000000000000     
   3.1250000000000000E-002  0.90625000000000000        0.0000000000000000     
   3.1250000000000000E-002  0.92187500000000000        0.0000000000000000     
   9.3749999999999997E-003  0.91562500000000002        0.0000000000000000     
   2.0312500000000001E-002  0.91718750000000004        0.0000000000000000     
   2.1874999999999999E-002  0.92812499999999998        0.0000000000000000     
   1.0937499999999999E-002  0.92656249999999996        0.0000000000000000     
   4.6875000000000000E-002  0.90625000000000000        0.0000000000000000     
   6.2500000000000000E-002  0.90625000000000000        0.0000000000000000     
   6.2500000000000000E-002  0.92187500000000000        0.0000000000000000     
   4.0625000000000001E-002  0.91562500000000002        0.0000000000000000     
   5.1562499999999997E-002  0.91718750000000004        0.0000000000000000     
   5.3124999999999999E-002  0.92812499999999998        0.0000000000000000     
   4.2187500000000003E-002  0.92656249999999996        0.0000000000000000     
   1.5625000000000000E-002  0.87500000000000000        0.0000000000000000     
   3.1250000000000000E-002  0.87500000000000000        0.0000000000000000     
   3.1250000000000000E-002  0.89062500000000000        0.0000000000000000     
   9.3749999999999997E-003  0.88437500000000002        0.0000000000000000     
   2.0312500000000001E-002  0.88593750000000004        0.0000000000000000     
   2.1874999999999999E-002  0.89687499999999998        0.0000000000000000     
   1.0937499999999999E-002  0.89531249999999996        0.0000000000000000     
   4.6875000000000000E-002  0.87500000000000000        0.0000000000000000     
   6.2500000000000000E-002  0.87500000000000000        0.0000000000000000     
   6.2500000000000000E-002  0.89062500000000000        0.0000000000000000     
   4.0625000000000001E-002  0.88437500000000002        0.0000000000000000     
   5.1562499999999997E-002  0.88593750000000004        0.0000000000000000     
   5.3124999999999999E-002  0.89687499999999998        0.0000000000000000     
   4.2187500000000003E-002  0.89531249999999996        0.0000000000000000     
   7.8125000000000000E-002  0.90625000000000000        0.0000000000000000     
   9.3750000000000000E-002  0.90625000000000000        0.0000000000000000     
   9.3750000000000000E-002  0.92187500000000000        0.0000000000000000     
   7.1874999999999994E-002  0.91562500000000002        0.0000000000000000     
   8.2812499999999997E-002  0.91718750000000004        0.0000000000000000     
   8.4375000000000006E-002  0.92812499999999998        0.0000000000000000     
   7.3437500000000003E-002  0.92656249999999996        0.0000000000000000     
  0.10937500000000000       0.90625000000000000        0.0000000000000000     
  0.12500000000000000       0.90625000000000000        0.0000000000000000     
  0.12500000000000000       0.92187500000000000        0.0000000000000000     
  0.10312499999999999       0.91562500000000002        0.0000000000000000     
  0.11406250000000000       0.91718750000000004        0.0000000000000000     
  0.11562500000000001       0.92812499999999998        0.0000000000000000     
  0.10468750000000000       0.92656249999999996        0.0000000000000000     
   7.8125000000000000E-002  0.87500000000000000        0.0000000000000000     
   9.3750000000000000E-002  0.87500000000000000        0.0000000000000000     
   9.3750000000000000E-002  0.89062500000000000        0.0000000000000000     
   7.1874999999999994E-002  0.88437500000000002        0.0000000000000000     
   8.2812499999999997E-002  0.88593750000000004        0.0000000000000000     
   8.4375000000000006E-002  0.89687499999999998        0.0000000000000000     
   7.3437500000000003E-002  0.89531249999999996        0.0000000000000000     
  0.10937500000000000       0.87500000000000000        0.0000000000000000     
  0.12500000000000000       0.87500000000000000        0.0000000000000000     
  0.12500000000000000       0.89062500000000000        0.0000000000000000     
  0.10312499999999999       0.88437500000000002        0.0000000000000000     
  0.11406250000000000       0.88593750000000004        0.0000000000000000     
  0.11562500000000001       0.89687499999999998        0.0000000000000000     
  0.10468750000000000       0.89531249999999996        0.0000000000000000     
  0.14062500000000000       0.96875000000000000        0.0000000000000000     
  0.15625000000000000       0.96875000000000000        0.0000000000000000     
  0.15625000000000000       0.98437500000000000        0.0000000000000000     
  0.13437499999999999       0.97812500000000002        0.0000000000000000     
  0.14531250000000001       0.97968750000000004        0.0000000000000000     
  0.14687500000000001       0.99062499999999998        0.0000000000000000     
  0.13593749999999999       0.98906249999999996        0.0000000000000000     
  0.17187500000000000       0.96875000000000000        0.0000000000000000     
  0.18750000000000000       0.96875000000000000        0.0000000000000000     
  0.18750000000000000       0.98437500000000000        0.0000000000000000     
  0.16562499999999999       0.97812500000000002        0.0000000000000000     
  0.17656250000000001       0.97968750000000004        0.0000000000000000     
[...]
 CELL_DATA       14336
 SCALARS Tumor_cells float
 LOOKUP_TABLE default
    0.70179332357262397268E-01
    0.70179331829510097074E-01
    0.70179336017370239076E-01
    0.70179336017368976197E-01
    0.70179331829515051444E-01
    0.70179332357258067399E-01
    0.70179329040859966815E-01
    0.70179327077948203129E-01
    0.70179324955402966335E-01
    0.70179324955374322581E-01
    0.70179327077962927461E-01
    0.70179329040853832833E-01
    0.70179328736722126902E-01
    0.70179328736717463966E-01
    0.70179346146867285783E-01
    0.70179349820851347208E-01
    0.70179359801241236738E-01
    0.70179362564461070240E-01
    0.70179355077539112839E-01
    0.70179358660510532397E-01
    0.70179350815033764155E-01
    0.70179344300453777583E-01
    0.70179337419633086581E-01
    0.70179334966439174681E-01
    0.70179339244117566743E-01
    0.70179338718927467000E-01
    0.70179345435182283186E-01
    0.70179346905780246035E-01
    0.70179358660511365064E-01
    0.70179355077538363439E-01
    0.70179362564461403307E-01
    0.70179359801240945305E-01
    0.70179349820852582331E-01
    0.70179346146865759226E-01
    0.70179338718930533991E-01
    0.70179339244114596896E-01
    0.70179334966443102095E-01
    0.70179337419629422845E-01
    0.70179344300455692718E-01
    0.70179350815033111899E-01
    0.70179346905781189725E-01
    0.70179345435181852975E-01
    0.70179377214023369591E-01
    0.70179378829361163672E-01
    0.70179394472120404380E-01
    0.70179394472120293358E-01
    0.70179378829361496739E-01
    0.70179377214022911624E-01
    0.70179363360541646699E-01
    0.70179359418664141734E-01
    0.70179349129360663051E-01
    0.70179349129359164250E-01
    0.70179359418665099302E-01
    0.70179363360541049954E-01
    0.70179367915463253258E-01
    0.70179367915462975702E-01
    0.70179383063901895623E-01
    0.70179393027867742472E-01
    0.70179412558090209506E-01
    0.70179419837198470100E-01
    0.70179406912554767595E-01
    0.70179415656423535519E-01
    0.70179400223608370823E-01
    0.70179385910746433508E-01
    0.70179371117510672140E-01
    0.70179364866568227921E-01
    0.70179372760177424762E-01
    0.70179368967454164308E-01
    0.70179386209481414705E-01
    0.70179390145762757247E-01
    0.70179457138386511228E-01
    0.70179477282307237140E-01
    0.70179511889109466583E-01
    0.70179525968973408001E-01
    0.70179504114883120569E-01
    0.70179520325600847075E-01
    0.70179492962827758062E-01
    0.70179466959730665843E-01
    0.70179439938292675905E-01
    0.70179427668249444450E-01
    0.70179441544362161642E-01
    0.70179432376893793877E-01
    0.70179466436364038029E-01
    0.70179474085830140240E-01
    0.70179425734447159480E-01
    0.70179433534642718384E-01
    0.70179461030251272247E-01
    0.70179464698598315042E-01
    0.70179440246853616592E-01
    0.70179441642789289202E-01
    0.70179417540950847498E-01
    0.70179406910816699572E-01
    0.70179387214850369459E-01
    0.70179384251786935955E-01
    0.70179400745956230234E-01
    0.70179402593881431982E-01
    0.70179417690787102013E-01
    0.70179419574031148832E-01
    0.70179517803466970327E-01
    0.70179535796564912475E-01
    0.70179583239463938504E-01
    0.70179593068249834786E-01
    0.70179553838003713717E-01
    0.70179560099057541889E-01
    0.70179519318746164114E-01
    0.70179497863391462897E-01
    0.70179463034088493401E-01
    0.70179455152858366551E-01
    0.70179481342542829325E-01
    0.70179479868314145752E-01
    0.70179511998924290483E-01
    0.70179517054735685022E-01
    0.70179415656423993486E-01
    0.70179406912554934128E-01
    0.70179419837198817045E-01
    0.70179412558090403795E-01
    0.70179393027868214316E-01
    0.70179383063901687456E-01
    0.70179368967454941464E-01
    0.70179372760177091695E-01
    0.70179364866569018955E-01
    0.70179371117510366829E-01
    0.70179385910746988619E-01
    0.70179400223608578990E-01
    0.70179390145763187459E-01
    0.70179386209481608994E-01
    0.70179441642789663902E-01
    0.70179440246853797003E-01
    0.70179464698598634231E-01
    0.70179461030251438780E-01
    0.70179433534642940429E-01
    0.70179425734447076213E-01
    0.70179402593881667904E-01
    0.70179400745956063701E-01
    0.70179384251787421678E-01
    0.70179387214850202925E-01
    0.70179406910817032639E-01
    0.70179417540950958521E-01
    0.70179419574031398632E-01
    0.70179417690787213036E-01
    0.70179520325601693620E-01
    0.70179504114883828336E-01
    0.70179525968974199035E-01
    0.70179511889110174350E-01
    0.70179477282307889396E-01
    0.70179457138386885928E-01
    0.70179432376894251844E-01
    0.70179441544362522465E-01
    0.70179427668249930172E-01
    0.70179439938293078360E-01
    0.70179466959731304221E-01
    0.70179492962828521341E-01
    0.70179474085830764740E-01
    0.70179466436364607018E-01
    0.70179560099058346800E-01
    0.70179553838004393729E-01
    0.70179593068250611942E-01
    0.70179583239464604638E-01
    0.70179535796565467587E-01
    0.70179517803467345027E-01
    0.70179479868314520452E-01
    0.70179481342543190148E-01
    0.70179455152858838396E-01
    0.70179463034088895856E-01
    0.70179497863392087398E-01
    0.70179519318746871881E-01
    0.70179517054736295645E-01
    0.70179511998924817839E-01
    0.70179509415583443688E-01
    0.70179515487456781142E-01
    0.70179556335270343315E-01
    0.70179556335270287803E-01
    0.70179515487456725631E-01
    0.70179509415583193888E-01
    0.70179472207807833128E-01
    0.70179463590983745536E-01
    0.70179435060790565371E-01
    0.70179435060790454348E-01
    0.70179463590983912069E-01
    0.70179472207807985784E-01
    0.70179487169814730452E-01
    0.70179487169814688818E-01
    0.70179635706045434551E-01
    0.70179653726263682700E-01
    0.70179722624390566965E-01
    0.70179729062841478271E-01
    0.70179664925636153772E-01
    0.70179661530532358449E-01
    0.70179599786418481178E-01
    0.70179579842182260307E-01
    0.70179531033752309832E-01
    0.70179526676923967288E-01
    0.70179570233577598382E-01
    0.70179576816834690622E-01
    0.70179611992845170043E-01
    0.70179615039902096263E-01
    0.70179661530533135605E-01
    0.70179664925636750517E-01
    0.70179729062842144405E-01
    0.70179722624391094321E-01
    0.70179653726264099034E-01
    0.70179635706045628840E-01
    0.70179576816834829400E-01
    0.70179570233577862060E-01
    0.70179526676924272599E-01
    0.70179531033752670655E-01
    0.70179579842182759908E-01
    0.70179599786419147311E-01
    0.70179615039902581985E-01
    0.70179611992845572499E-01
    0.70179846484579547217E-01
    0.70179863596711120066E-01
    0.70179967598516773686E-01
    0.70179967598516690419E-01
    0.70179863596710939655E-01
    0.70179846484579075372E-01
    0.70179752031887671082E-01
    0.70179731711213028111E-01
    0.70179659697428009579E-01
    0.70179659697428092846E-01
    0.70179731711213264034E-01
    0.70179752031888184560E-01
    0.70179791963967771973E-01
    0.70179791963967716462E-01
    0.70179590481618814302E-01
    0.70179626799660832503E-01
    0.70179686910348149098E-01
    0.70179712180387376907E-01
    0.70179674760557572699E-01
    0.70179703450839667211E-01
    0.70179656102380055804E-01
    0.70179610530012134784E-01
    0.70179563369881139967E-01
    0.70179541571223205687E-01
    0.70179565295509269141E-01
    0.70179548183332024491E-01
    0.70179608809624760557E-01
    0.70179622454808965326E-01
    0.70179824554856357066E-01
    0.70179888162321846234E-01
    0.70179992974764363045E-01
    0.70180036657688793511E-01
    0.70179971194411772117E-01
    0.70180020099536000178E-01
    0.70179938459707214005E-01
    0.70179859861519394704E-01
    0.70179778141610124620E-01
    0.70179740335288592901E-01
    0.70179781290490184098E-01
    0.70179751065600134985E-01
    0.70179856943891560928E-01
    0.70179880618039480744E-01
    0.70179683980487128636E-01
    0.70179719320715081010E-01
    0.70179801859442295098E-01
    0.70179822146691869800E-01
    0.70179756044554092442E-01
    0.70179769596606267346E-01
    0.70179699121333330436E-01
    0.70179660109535538237E-01
    0.70179599681086390905E-01
    0.70179584152113477780E-01
    0.70179627094573662771E-01
    0.70179620270985704211E-01
    0.70179681129848570098E-01
    0.70179691338434116443E-01
    0.70179980403565239699E-01
    0.70180045789842410153E-01
    0.70180191026090632533E-01
    0.70180228461386690020E-01
    0.70180113056239057379E-01
    0.70180137313865992299E-01
    0.70180014313021760186E-01
    0.70179945564577059236E-01
    0.70179840168379359344E-01
    0.70179811996174554234E-01
    0.70179885463343152918E-01
    0.70179870492021387274E-01
    0.70179980551968321190E-01
    0.70179999194540432228E-01
    0.70180231678262719464E-01
    0.70180339960167509306E-01
    0.70180520530330775530E-01
    0.70180592383132331391E-01
    0.70180478095612008893E-01
    0.70180558059598177612E-01
    0.70180419821417136528E-01
    0.70180287211685121740E-01
    0.70180148016200191718E-01
    0.70180083518306235479E-01
    0.70180154701061189804E-01
    0.70180103862410900262E-01
    0.70180284315712271326E-01
    0.70180323951014950135E-01
    0.70180927696472911181E-01
    0.70181103998530267041E-01
    0.70181409779462550214E-01
    0.70181520696924237779E-01
    0.70181322422080763546E-01
    0.70181445926741553576E-01
    0.70181218722894844753E-01
    0.70181002126732450197E-01
    0.70180770705311146251E-01
    0.70180664306639994887E-01
    0.70180786982393592033E-01
    0.70180706239699602866E-01
    0.70181003832394853181E-01
    0.70181067326981427801E-01
    0.70180508400090407806E-01
    0.70180624221701459753E-01
    0.70180882042789188846E-01
    0.70180945709488254391E-01
    0.70180738531645789346E-01
    0.70180775030221631550E-01
    0.70180559705166831175E-01
    0.70180443283217236461E-01
    0.70180259583348489349E-01
    0.70180211331112407613E-01
    0.70180340607593746927E-01
    0.70180314125400100611E-01
    0.70180507737289732351E-01
    0.70180539515737078160E-01
    0.70181443355761388703E-01
    0.70181638872822957320E-01
    0.70182094652707430193E-01
    0.70182192059098702508E-01
    0.70181816271896749204E-01
    0.70181858332725929883E-01
    0.70181483891075702175E-01
    0.70181296557105032896E-01
    0.70180979849922484060E-01
    0.70180902257732047378E-01
    0.70181134001834108438E-01
    0.70181095978219046327E-01
    0.70181423979847126771E-01
    0.70181473763229640372E-01
    0.70179861944639709836E-01
    0.70179901103813904784E-01
    0.70180019167570731331E-01
    0.70180037359078739634E-01
    0.70179932076303519484E-01
    0.70179933520589696250E-01
    0.70179828100822683190E-01
    0.70179788349004929016E-01
    0.70179704193071457130E-01
    0.70179692491370820884E-01
    0.70179762397360817561E-01
    0.70179765649074909994E-01
    0.70179835800658327272E-01
    0.70179844122214424251E-01
    0.70180266360425153094E-01
    0.70180344846709222240E-01
    0.70180553235722281658E-01
    0.70180593448636641174E-01
    0.70180412051264198792E-01
    0.70180420917943950321E-01
    0.70180235781385588711E-01
    0.70180161511813665687E-01
    0.70180013511983441177E-01
    0.70179988924626304780E-01
    0.70180106279779663758E-01
    0.70180102918879869178E-01
    0.70180237142182785859E-01
    0.70180255064498597850E-01
    0.70180167569230691993E-01
    0.70180211004470777203E-01
    0.70180383522424477638E-01
    0.70180397781304013072E-01
    0.70180234350532139098E-01
    0.70180221096687367410E-01
    0.70180064084490498266E-01
    0.70180019074699562243E-01
    0.70179897342520364267E-01
    0.70179889147417851003E-01
    0.70180000342728962592E-01
    0.70180019026026996265E-01
    0.70180104295981357576E-01
    0.70180110452832206169E-01
    0.70180730941465443995E-01
    0.70180827740736556608E-01
    0.70181125538525207519E-01
    0.70181171608874909351E-01
    0.70180901332321313224E-01
    0.70180898759607132642E-01
    0.70180626272111412689E-01
    0.70180533857275476106E-01
    0.70180321767863901306E-01
    0.70180297460612217630E-01
    0.70180476823195322988E-01
    0.70180488761820328247E-01
    0.70180660661602473072E-01
    0.70180679780362270614E-01
    0.70181000734664905627E-01
    0.70181150985135637432E-01
    0.70181527636769283629E-01
    0.70181605199645738513E-01
    0.70181279061824933252E-01
    0.70181294947691791331E-01
    0.70180963051032441147E-01
    0.70180830260831744694E-01
    0.70180566426281995596E-01
    0.70180520352413386376E-01
    0.70180725988341269295E-01
    0.70180712353688695648E-01
    0.70180961809671815743E-01
    0.70180995821293543080E-01
    0.70182346352065452799E-01
    0.70182620751395821679E-01
    0.70183310225049450048E-01
    0.70183443301620768162E-01
    0.70182839439367594725E-01
    0.70182847951559892974E-01
    0.70182247927465579718E-01
    0.70182023253916342442E-01
    0.70181550864714989380E-01
    0.70181472717140619411E-01
    0.70181845929922340166E-01
    0.70181821987391188045E-01
    0.70182271972235713009E-01
    0.70182329961306105792E-01
    0.70181754705583687670E-01
    0.70181959498700582922E-01
    0.70182498203278417814E-01
    0.70182607413366279725E-01
    0.70182132097361057954E-01
    0.70182147224946492270E-01
    0.70181655427687381077E-01
    0.70181475652305369550E-01
    0.70181093639523142724E-01
    0.70181038515149632429E-01
    0.70181344112894034071E-01
    0.70181338271348966962E-01
    0.70181680432561441285E-01
    0.70181724971784473222E-01
    0.70183673906487942240E-01
    0.70184084456885398318E-01
    0.70185091144550834641E-01
    0.70185312466034641132E-01
    0.70184430944176007250E-01
    0.70184459743082350247E-01
    0.70183548909435927721E-01
    0.70183216753960511736E-01
    0.70182514018085506713E-01
    0.70182405884948020902E-01
    0.70182956152393061178E-01
    0.70182919885806605009E-01
    0.70183582744750158677E-01
    0.70183671679594161752E-01
    0.70179703450841318668E-01
    0.70179674760559029867E-01
    0.70179712180388945097E-01
    0.70179686910349564632E-01
    0.70179626799662067627E-01
    0.70179590481619813502E-01
    0.70179548183332884914E-01
    0.70179565295510282219E-01
    0.70179541571224163254E-01
    0.70179563369882208557E-01
    0.70179610530013453173E-01
    0.70179656102381610117E-01
    0.70179622454810242083E-01
    0.70179608809625954047E-01
    0.70179769596607877169E-01
    0.70179756044555605121E-01
    0.70179822146693549012E-01
    0.70179801859443849410E-01
    0.70179719320716343889E-01
    0.70179683980488155592E-01
    0.70179620270986550756E-01
    0.70179627094574648094E-01
    0.70179584152114393714E-01
    0.70179599681087390106E-01
    0.70179660109536787238E-01
    0.70179699121334759848E-01
    0.70179691338435393200E-01
    0.70179681129849777466E-01
    0.70180020099539067169E-01
    0.70179971194414561553E-01
    0.70180036657691791113E-01
    0.70179992974767124725E-01
    0.70179888162324219336E-01
    0.70179824554858369345E-01
    0.70179751065601841953E-01
    0.70179781290492113111E-01
    0.70179740335290410891E-01
    0.70179778141612136899E-01
    0.70179859861521837194E-01
    0.70179938459710086707E-01
    0.70179880618041923235E-01
    0.70179856943893850763E-01
    0.70180137313869170312E-01
    0.70180113056242082736E-01
    0.70180228461390103956E-01
    0.70180191026093866058E-01
    0.70180045789845046933E-01
    0.70179980403567474023E-01
    0.70179870492023219142E-01
    0.70179885463345179075E-01
    0.70179811996176386102E-01
    0.70179840168381371623E-01
    0.70179945564579487849E-01
    0.70180014313024549621E-01
    0.70179999194543013497E-01
    0.70179980551970805314E-01
    0.70179933520591514240E-01
    0.70179932076305157063E-01
    0.70180037359080571502E-01
    0.70180019167572355032E-01
    0.70179901103815209296E-01
    0.70179861944640681282E-01
    0.70179765649075673273E-01
    0.70179762397361789006E-01
    0.70179692491371750696E-01
    0.70179704193072497964E-01
    0.70179788349006275161E-01
    0.70179828100824306891E-01
    0.70179844122215784274E-01
    0.70179835800659576273E-01
    0.70180221096689157645E-01
    0.70180234350533568510E-01
    0.70180397781305553506E-01
    0.70180383522425671128E-01
    0.70180211004471651504E-01
    0.70180167569231108327E-01
    0.70180019026027204432E-01
    0.70180000342729559337E-01
    0.70179889147418503259E-01
    0.70179897342521252446E-01
    0.70180019074700741855E-01
    0.70180064084492108090E-01
    0.70180110452833316392E-01
    0.70180104295982287388E-01
    0.70180420917947836101E-01
    0.70180412051267890283E-01
    0.70180593448640832266E-01
    0.70180553235726167438E-01
    0.70180344846712400253E-01
    0.70180266360427775996E-01
    0.70180102918881923091E-01
    0.70180106279782050738E-01
    0.70179988924628386449E-01
    0.70180013511985717134E-01
    0.70180161511816552267E-01
    0.70180235781388974892E-01
    0.70180255064501692597E-01
    0.70180237142185714072E-01
    0.70180898759611656801E-01
    0.70180901332325379416E-01
    0.70181171608879405754E-01
    0.70181125538529218200E-01
    0.70180827740739720744E-01
    0.70180730941467830974E-01
    0.70180488761822132360E-01
    0.70180476823197668335E-01
    0.70180297460614368688E-01
    0.70180321767866496452E-01
    0.70180533857278751264E-01
    0.70180626272115437247E-01
    0.70180679780365587406E-01
    0.70180660661605512307E-01
    0.70180558059603784238E-01
    0.70180478095617157552E-01
    0.70180592383137840873E-01
    0.70180520530335896434E-01
    0.70180339960171908564E-01
    0.70180231678266521977E-01
    0.70180103862414133786E-01
    0.70180154701064811906E-01
    0.70180083518309607782E-01
    0.70180148016203938721E-01
    0.70180287211689548754E-01
    0.70180419821422368454E-01
    0.70180323951019446538E-01
    0.70180284315716545684E-01
    0.70180775030227626754E-01
    0.70180738531651590262E-01
    0.70180945709494901852E-01
    0.70180882042795530995E-01
    0.70180624221706691679E-01
    0.70180508400094987476E-01
    0.70180314125403833736E-01
    0.70180340607597757607E-01
    0.70180211331115960327E-01
    0.70180259583352333497E-01
    0.70180443283221899398E-01
    0.70180559705172035345E-01
    0.70180539515742032530E-01
    0.70180507737294506310E-01
    0.70181445926751490072E-01
    0.70181322422090061663E-01
    0.70181520696934382442E-01
    0.70181409779472028743E-01
    0.70181103998538330035E-01
    0.70180927696479933342E-01
    0.70180706239705570315E-01
    0.70180786982400197860E-01
    0.70180664306646170503E-01
    0.70180770705317918612E-01
    0.70181002126740429925E-01
    0.70181218722904128993E-01
    0.70181067326989518551E-01
    0.70181003832402555354E-01
    0.70181858332737004358E-01
    0.70181816271907712657E-01
    0.70182192059111400684E-01
    0.70182094652719656525E-01
    0.70181638872833032594E-01
    0.70181443355770312120E-01
    0.70181095978226276655E-01
    0.70181134001841796732E-01
    0.70180902257738750349E-01
    0.70180979849929700509E-01
    0.70181296557113734269E-01
    0.70181483891085361115E-01
    0.70181473763239063390E-01
    0.70181423979856272233E-01
    0.70181294947699576769E-01
    0.70181279061832482769E-01
    0.70181605199654439886E-01
    0.70181527636777513157E-01
    0.70181150985142340404E-01
    0.70181000734670789809E-01
    0.70180712353693316952E-01
    0.70180725988346306932E-01
    0.70180520352417757879E-01
    0.70180566426286741799E-01
    0.70180830260837628876E-01
    0.70180963051039171874E-01
    0.70180995821299899107E-01
    0.70180961809677921970E-01
    0.70182147224956387133E-01
    0.70182132097370328316E-01
    0.70182607413376840721E-01
    0.70182498203288076755E-01
    0.70181959498708423872E-01
    0.70181754705590251864E-01
    0.70181338271354073988E-01
    0.70181344112899918253E-01
    0.70181038515154878232E-01
    0.70181093639529040784E-01
    0.70181475652312738656E-01
    0.70181655427695999183E-01