# vtk DataFile Version 3.0
LAPLACIEN  2D
ASCII
DATASET UNSTRUCTURED_GRID
FIELD FieldData 1
TIME 1 1 double
4.6000
 POINTS        7297  float
   1.5625000000000000E-002  0.96875000000000000        0.0000000000000000     
   3.1250000000000000E-002  0.96875000000000000        0.0000000000000000     
   3.1250000000000000E-002  0.98437500000000000        0.0000000000000000     
   9.3749999999999997E-003  0.97812500000000002        0.0000000000000000     
   2.0312500000000001E-002  0.97968750000000004        0.0000000000000000     
   2.1874999999999999E-002  0.99062499999999998        0.0000000000000000     
   1.0937499999999999E-002  0.98906249999999996        0.0000000000000000     
   4.6875000000000000E-002  0.96875000000000000        0.0000000000000000     
   6.2500000000000000E-002  0.96875000000000000        0.0000000000000000     
   6.2500000000000000E-002  0.98437500000000000        0.0000000000000000     
   4.0625000000000001E-002  0.97812500000000002        0.0000000000000000     
   5.1562499999999997E-002  0.97968750000000004        0.0000000000000000     
   5.3124999999999999E-002  0.99062499999999998        0.0000000000000000     
   4.2187500000000003E-002  0.98906249999999996        0.0000000000000000     
   1.5625000000000000E-002  0.93750000000000000        0.0000000000000000     
   3.1250000000000000E-002  0.93750000000000000        0.0000000000000000     
   3.1250000000000000E-002  0.95312500000000000        0.0000000000000000     
   9.3749999999999997E-003  0.94687500000000002        0.0000000000000000     
   2.0312500000000001E-002  0.94843750000000004        0.0000000000000000     
   2.1874999999999999E-002  0.95937499999999998        0.0000000000000000     
   1.0937499999999999E-002  0.95781249999999996        0.0000000000000000     
   4.6875000000000000E-002  0.93750000000000000        0.0000000000000000     
   6.2500000000000000E-002  0.93750000000000000        0.0000000000000000     
   6.2500000000000000E-002  0.95312500000000000        0.0000000000000000     
   4.0625000000000001E-002  0.94687500000000002        0.0000000000000000     
   5.1562499999999997E-002  0.94843750000000004        0.0000000000000000     
   5.3124999999999999E-002  0.95937499999999998        0.0000000000000000     
   4.2187500000000003E-002  0.95781249999999996        0.0000000000000000     
   7.8125000000000000E-002  0.96875000000000000        0.0000000000000000     
   9.3750000000000000E-002  0.96875000000000000        0.0000000000000000     
   9.3750000000000000E-002  0.98437500000000000        0.0000000000000000     
   7.1874999999999994E-002  0.97812500000000002        0.0000000000000000     
   8.2812499999999997E-002  0.97968750000000004        0.0000000000000000     
   8.4375000000000006E-002  0.99062499999999998        0.0000000000000000     
   7.3437500000000003E-002  0.98906249999999996        0.0000000000000000     
  0.10937500000000000       0.96875000000000000        0.0000000000000000     
  0.12500000000000000       0.96875000000000000        0.0000000000000000     
  0.12500000000000000       0.98437500000000000        0.0000000000000000     
  0.10312499999999999       0.97812500000000002        0.0000000000000000     
  0.11406250000000000       0.97968750000000004        0.0000000000000000     
  0.11562500000000001       0.99062499999999998        0.0000000000000000     
  0.10468750000000000       0.98906249999999996        0.0000000000000000     
   7.8125000000000000E-002  0.93750000000000000        0.0000000000000000     
   9.3750000000000000E-002  0.93750000000000000        0.0000000000000000     
   9.3750000000000000E-002  0.95312500000000000        0.0000000000000000     
   7.1874999999999994E-002  0.94687500000000002        0.0000000000000000     
   8.2812499999999997E-002  0.94843750000000004        0.0000000000000000     
   8.4375000000000006E-002  0.95937499999999998        0.0000000000000000     
   7.3437500000000003E-002  0.95781249999999996        0.0000000000000000     
  0.10937500000000000       0.93750000000000000        0.0000000000000000     
  0.12500000000000000       0.93750000000000000        0.0000000000000000     
  0.12500000000000000       0.95312500000000000        0.0000000000000000     
  0.10312499999999999       0.94687500000000002        0.0000000000000000     
  0.11406250000000000       0.94843750000000004        0.0000000000000000     
  0.11562500000000001       0.95937499999999998        0.0000000000000000     
  0.10468750000000000       0.95781249999999996        0.0000000000000000     
   1.5625000000000000E-002  0.90625000000000000        0.0000000000000000     
   3.1250000000000000E-002  0.90625000000000000        0.0000000000000000     
   3.1250000000000000E-002  0.92187500000000000        0.0000000000000000     
   9.3749999999999997E-003  0.91562500000000002        0.0000000000000000     
   2.0312500000000001E-002  0.91718750000000004        0.0000000000000000     
   2.1874999999999999E-002  0.92812499999999998        0.0000000000000000     
   1.0937499999999999E-002  0.92656249999999996        0.0000000000000000     
   4.6875000000000000E-002  0.90625000000000000        0.0000000000000000     
   6.2500000000000000E-002  0.90625000000000000        0.0000000000000000     
   6.2500000000000000E-002  0.92187500000000000        0.0000000000000000     
   4.0625000000000001E-002  0.91562500000000002        0.0000000000000000     
   5.1562499999999997E-002  0.91718750000000004        0.0000000000000000     
   5.3124999999999999E-002  0.92812499999999998        0.0000000000000000     
   4.2187500000000003E-002  0.92656249999999996        0.0000000000000000     
   1.5625000000000000E-002  0.87500000000000000        0.0000000000000000     
   3.1250000000000000E-002  0.87500000000000000        0.0000000000000000     
   3.1250000000000000E-002  0.89062500000000000        0.0000000000000000     
   9.3749999999999997E-003  0.88437500000000002        0.0000000000000000     
   2.0312500000000001E-002  0.88593750000000004        0.0000000000000000     
   2.1874999999999999E-002  0.89687499999999998        0.0000000000000000     
   1.0937499999999999E-002  0.89531249999999996        0.0000000000000000     
   4.6875000000000000E-002  0.87500000000000000        0.0000000000000000     
   6.2500000000000000E-002  0.87500000000000000        0.0000000000000000     
   6.2500000000000000E-002  0.89062500000000000        0.0000000000000000     
   4.0625000000000001E-002  0.88437500000000002        0.0000000000000000     
   5.1562499999999997E-002  0.88593750000000004        0.0000000000000000     
   5.3124999999999999E-002  0.89687499999999998        0.0000000000000000     
   4.2187500000000003E-002  0.89531249999999996        0.0000000000000000     
   7.8125000000000000E-002  0.90625000000000000        0.0000000000000000     
   9.3750000000000000E-002  0.90625000000000000        0.0000000000000000     
   9.3750000000000000E-002  0.92187500000000000        0.0000000000000000     
   7.1874999999999994E-002  0.91562500000000002        0.0000000000000000     
   8.2812499999999997E-002  0.91718750000000004        0.0000000000000000     
   8.4375000000000006E-002  0.92812499999999998        0.0000000000000000     
   7.3437500000000003E-002  0.92656249999999996        0.0000000000000000     
  0.10937500000000000       0.90625000000000000        0.0000000000000000     
  0.12500000000000000       0.90625000000000000        0.0000000000000000     
  0.12500000000000000       0.92187500000000000        0.0000000000000000     
  0.10312499999999999       0.91562500000000002        0.0000000000000000     
  0.11406250000000000       0.91718750000000004        0.0000000000000000     
  0.11562500000000001       0.92812499999999998        0.0000000000000000     
  0.10468750000000000       0.92656249999999996        0.0000000000000000     
   7.8125000000000000E-002  0.87500000000000000        0.0000000000000000     
   9.3750000000000000E-002  0.87500000000000000        0.0000000000000000     
   9.3750000000000000E-002  0.89062500000000000        0.0000000000000000     
   7.1874999999999994E-002  0.88437500000000002        0.0000000000000000     
   8.2812499999999997E-002  0.88593750000000004        0.0000000000000000     
   8.4375000000000006E-002  0.89687499999999998        0.0000000000000000     
   7.3437500000000003E-002  0.89531249999999996        0.0000000000000000     
  0.10937500000000000       0.87500000000000000        0.0000000000000000     
  0.12500000000000000       0.87500000000000000        0.0000000000000000     
  0.12500000000000000       0.89062500000000000        0.0000000000000000     
  0.10312499999999999       0.88437500000000002        0.0000000000000000     
  0.11406250000000000       0.88593750000000004        0.0000000000000000     
  0.11562500000000001       0.89687499999999998        0.0000000000000000     
  0.10468750000000000       0.89531249999999996        0.0000000000000000     
  0.14062500000000000       0.96875000000000000        0.0000000000000000     
  0.15625000000000000       0.96875000000000000        0.0000000000000000     
  0.15625000000000000       0.98437500000000000        0.0000000000000000     
  0.13437499999999999       0.97812500000000002        0.0000000000000000     
  0.14531250000000001       0.97968750000000004        0.0000000000000000     
  0.14687500000000001       0.99062499999999998        0.0000000000000000     
  0.13593749999999999       0.98906249999999996        0.0000000000000000     
  0.17187500000000000       0.96875000000000000        0.0000000000000000     
  0.18750000000000000       0.96875000000000000        0.0000000000000000     
  0.18750000000000000       0.98437500000000000        0.0000000000000000     
  0.16562499999999999       0.97812500000000002        0.0000000000000000     
  0.17656250000000001       0.97968750000000004        0.0000000000000000     
[...]
 CELL_DATA       14336
 SCALARS Tumor_cells float
 LOOKUP_TABLE default
    0.16072297220590725519E-01
    0.16072291573855437830E-01
    0.16072325886455192390E-01
    0.16072325886451188648E-01
    0.16072291573849716712E-01
    0.16072297220577021204E-01
    0.16072268719608810705E-01
    0.16072251516163940654E-01
    0.16072233033164358418E-01
    0.16072233033163633303E-01
    0.16072251516168305219E-01
    0.16072268719617574528E-01
    0.16072265553440146651E-01
    0.16072265553438498664E-01
    0.16072404278070537287E-01
    0.16072432631250140045E-01
    0.16072503439441825079E-01
    0.16072524222225312296E-01
    0.16072474227987618156E-01
    0.16072502154833686466E-01
    0.16072445778221301077E-01
    0.16072394755080127160E-01
    0.16072339792530476732E-01
    0.16072318552238444578E-01
    0.16072352802757591123E-01
    0.16072347253829069591E-01
    0.16072401534420303199E-01
    0.16072413805302315087E-01
    0.16072502154892857884E-01
    0.16072474228034202420E-01
    0.16072524222273336381E-01
    0.16072503439477296705E-01
    0.16072432631275578030E-01
    0.16072404278080817258E-01
    0.16072347253837850761E-01
    0.16072352802776468383E-01
    0.16072318552256881219E-01
    0.16072339792554835719E-01
    0.16072394755115678583E-01
    0.16072445778269776190E-01
    0.16072413805336756287E-01
    0.16072401534449137772E-01
    0.16072610351072543627E-01
    0.16072616656826549386E-01
    0.16072703710901206642E-01
    0.16072703710892616291E-01
    0.16072616656811301167E-01
    0.16072610351037221188E-01
    0.16072525004404012577E-01
    0.16072496743658636759E-01
    0.16072425713185230917E-01
    0.16072425713190698765E-01
    0.16072496743671550040E-01
    0.16072525004434800450E-01
    0.16072550812785676988E-01
    0.16072550812781527529E-01
    0.16072651379899379614E-01
    0.16072712450675253476E-01
    0.16072818507578610220E-01
    0.16072859072437759020E-01
    0.16072793917882095133E-01
    0.16072843082714945856E-01
    0.16072760021440927330E-01
    0.16072676425543681172E-01
    0.16072586145697346366E-01
    0.16072544282083888606E-01
    0.16072593928708613087E-01
    0.16072566418069526850E-01
    0.16072676294752119563E-01
    0.16072700379183624264E-01
    0.16073032777495353807E-01
    0.16073124531087872729E-01
    0.16073263755126621782E-01
    0.16073322508112438539E-01
    0.16073242922647723585E-01
    0.16073311564164728671E-01
    0.16073203653688923620E-01
    0.16073089749088144418E-01
    0.16072966320806927193E-01
    0.16072904973303384774E-01
    0.16072969328117168303E-01
    0.16072921127355754845E-01
    0.16073083387862854843E-01
    0.16073118470470614677E-01
    0.16072860215937317951E-01
    0.16072899213717316280E-01
    0.16073022064783386298E-01
    0.16073041643130073219E-01
    0.16072938627527309785E-01
    0.16072953050863463681E-01
    0.16072840400284935103E-01
    0.16072779815516746726E-01
    0.16072673103237060388E-01
    0.16072652679987899094E-01
    0.16072739730598178259E-01
    0.16072746307358380669E-01
    0.16072827714806784544E-01
    0.16072839392920371809E-01
    0.16073245898037966800E-01
    0.16073315584016287932E-01
    0.16073472769234146973E-01
    0.16073510386052175525E-01
    0.16073391542984684366E-01
    0.16073424828401450953E-01
    0.16073286213971024056E-01
    0.16073195502022252085E-01
    0.16073054930878832164E-01
    0.16073015292211011856E-01
    0.16073117940930584796E-01
    0.16073104316259516355E-01
    0.16073238161518631911E-01
    0.16073260712679237477E-01
    0.16072843082850729601E-01
    0.16072793918000437968E-01
    0.16072859072560948673E-01
    0.16072818507684622641E-01
    0.16072712450763151915E-01
    0.16072651379964723178E-01
    0.16072566418126883747E-01
    0.16072593928781388206E-01
    0.16072544282152500389E-01
    0.16072586145776893846E-01
    0.16072676425642199588E-01
    0.16072760021559936300E-01
    0.16072700379282163496E-01
    0.16072676294842398043E-01
    0.16072953050975440081E-01
    0.16072938627614316576E-01
    0.16073041643213867302E-01
    0.16073022064845340212E-01
    0.16072899213764573617E-01
    0.16072860215957007063E-01
    0.16072746307376293423E-01
    0.16072739730639083039E-01
    0.16072652680032707001E-01
    0.16072673103297619585E-01
    0.16072779815592672104E-01
    0.16072840400386267240E-01
    0.16072839392988653995E-01
    0.16072827714864075521E-01
    0.16073311564407864044E-01
    0.16073242922868546945E-01
    0.16073322508341477549E-01
    0.16073263755333938585E-01
    0.16073124531269147863E-01
    0.16073032777646694552E-01
    0.16072921127492902083E-01
    0.16072969328274726297E-01
    0.16072904973453271821E-01
    0.16072966320972451038E-01
    0.16073089749280556476E-01
    0.16073203653909219624E-01
    0.16073118470664126550E-01
    0.16073083388045437958E-01
    0.16073424828620778981E-01
    0.16073391543174175150E-01
    0.16073510386241825904E-01
    0.16073472769397419146E-01
    0.16073315584156946251E-01
    0.16073245898143656563E-01
    0.16073104316357264554E-01
    0.16073117941056282859E-01
    0.16073015292337133192E-01
    0.16073054931025364256E-01
    0.16073195502192081513E-01
    0.16073286214173653635E-01
    0.16073260712842513120E-01
    0.16073238161668251811E-01
    0.16073207499163688627E-01
    0.16073226073291889404E-01
    0.16073365970948130105E-01
    0.16073365970934887226E-01
    0.16073226073267398578E-01
    0.16073207499106709900E-01
    0.16073065375880796202E-01
    0.16073026457059703259E-01
    0.16072903098542874745E-01
    0.16072903098553092266E-01
    0.16073026457081845270E-01
    0.16073065375933420773E-01
    0.16073120536423058519E-01
    0.16073120536416209830E-01
    0.16073601342260088187E-01
    0.16073651027879134329E-01
    0.16073827201274683285E-01
    0.16073845309921896973E-01
    0.16073687546923825370E-01
    0.16073687314233371659E-01
    0.16073517343600868951E-01
    0.16073448174484940981E-01
    0.16073289725108255710E-01
    0.16073270643761711218E-01
    0.16073410874288141664E-01
    0.16073429898391448228E-01
    0.16073538260866548910E-01
    0.16073549104441857416E-01
    0.16073687314397747117E-01
    0.16073687547050834884E-01
    0.16073845310041030843E-01
    0.16073827201362772543E-01
    0.16073651027948054892E-01
    0.16073601342289110111E-01
    0.16073429898418652162E-01
    0.16073410874350785998E-01
    0.16073270643832831411E-01
    0.16073289725204463474E-01
    0.16073448174601018268E-01
    0.16073517343754822190E-01
    0.16073549104543723848E-01
    0.16073538260952036083E-01
    0.16074095180333720229E-01
    0.16074126944038511638E-01
    0.16074323820037483834E-01
    0.16074323820019692510E-01
    0.16074126944004913514E-01
    0.16074095180255335014E-01
    0.16073893243512216156E-01
    0.16073843387610337041E-01
    0.16073666107021867405E-01
    0.16073666107036740924E-01
    0.16073843387641634922E-01
    0.16073893243586344359E-01
    0.16073979271713709216E-01
    0.16073979271704171706E-01
    0.16073539877211669158E-01
    0.16073659703663732007E-01
    0.16073830065278005980E-01
    0.16073905287714837509E-01
    0.16073811711044765083E-01
    0.16073898043366945110E-01
    0.16073767065117754160E-01
    0.16073625207582917240E-01
    0.16073471088744885338E-01
    0.16073391779602715090E-01
    0.16073470005076626044E-01
    0.16073403021239867500E-01
    0.16073613433320071281E-01
    0.16073658559773797844E-01
    0.16074164489746540357E-01
    0.16074310093246602787E-01
    0.16074510723248693761E-01
    0.16074600854598275479E-01
    0.16074492706080596022E-01
    0.16074595037948342935E-01
    0.16074441961132879958E-01
    0.16074274048609133586E-01
    0.16074091113850323687E-01
    0.16073995248636261529E-01
    0.16074086916707249623E-01
    0.16074003075158833920E-01
    0.16074257967180014678E-01
    0.16074312276400246763E-01
    0.16073760847343920161E-01
    0.16073858897487931091E-01
    0.16074049526747836297E-01
    0.16074103444272513919E-01
    0.16073967898496216433E-01
    0.16074017637671259018E-01
    0.16073853647324221061E-01
    0.16073735434489991314E-01
    0.16073562839787346873E-01
    0.16073505699672852726E-01
    0.16073623876027797602E-01
    0.16073592084701132654E-01
    0.16073774611303069670E-01
    0.16073807008575097949E-01
    0.16074400429325747669E-01
    0.16074524930642191539E-01
    0.16074750168400441658E-01
    0.16074818701566316592E-01
    0.16074663465162449677E-01
    0.16074726926039034636E-01
    0.16074536475711255490E-01
    0.16074392959472844772E-01
    0.16074189015593716434E-01
    0.16074116140797806845E-01
    0.16074250958020265545E-01
    0.16074203495555813848E-01
    0.16074431468134340456E-01
    0.16074472669700922561E-01
    0.16074902314964591155E-01
    0.16075072175203552333E-01
    0.16075304324130245542E-01
    0.16075408016709733655E-01
    0.16075283003889769690E-01
    0.16075399967358659087E-01
    0.16075224360526205181E-01
    0.16075031164233435921E-01
    0.16074820019759884782E-01
    0.16074708476846777394E-01
    0.16074814159470898062E-01
    0.16074715347078112615E-01
    0.16075012331299556867E-01
    0.16075075161449427913E-01
    0.16075756831901856503E-01
    0.16075950352721930098E-01
    0.16076219217734308981E-01
    0.16076335131482166058E-01
    0.16076187678571468576E-01
    0.16076318025170593939E-01
    0.16076117361963203345E-01
    0.16075897954416787372E-01
    0.16075656894901424465E-01
    0.16075529811474961739E-01
    0.16075651824461460737E-01
    0.16075539881088080768E-01
    0.16075878844202206447E-01
    0.16075949828623821436E-01
    0.16075167363427053657E-01
    0.16075317530453214765E-01
    0.16075583183982982555E-01
    0.16075664823859001779E-01
    0.16075482359475277983E-01
    0.16075555925187053757E-01
    0.16075334352087328194E-01
    0.16075167037717608132E-01
    0.16074929826332910038E-01
    0.16074842879409599605E-01
    0.16074997881382658421E-01
    0.16074937631634960561E-01
    0.16075209883401459648E-01
    0.16075258931553686875E-01
    0.16076079550938211782E-01
    0.16076256219994887464E-01
    0.16076576180081205564E-01
    0.16076668769913322887E-01
    0.16076443418343442510E-01
    0.16076521207232269406E-01
    0.16076257656133876445E-01
    0.16076067237764009310E-01
    0.16075790224716373505E-01
    0.16075690783840683451E-01
    0.16075874427437960440E-01
    0.16075805467211681105E-01
    0.16076123893816303412E-01
    0.16076179689636618114E-01
    0.16074130659638016794E-01
    0.16074209627417769541E-01
    0.16074422631590885163E-01
    0.16074457361047018999E-01
    0.16074279465400142380E-01
    0.16074295108934346515E-01
    0.16074096401740990692E-01
    0.16073999179959014977E-01
    0.16073806362872249121E-01
    0.16073769847868752542E-01
    0.16073927906378304015E-01
    0.16073929242019557861E-01
    0.16074087796871916467E-01
    0.16074108519573034048E-01
    0.16074796165263804948E-01
    0.16074903837698776427E-01
    0.16075158113859115694E-01
    0.16075208648341318685E-01
    0.16075004604473946968E-01
    0.16075033194605445330E-01
    0.16074801470731755332E-01
    0.16074677780950591410E-01
    0.16074449063449080394E-01
    0.16074396745742739606E-01
    0.16074575514749878807E-01
    0.16074561534700538418E-01
    0.16074769137821954407E-01
    0.16074798952834121885E-01
    0.16074647209779052703E-01
    0.16074709509012938963E-01
    0.16074947871192925980E-01
    0.16074965102411273993E-01
    0.16074743699911839268E-01
    0.16074727586422966202E-01
    0.16074492368950175220E-01
    0.16074413278758855478E-01
    0.16074198173305295073E-01
    0.16074180530203974887E-01
    0.16074378720142157989E-01
    0.16074411288843383494E-01
    0.16074550009117418575E-01
    0.16074560103963318747E-01
    0.16075350877206198708E-01
    0.16075445277637847447E-01
    0.16075733346718447392E-01
    0.16075768759230963517E-01
    0.16075513805397761979E-01
    0.16075511446589141329E-01
    0.16075234589343314479E-01
    0.16075125904369404889E-01
    0.16074868505621123932E-01
    0.16074834272537145280E-01
    0.16075058155791844411E-01
    0.16075075364278500895E-01
    0.16075268589209584097E-01
    0.16075288594158153310E-01
    0.16075612795438145447E-01
    0.16075751302976105245E-01
    0.16076059451306922571E-01
    0.16076125796291626524E-01
    0.16075881739732535841E-01
    0.16075919197291774210E-01
    0.16075643203880659454E-01
    0.16075493074038466057E-01
    0.16075222024738915899E-01
    0.16075155282431786985E-01
    0.16075362062613285374E-01
    0.16075335573978919573E-01
    0.16075595134751621135E-01
    0.16075633518977880398E-01
    0.16076624086790166496E-01
    0.16076799874259233708E-01
    0.16077190110317354094E-01
    0.16077272694598257474E-01
    0.16076959377196171908E-01
    0.16076997957334100003E-01
    0.16076653626850265916E-01
    0.16076475301735886070E-01
    0.16076146181144109620E-01
    0.16076066267559314948E-01
    0.16076317414759289104E-01
    0.16076282486687031720E-01
    0.16076604249224014237E-01
    0.16076650836380480120E-01
    0.16076237173213218240E-01
    0.16076371186741263836E-01
    0.16076730679111195244E-01
    0.16076788158158529518E-01
    0.16076478637522310933E-01
    0.16076487755989393030E-01
    0.16076149101220110066E-01
    0.16076006988273650739E-01
    0.16075694188581540756E-01
    0.16075643262585505994E-01
    0.16075904309449214752E-01
    0.16075907170224442572E-01
    0.16076165676484528017E-01
    0.16076196514891987616E-01
    0.16077386862755220498E-01
    0.16077577924902983209E-01
    0.16078057035667767116E-01
    0.16078144474441891099E-01
    0.16077734634163474980E-01
    0.16077750003880668384E-01
    0.16077306516647214135E-01
    0.16077121547070579582E-01
    0.16076723550362929938E-01
    0.16076654368975890758E-01
    0.16076978402208817048E-01
    0.16076967930046138361E-01
    0.16077317735021055128E-01
    0.16077361729489546976E-01
    0.16073898043747144454E-01
    0.16073811711397954782E-01
    0.16073905288079490261E-01
    0.16073830065616547674E-01
    0.16073659703968574963E-01
    0.16073539877479406379E-01
    0.16073403021487391723E-01
    0.16073470005349400902E-01
    0.16073391779864481393E-01
    0.16073471089026798719E-01
    0.16073625207899414069E-01
    0.16073767065469271587E-01
    0.16073658560092449199E-01
    0.16073613433625191793E-01
    0.16074017638027682242E-01
    0.16073967898818101313E-01
    0.16074103444597805795E-01
    0.16074049527042357649E-01
    0.16073858897752191927E-01
    0.16073760847566030685E-01
    0.16073592084909257838E-01
    0.16073623876268719468E-01
    0.16073505699910860256E-01
    0.16073562840050278910E-01
    0.16073735434783926329E-01
    0.16073853647658089411E-01
    0.16073807008863533891E-01
    0.16073774611575258192E-01
    0.16074595038494090410E-01
    0.16074492706594840918E-01
    0.16074600855127102461E-01
    0.16074510723747222063E-01
    0.16074310093704108349E-01
    0.16074164490160042923E-01
    0.16074003075546329511E-01
    0.16074086917124644908E-01
    0.16073995249039452898E-01
    0.16074091114277985065E-01
    0.16074274049078764864E-01
    0.16074441961644359705E-01
    0.16074312276873038707E-01
    0.16074257967636791655E-01
    0.16074726926561033746E-01
    0.16074663465645431387E-01
    0.16074818702055852088E-01
    0.16074750168855022475E-01
    0.16074524931059142735E-01
    0.16074400429693654763E-01
    0.16074203495903945094E-01
    0.16074250958405832124E-01
    0.16074116141177270667E-01
    0.16074189016002427693E-01
    0.16074392959919948931E-01
    0.16074536476205113916E-01
    0.16074472670143519909E-01
    0.16074431468558199321E-01
    0.16074295109235834517E-01
    0.16074279465659573746E-01
    0.16074457361301849878E-01
    0.16074422631810289519E-01
    0.16074209627610327317E-01
    0.16074130659783494174E-01
    0.16073929242157187353E-01
    0.16073927906556210315E-01
    0.16073769848051800563E-01
    0.16073806363084888055E-01
    0.16073999180199222137E-01
    0.16074096402026200048E-01
    0.16074108519800092004E-01
    0.16074087797079993079E-01
    0.16074727586638536819E-01
    0.16074743700077911285E-01
    0.16074965102564824776E-01
    0.16074947871306477509E-01
    0.16074709509103002336E-01
    0.16074647209817126414E-01
    0.16074411288879673909E-01
    0.16074378720226135953E-01
    0.16074180530301046543E-01
    0.16074198173436627518E-01
    0.16074413278914328335E-01
    0.16074492369155618521E-01
    0.16074560104098072066E-01
    0.16074550009230505199E-01
    0.16075033195072623710E-01
    0.16075004604894582716E-01
    0.16075208648760507674E-01
    0.16075158114238676660E-01
    0.16074903838044132115E-01
    0.16074796165555172572E-01
    0.16074561534978243360E-01
    0.16074575515072499210E-01
    0.16074396746067268205E-01
    0.16074449063807522836E-01
    0.16074677781344033634E-01
    0.16074801471177034562E-01
    0.16074798953215434921E-01
    0.16074769138181801975E-01
    0.16075511446970527224E-01
    0.16075513805725163280E-01
    0.16075768759549004250E-01
    0.16075733346992276962E-01
    0.16075445277880802408E-01
    0.16075350877390235521E-01
    0.16075075364454925742E-01
    0.16075058156020609335E-01
    0.16074834272775777311E-01
    0.16074868505898353560E-01
    0.16075125904678206484E-01
    0.16075234589708945615E-01
    0.16075288594447265794E-01
    0.16075268589474535352E-01
    0.16075399968096981684E-01
    0.16075283004592360453E-01
    0.16075408017429841656E-01
    0.16075304324816096224E-01
    0.16075072175841434441E-01
    0.16074902315551944237E-01
    0.16074715347633945772E-01
    0.16074814160061044049E-01
    0.16074708477419673291E-01
    0.16074820020361379330E-01
    0.16075031164883905183E-01
    0.16075224361224996900E-01
    0.16075075162104005000E-01
    0.16075012331935763232E-01
    0.16075555925901693910E-01
    0.16075482360146695765E-01
    0.16075664824539974418E-01
    0.16075583184625045347E-01
    0.16075317531050674347E-01
    0.16075167363968918821E-01
    0.16074937632151505701E-01
    0.16074997881941048561E-01
    0.16074842879958806119E-01
    0.16074929826915478753E-01
    0.16075167038345588438E-01
    0.16075334352768519408E-01
    0.16075258932178152632E-01
    0.16075209884004834637E-01
    0.16076318026126853317E-01
    0.16076187679488068705E-01
    0.16076335132419100615E-01
    0.16076219218633280850E-01
    0.16075950353566386547E-01
    0.16075756832689629128E-01
    0.16075539881839115419E-01
    0.16075651825250978494E-01
    0.16075529812244360173E-01
    0.16075656895703293453E-01
    0.16075897955274219553E-01
    0.16076117362875015637E-01
    0.16075949829486273907E-01
    0.16075878845044078158E-01
    0.16076521208165026749E-01
    0.16076443419229115989E-01
    0.16076668770811469028E-01
    0.16076576180936757304E-01
    0.16076256220799181595E-01
    0.16076079551680770574E-01
    0.16075805467923601211E-01
    0.16075874428195864596E-01
    0.16075690784586465359E-01
    0.16075790225499386049E-01
    0.16076067238599087844E-01
    0.16076257657028209663E-01
    0.16076179690469139666E-01
    0.16076123894625527627E-01
    0.16075919197951839962E-01
    0.16075881740341860932E-01
    0.16076125796902547560E-01
    0.16076059451874260414E-01
    0.16075751303502177486E-01
    0.16075612795903658492E-01
    0.16075335574425166779E-01
    0.16075362063108875055E-01
    0.16075155282926183176E-01
    0.16075222025271354576E-01
    0.16075493074612964839E-01
    0.16075643204513469231E-01
    0.16075633519541259603E-01
    0.16075595135291175647E-01
    0.16076487756564013243E-01
    0.16076478638038703417E-01
    0.16076788158668666590E-01
    0.16076730679573110472E-01
    0.16076371187165199028E-01
    0.16076237173571619049E-01
    0.16075907170569572746E-01
    0.16075904309851125895E-01
    0.16075643262994165211E-01
    0.16075694189032936621E-01
    0.16076006988763751754E-01
    0.16076149101773559713E-01