# vtk DataFile Version 3.0
LAPLACIEN  2D
ASCII
DATASET UNSTRUCTURED_GRID
FIELD FieldData 1
TIME 1 1 double
16.7000
 POINTS        7297  float
   1.5625000000000000E-002  0.96875000000000000        0.0000000000000000     
   3.1250000000000000E-002  0.96875000000000000        0.0000000000000000     
   3.1250000000000000E-002  0.98437500000000000        0.0000000000000000     
   9.3749999999999997E-003  0.97812500000000002        0.0000000000000000     
   2.0312500000000001E-002  0.97968750000000004        0.0000000000000000     
   2.1874999999999999E-002  0.99062499999999998        0.0000000000000000     
   1.0937499999999999E-002  0.98906249999999996        0.0000000000000000     
   4.6875000000000000E-002  0.96875000000000000        0.0000000000000000     
   6.2500000000000000E-002  0.96875000000000000        0.0000000000000000     
   6.2500000000000000E-002  0.98437500000000000        0.0000000000000000     
   4.0625000000000001E-002  0.97812500000000002        0.0000000000000000     
   5.1562499999999997E-002  0.97968750000000004        0.0000000000000000     
   5.3124999999999999E-002  0.99062499999999998        0.0000000000000000     
   4.2187500000000003E-002  0.98906249999999996        0.0000000000000000     
   1.5625000000000000E-002  0.93750000000000000        0.0000000000000000     
   3.1250000000000000E-002  0.93750000000000000        0.0000000000000000     
   3.1250000000000000E-002  0.95312500000000000        0.0000000000000000     
   9.3749999999999997E-003  0.94687500000000002        0.0000000000000000     
   2.0312500000000001E-002  0.94843750000000004        0.0000000000000000     
   2.1874999999999999E-002  0.95937499999999998        0.0000000000000000     
   1.0937499999999999E-002  0.95781249999999996        0.0000000000000000     
   4.6875000000000000E-002  0.93750000000000000        0.0000000000000000     
   6.2500000000000000E-002  0.93750000000000000        0.0000000000000000     
   6.2500000000000000E-002  0.95312500000000000        0.0000000000000000     
   4.0625000000000001E-002  0.94687500000000002        0.0000000000000000     
   5.1562499999999997E-002  0.94843750000000004        0.0000000000000000     
   5.3124999999999999E-002  0.95937499999999998        0.0000000000000000     
   4.2187500000000003E-002  0.95781249999999996        0.0000000000000000     
   7.8125000000000000E-002  0.96875000000000000        0.0000000000000000     
   9.3750000000000000E-002  0.96875000000000000        0.0000000000000000     
   9.3750000000000000E-002  0.98437500000000000        0.0000000000000000     
   7.1874999999999994E-002  0.97812500000000002        0.0000000000000000     
   8.2812499999999997E-002  0.97968750000000004        0.0000000000000000     
   8.4375000000000006E-002  0.99062499999999998        0.0000000000000000     
   7.3437500000000003E-002  0.98906249999999996        0.0000000000000000     
  0.10937500000000000       0.96875000000000000        0.0000000000000000     
  0.12500000000000000       0.96875000000000000        0.0000000000000000     
  0.12500000000000000       0.98437500000000000        0.0000000000000000     
  0.10312499999999999       0.97812500000000002        0.0000000000000000     
  0.11406250000000000       0.97968750000000004        0.0000000000000000     
  0.11562500000000001       0.99062499999999998        0.0000000000000000     
  0.10468750000000000       0.98906249999999996        0.0000000000000000     
   7.8125000000000000E-002  0.93750000000000000        0.0000000000000000     
   9.3750000000000000E-002  0.93750000000000000        0.0000000000000000     
   9.3750000000000000E-002  0.95312500000000000        0.0000000000000000     
   7.1874999999999994E-002  0.94687500000000002        0.0000000000000000     
   8.2812499999999997E-002  0.94843750000000004        0.0000000000000000     
   8.4375000000000006E-002  0.95937499999999998        0.0000000000000000     
   7.3437500000000003E-002  0.95781249999999996        0.0000000000000000     
  0.10937500000000000       0.93750000000000000        0.0000000000000000     
  0.12500000000000000       0.93750000000000000        0.0000000000000000     
  0.12500000000000000       0.95312500000000000        0.0000000000000000     
  0.10312499999999999       0.94687500000000002        0.0000000000000000     
  0.11406250000000000       0.94843750000000004        0.0000000000000000     
  0.11562500000000001       0.95937499999999998        0.0000000000000000     
  0.10468750000000000       0.95781249999999996        0.0000000000000000     
   1.5625000000000000E-002  0.90625000000000000        0.0000000000000000     
   3.1250000000000000E-002  0.90625000000000000        0.0000000000000000     
   3.1250000000000000E-002  0.92187500000000000        0.0000000000000000     
   9.3749999999999997E-003  0.91562500000000002        0.0000000000000000     
   2.0312500000000001E-002  0.91718750000000004        0.0000000000000000     
   2.1874999999999999E-002  0.92812499999999998        0.0000000000000000     
   1.0937499999999999E-002  0.92656249999999996        0.0000000000000000     
   4.6875000000000000E-002  0.90625000000000000        0.0000000000000000     
   6.2500000000000000E-002  0.90625000000000000        0.0000000000000000     
   6.2500000000000000E-002  0.92187500000000000        0.0000000000000000     
   4.0625000000000001E-002  0.91562500000000002        0.0000000000000000     
   5.1562499999999997E-002  0.91718750000000004        0.0000000000000000     
   5.3124999999999999E-002  0.92812499999999998        0.0000000000000000     
   4.2187500000000003E-002  0.92656249999999996        0.0000000000000000     
   1.5625000000000000E-002  0.87500000000000000        0.0000000000000000     
   3.1250000000000000E-002  0.87500000000000000        0.0000000000000000     
   3.1250000000000000E-002  0.89062500000000000        0.0000000000000000     
   9.3749999999999997E-003  0.88437500000000002        0.0000000000000000     
   2.0312500000000001E-002  0.88593750000000004        0.0000000000000000     
   2.1874999999999999E-002  0.89687499999999998        0.0000000000000000     
   1.0937499999999999E-002  0.89531249999999996        0.0000000000000000     
   4.6875000000000000E-002  0.87500000000000000        0.0000000000000000     
   6.2500000000000000E-002  0.87500000000000000        0.0000000000000000     
   6.2500000000000000E-002  0.89062500000000000        0.0000000000000000     
   4.0625000000000001E-002  0.88437500000000002        0.0000000000000000     
   5.1562499999999997E-002  0.88593750000000004        0.0000000000000000     
   5.3124999999999999E-002  0.89687499999999998        0.0000000000000000     
   4.2187500000000003E-002  0.89531249999999996        0.0000000000000000     
   7.8125000000000000E-002  0.90625000000000000        0.0000000000000000     
   9.3750000000000000E-002  0.90625000000000000        0.0000000000000000     
   9.3750000000000000E-002  0.92187500000000000        0.0000000000000000     
   7.1874999999999994E-002  0.91562500000000002        0.0000000000000000     
   8.2812499999999997E-002  0.91718750000000004        0.0000000000000000     
   8.4375000000000006E-002  0.92812499999999998        0.0000000000000000     
   7.3437500000000003E-002  0.92656249999999996        0.0000000000000000     
  0.10937500000000000       0.90625000000000000        0.0000000000000000     
  0.12500000000000000       0.90625000000000000        0.0000000000000000     
  0.12500000000000000       0.92187500000000000        0.0000000000000000     
  0.10312499999999999       0.91562500000000002        0.0000000000000000     
  0.11406250000000000       0.91718750000000004        0.0000000000000000     
  0.11562500000000001       0.92812499999999998        0.0000000000000000     
  0.10468750000000000       0.92656249999999996        0.0000000000000000     
   7.8125000000000000E-002  0.87500000000000000        0.0000000000000000     
   9.3750000000000000E-002  0.87500000000000000        0.0000000000000000     
   9.3750000000000000E-002  0.89062500000000000        0.0000000000000000     
   7.1874999999999994E-002  0.88437500000000002        0.0000000000000000     
   8.2812499999999997E-002  0.88593750000000004        0.0000000000000000     
   8.4375000000000006E-002  0.89687499999999998        0.0000000000000000     
   7.3437500000000003E-002  0.89531249999999996        0.0000000000000000     
  0.10937500000000000       0.87500000000000000        0.0000000000000000     
  0.12500000000000000       0.87500000000000000        0.0000000000000000     
  0.12500000000000000       0.89062500000000000        0.0000000000000000     
  0.10312499999999999       0.88437500000000002        0.0000000000000000     
  0.11406250000000000       0.88593750000000004        0.0000000000000000     
  0.11562500000000001       0.89687499999999998        0.0000000000000000     
  0.10468750000000000       0.89531249999999996        0.0000000000000000     
  0.14062500000000000       0.96875000000000000        0.0000000000000000     
  0.15625000000000000       0.96875000000000000        0.0000000000000000     
  0.15625000000000000       0.98437500000000000        0.0000000000000000     
  0.13437499999999999       0.97812500000000002        0.0000000000000000     
  0.14531250000000001       0.97968750000000004        0.0000000000000000     
  0.14687500000000001       0.99062499999999998        0.0000000000000000     
  0.13593749999999999       0.98906249999999996        0.0000000000000000     
  0.17187500000000000       0.96875000000000000        0.0000000000000000     
  0.18750000000000000       0.96875000000000000        0.0000000000000000     
  0.18750000000000000       0.98437500000000000        0.0000000000000000     
  0.16562499999999999       0.97812500000000002        0.0000000000000000     
  0.17656250000000001       0.97968750000000004        0.0000000000000000     
[...]
 CELL_DATA       14336
 SCALARS Tumor_cells float
 LOOKUP_TABLE default
    0.54404343588992341851E-01
    0.54404343148659113638E-01
    0.54404346645445259001E-01
    0.54404346645444426334E-01
    0.54404343148662284713E-01
    0.54404343588989489966E-01
    0.54404340820885382923E-01
    0.54404339180607289017E-01
    0.54404337408724405545E-01
    0.54404337408705982781E-01
    0.54404339180616795302E-01
    0.54404340820881504082E-01
    0.54404340565096021010E-01
    0.54404340565093002591E-01
    0.54404355101735558942E-01
    0.54404358169633938724E-01
    0.54404366499740550167E-01
    0.54404368808571607063E-01
    0.54404362559594292292E-01
    0.54404365549580696593E-01
    0.54404359002849893290E-01
    0.54404353562633914199E-01
    0.54404347816940180904E-01
    0.54404345770633959212E-01
    0.54404349339650770467E-01
    0.54404348901964452723E-01
    0.54404354509389137029E-01
    0.54404355736073210792E-01
    0.54404365549581674977E-01
    0.54404362559594153514E-01
    0.54404368808572176053E-01
    0.54404366499740564045E-01
    0.54404358169634910170E-01
    0.54404355101734629130E-01
    0.54404348901966499696E-01
    0.54404349339648973294E-01
    0.54404345770636595991E-01
    0.54404347816937967397E-01
    0.54404353562635392183E-01
    0.54404359002849830840E-01
    0.54404355736074043459E-01
    0.54404354509389067640E-01
    0.54404381031319143380E-01
    0.54404382377316241881E-01
    0.54404395428570333226E-01
    0.54404395428570243021E-01
    0.54404382377316318209E-01
    0.54404381031318643780E-01
    0.54404369471561297988E-01
    0.54404366179275187587E-01
    0.54404357591833249486E-01
    0.54404357591832347429E-01
    0.54404366179275860660E-01
    0.54404369471561145333E-01
    0.54404373269761885368E-01
    0.54404373269761642506E-01
    0.54404385914753591869E-01
    0.54404394230625825746E-01
    0.54404410525944087162E-01
    0.54404416601249137864E-01
    0.54404405818521940630E-01
    0.54404413116482683299E-01
    0.54404400239161446184E-01
    0.54404388294985582541E-01
    0.54404375948214289682E-01
    0.54404370735018491023E-01
    0.54404377318097760230E-01
    0.54404374152468279457E-01
    0.54404388543603396378E-01
    0.54404391826778891739E-01
    0.54404447717058060374E-01
    0.54404464522677255245E-01
    0.54404493387288137274E-01
    0.54404505132693362079E-01
    0.54404486907494990777E-01
    0.54404500432852401226E-01
    0.54404477609219237255E-01
    0.54404455917180238878E-01
    0.54404433375365601755E-01
    0.54404423138578329733E-01
    0.54404434712721903844E-01
    0.54404427062871255072E-01
    0.54404455478139553126E-01
    0.54404461859766925502E-01
    0.54404421507504005517E-01
    0.54404428014431772953E-01
    0.54404450948103803831E-01
    0.54404454009569863659E-01
    0.54404433617234876364E-01
    0.54404434786517560929E-01
    0.54404414681881924087E-01
    0.54404405810090324114E-01
    0.54404389378225517793E-01
    0.54404386904128611280E-01
    0.54404400663909460723E-01
    0.54404402204230060958E-01
    0.54404414799638457778E-01
    0.54404416372048285122E-01
    0.54404498295576572686E-01
    0.54404513303178692052E-01
    0.54404552863220670411E-01
    0.54404561062901660162E-01
    0.54404528356250758669E-01
    0.54404533585800163298E-01
    0.54404499579939515075E-01
    0.54404481681349772804E-01
    0.54404452632757990815E-01
    0.54404446056420079081E-01
    0.54404467895489291851E-01
    0.54404466661821852813E-01
    0.54404493462687573968E-01
    0.54404497681058421044E-01
    0.54404413116483987811E-01
    0.54404405818522912075E-01
    0.54404416601250227270E-01
    0.54404410525945003096E-01
    0.54404394230626706985E-01
    0.54404385914753945752E-01
    0.54404374152469119064E-01
    0.54404377318098058602E-01
    0.54404370735019497163E-01
    0.54404375948214678260E-01
    0.54404388294986665009E-01
    0.54404400239162466202E-01
    0.54404391826779849306E-01
    0.54404388543604138839E-01
    0.54404434786518664213E-01
    0.54404433617235535559E-01
    0.54404454009570710205E-01
    0.54404450948104261798E-01
    0.54404428014432307248E-01
    0.54404421507504040212E-01
    0.54404402204230449536E-01
    0.54404400663909613378E-01
    0.54404386904129291291E-01
    0.54404389378225781471E-01
    0.54404405810091122087E-01
    0.54404414681882652671E-01
    0.54404416372048916561E-01
    0.54404414799638950440E-01
    0.54404500432854711878E-01
    0.54404486907497037751E-01
    0.54404505132695575587E-01
    0.54404493387290017714E-01
    0.54404464522678976091E-01
    0.54404447717059337131E-01
    0.54404427062872580401E-01
    0.54404434712723243051E-01
    0.54404423138579745267E-01
    0.54404433375367045045E-01
    0.54404455917182063807E-01
    0.54404477609221332801E-01
    0.54404461859768729615E-01
    0.54404455478141253155E-01
    0.54404533585802189455E-01
    0.54404528356252590537E-01
    0.54404561062903464275E-01
    0.54404552863222425951E-01
    0.54404513303180017381E-01
    0.54404498295577627398E-01
    0.54404466661822643847E-01
    0.54404467895490443707E-01
    0.54404446056421203182E-01
    0.54404452632759350839E-01
    0.54404481681351320177E-01
    0.54404499579941430210E-01
    0.54404497681059975356E-01
    0.54404493462688940930E-01
    0.54404491296329536565E-01
    0.54404496356606310559E-01
    0.54404530415830779089E-01
    0.54404530415830779089E-01
    0.54404496356606039942E-01
    0.54404491296329071659E-01
    0.54404460268484826357E-01
    0.54404453080676838661E-01
    0.54404429286379854536E-01
    0.54404429286379937802E-01
    0.54404453080677053767E-01
    0.54404460268485381469E-01
    0.54404472742945082786E-01
    0.54404472742944985642E-01
    0.54404596586113046497E-01
    0.54404611609863068322E-01
    0.54404669044023593050E-01
    0.54404674414009569772E-01
    0.54404620952192964123E-01
    0.54404618129342510735E-01
    0.54404566655165922939E-01
    0.54404550021423102313E-01
    0.54404509325551707322E-01
    0.54404505690705165510E-01
    0.54404542004982237025E-01
    0.54404547491842245033E-01
    0.54404576820924033242E-01
    0.54404579362529272013E-01
    0.54404618129344335664E-01
    0.54404620952194227002E-01
    0.54404674414011054695E-01
    0.54404669044024432656E-01
    0.54404611609863907928E-01
    0.54404596586113247725E-01
    0.54404547491842654428E-01
    0.54404542004982785197E-01
    0.54404505690705977361E-01
    0.54404509325552498356E-01
    0.54404550021424351314E-01
    0.54404566655167387046E-01
    0.54404579362530305908E-01
    0.54404576820924949176E-01
    0.54404772279561502968E-01
    0.54404786537593896600E-01
    0.54404873216562683880E-01
    0.54404873216562697757E-01
    0.54404786537593397000E-01
    0.54404772279560774384E-01
    0.54404693553744269685E-01
    0.54404676612606825414E-01
    0.54404616584948682634E-01
    0.54404616584948987945E-01
    0.54404676612607102970E-01
    0.54404693553745331336E-01
    0.54404726832984244556E-01
    0.54404726832984105778E-01
    0.54404558930694749130E-01
    0.54404589219432974989E-01
    0.54404639340940391667E-01
    0.54404660414096459031E-01
    0.54404629217780151040E-01
    0.54404653145877147902E-01
    0.54404613665203410688E-01
    0.54404575661581924817E-01
    0.54404536333025749206E-01
    0.54404518151961199501E-01
    0.54404537934471329519E-01
    0.54404523660369415172E-01
    0.54404574222603939437E-01
    0.54404585602607150041E-01
    0.54404754099087883346E-01
    0.54404807133464121172E-01
    0.54404894506712611624E-01
    0.54404930925860739421E-01
    0.54404876362097988329E-01
    0.54404917137980721153E-01
    0.54404849079866673955E-01
    0.54404783553185141753E-01
    0.54404715422522453849E-01
    0.54404683899975138373E-01
    0.54404718041270651308E-01
    0.54404692836994353322E-01
    0.54404781114709262202E-01
    0.54404800853127550930E-01
    0.54404636856964908032E-01
    0.54404666327068869347E-01
    0.54404735134703528787E-01
    0.54404752053353946928E-01
    0.54404696957729078988E-01
    0.54404708268327779674E-01
    0.54404649515714949282E-01
    0.54404616982618579646E-01
    0.54404566597982088882E-01
    0.54404553644805252188E-01
    0.54404589442647241504E-01
    0.54404583745628704028E-01
    0.54404634495923788473E-01
    0.54404643010430610295E-01
    0.54404883966391669181E-01
    0.54404938479008020658E-01
    0.54405059532373643838E-01
    0.54405090745485475134E-01
    0.54404994569145534444E-01
    0.54405014806151973106E-01
    0.54404912285421866414E-01
    0.54404854967641046171E-01
    0.54404767109857705976E-01
    0.54404743617510693821E-01
    0.54404804848963685127E-01
    0.54404792356993629532E-01
    0.54404884114465153211E-01
    0.54404899659295416492E-01
    0.54405093480165249431E-01
    0.54405183744141279167E-01
    0.54405334244083822237E-01
    0.54405394140487048360E-01
    0.54405298892334051641E-01
    0.54405365550411789732E-01
    0.54405250330174424744E-01
    0.54405139794772898465E-01
    0.54405023769232986608E-01
    0.54404970004121422367E-01
    0.54405029333137219782E-01
    0.54404986948663192070E-01
    0.54405137373227240027E-01
    0.54405170412967315818E-01
    0.54405673596026375705E-01
    0.54405820540645501160E-01
    0.54406075376272726440E-01
    0.54406167824551043832E-01
    0.54406002590608730507E-01
    0.54406105528841314234E-01
    0.54405916176568369647E-01
    0.54405735659664361537E-01
    0.54405542784457840144E-01
    0.54405454104068350085E-01
    0.54405556340985809782E-01
    0.54405489036526519242E-01
    0.54405737071558539497E-01
    0.54405789993116251968E-01
    0.54405324052252158895E-01
    0.54405420598412815303E-01
    0.54405635465648777283E-01
    0.54405688543036866134E-01
    0.54405515895641257118E-01
    0.54405546336962748444E-01
    0.54405366885193588711E-01
    0.54405269838995691523E-01
    0.54405116731251951245E-01
    0.54405076503160822166E-01
    0.54405184237120172985E-01
    0.54405162147363475555E-01
    0.54405323534125978047E-01
    0.54405350027349488884E-01
    0.54406103261743367361E-01
    0.54406266221197478739E-01
    0.54406646046456813570E-01
    0.54406727241793330363E-01
    0.54406414093144304933E-01
    0.54406449170593396136E-01
    0.54406137129583947987E-01
    0.54405980991859691220E-01
    0.54405717052525927324E-01
    0.54405652374284761696E-01
    0.54405845490194337799E-01
    0.54405813778297527905E-01
    0.54406087155571845881E-01
    0.54406128653351953917E-01
    0.54404785174303235684E-01
    0.54404817819652367961E-01
    0.54404916223711817513E-01
    0.54404931392581942773E-01
    0.54404843650548491418E-01
    0.54404844868628302046E-01
    0.54404757001418488360E-01
    0.54404723855385375697E-01
    0.54404653702560257234E-01
    0.54404643942066635565E-01
    0.54404702208861753510E-01
    0.54404704912610450662E-01
    0.54404763396621008686E-01
    0.54404770336557446708E-01
    0.54405122244697193268E-01
    0.54405187668533805390E-01
    0.54405361336616053780E-01
    0.54405394862572523107E-01
    0.54405243702549177520E-01
    0.54405251113981360767E-01
    0.54405096822756342234E-01
    0.54405034907884813888E-01
    0.54404911554747928393E-01
    0.54404891051414133729E-01
    0.54404988851243944736E-01
    0.54404986036628064094E-01
    0.54405097919788224237E-01
    0.54405112863298410453E-01
    0.54405039868566033856E-01
    0.54405076069014367268E-01
    0.54405219837458787535E-01
    0.54405231725327435344E-01
    0.54405095536347064522E-01
    0.54405084503031470033E-01
    0.54404953651747238463E-01
    0.54404916131255559586E-01
    0.54404814674195341173E-01
    0.54404807839305423245E-01
    0.54404900508967270201E-01
    0.54404916076649663392E-01
    0.54404987145220400080E-01
    0.54404992279224718976E-01
    0.54405509353143415019E-01
    0.54405590028388510493E-01
    0.54405838186389894606E-01
    0.54405876590537818882E-01
    0.54405651380260704186E-01
    0.54405649259567090414E-01
    0.54405422191385832686E-01
    0.54405345160337161003E-01
    0.54405168413298725383E-01
    0.54405148146169271528E-01
    0.54405297607773885071E-01
    0.54405307545410779013E-01
    0.54405450810879232848E-01
    0.54405466750115032137E-01
    0.54405734272750132241E-01
    0.54405859504264873772E-01
    0.54406173383016662171E-01
    0.54406238040854947025E-01
    0.54405966275462236403E-01
    0.54405979545047861157E-01
    0.54405702964023042179E-01
    0.54405592276568097432E-01
    0.54405372401169313501E-01
    0.54405333988167887960E-01
    0.54405505343878848845E-01
    0.54405493959177965435E-01
    0.54405701874690508280E-01
    0.54405730229256259178E-01
    0.54406855658903338635E-01
    0.54407084355412332899E-01
    0.54407658913664509737E-01
    0.54407769840235840897E-01
    0.54407266645597217314E-01
    0.54407273777234518852E-01
    0.54406773763100199637E-01
    0.54406586505004142507E-01
    0.54406192840791373078E-01
    0.54406127696387071579E-01
    0.54406438688179285801E-01
    0.54406418703605095855E-01
    0.54406793732730836244E-01
    0.54406842071157618390E-01
    0.54406362478371508851E-01
    0.54406533156570235921E-01
    0.54406982056887709387E-01
    0.54407073088527851956E-01
    0.54406677029436086024E-01
    0.54406689672501250266E-01
    0.54406279859289891077E-01
    0.54406130022013610148E-01
    0.54405811680924877349E-01
    0.54405765727142743615E-01
    0.54406020368752888716E-01
    0.54406015475607770460E-01
    0.54406300633311026338E-01
    0.54406337760300363393E-01
    0.54407961790787141843E-01
    0.54408303949775062291E-01
    0.54409142836083577988E-01
    0.54409327310514329912E-01
    0.54408592752070605858E-01
    0.54408616804403078793E-01
    0.54407857796192886368E-01
    0.54407580966383789489E-01
    0.54406995361936674738E-01
    0.54406905226049219471E-01
    0.54407363743228943920E-01
    0.54407333481758184124E-01
    0.54407885900898220188E-01
    0.54407960030870089474E-01
    0.54404653145881012866E-01
    0.54404629217783717632E-01
    0.54404660414100136645E-01
    0.54404639340943895809E-01
    0.54404589219435986469E-01
    0.54404558930697413666E-01
    0.54404523660371725824E-01
    0.54404537934474000993E-01
    0.54404518151963704442E-01
    0.54404536333028490069E-01
    0.54404575661585088953E-01
    0.54404613665207025852E-01
    0.54404585602610362749E-01
    0.54404574222606937040E-01
    0.54404708268331589127E-01
    0.54404696957732381901E-01
    0.54404752053357596786E-01
    0.54404735134706609656E-01
    0.54404666327071721232E-01
    0.54404636856967100722E-01
    0.54404583745630889779E-01
    0.54404589442649579911E-01
    0.54404553644807625290E-01
    0.54404566597984593823E-01
    0.54404616982621611943E-01
    0.54404649515718273012E-01
    0.54404643010433531569E-01
    0.54404634495926598725E-01
    0.54404917137986952280E-01
    0.54404876362103754550E-01
    0.54404930925866887281E-01
    0.54404894506718162739E-01
    0.54404807133469179625E-01
    0.54404754099092234032E-01
    0.54404692836998447270E-01
    0.54404718041275022811E-01
    0.54404683899979336403E-01
    0.54404715422526978008E-01
    0.54404783553190297352E-01
    0.54404849079872474871E-01
    0.54404800853132692651E-01
    0.54404781114714237389E-01
    0.54405014806157989127E-01
    0.54404994569151363115E-01
    0.54405090745491414828E-01
    0.54405059532379562715E-01
    0.54404938479012919517E-01
    0.54404883966396144768E-01
    0.54404792356997321023E-01
    0.54404804848968008057E-01
    0.54404743617514648990E-01
    0.54404767109862195440E-01
    0.54404854967646014419E-01
    0.54404912285427597940E-01
    0.54404899659300558212E-01
    0.54404884114469996559E-01
    0.54404844868631646593E-01
    0.54404843650551655554E-01
    0.54404931392584947314E-01
    0.54404916223714835932E-01
    0.54404817819654630040E-01
    0.54404785174305220208E-01
    0.54404704912611824563E-01
    0.54404702208863814361E-01
    0.54404643942068439677E-01
    0.54404653702562630335E-01
    0.54404723855387977782E-01
    0.54404757001421832907E-01
    0.54404770336560111244E-01
    0.54404763396623367910E-01
    0.54405084503034641108E-01
    0.54405095536349243335E-01
    0.54405231725330016612E-01
    0.54405219837460230825E-01
    0.54405076069015824436E-01
    0.54405039868566366923E-01
    0.54404916076650350343E-01
    0.54404900508968234707E-01
    0.54404807839306845718E-01
    0.54404814674196777524E-01
    0.54404916131257717582E-01
    0.54404953651749750343E-01
    0.54404992279226530028E-01
    0.54404987145221975209E-01
    0.54405251113987918021E-01
    0.54405243702554909047E-01
    0.54405394862579045667E-01
    0.54405361336621514690E-01
    0.54405187668538822210E-01
    0.54405122244701072109E-01
    0.54404986036631811097E-01
    0.54404988851247906845E-01
    0.54404891051418179104E-01
    0.54404911554752050096E-01
    0.54405034907889948670E-01
    0.54405096822761928044E-01
    0.54405112863303448090E-01
    0.54405097919793095340E-01
    0.54405649259573085619E-01
    0.54405651380266428774E-01
    0.54405876590543328364E-01
    0.54405838186395417966E-01
    0.54405590028392555868E-01
    0.54405509353146953855E-01
    0.54405307545413145176E-01
    0.54405297607777514113E-01
    0.54405148146172387091E-01
    0.54405168413302978925E-01
    0.54405345160341775368E-01
    0.54405422191391890341E-01
    0.54405466750119743646E-01
    0.54405450810883472512E-01
    0.54405365550421351528E-01
    0.54405298892343044448E-01
    0.54405394140496346478E-01
    0.54405334244092780349E-01
    0.54405183744149140934E-01
    0.54405093480172486697E-01
    0.54404986948669534219E-01
    0.54405029333144235004E-01
    0.54404970004128062888E-01
    0.54405023769240140608E-01
    0.54405139794780954521E-01
    0.54405250330183459184E-01
    0.54405170412975441263E-01
    0.54405137373234997711E-01
    0.54405546336972698818E-01
    0.54405515895650492786E-01
    0.54405688543047177330E-01
    0.54405635465658137850E-01
    0.54405420598421273815E-01
    0.54405324052259382284E-01
    0.54405162147370220160E-01
    0.54405184237127167390E-01
    0.54405076503167601465E-01
    0.54405116731258952589E-01
    0.54405269839003851662E-01
    0.54405366885202359473E-01
    0.54405350027357801679E-01
    0.54405323534134041041E-01
    0.54406105528856003872E-01
    0.54406002590622552784E-01
    0.54406167824565851432E-01
    0.54406075376286437695E-01
    0.54405820540657887086E-01
    0.54405673596037346096E-01
    0.54405489036536594516E-01
    0.54405556340996537312E-01
    0.54405454104078619648E-01
    0.54405542784468817474E-01
    0.54405735659676747462E-01
    0.54405916176582198862E-01
    0.54405789993128693405E-01
    0.54405737071570627050E-01
    0.54406449170608627008E-01
    0.54406414093159424783E-01
    0.54406727241809636764E-01
    0.54406646046473008949E-01
    0.54406266221211078971E-01
    0.54406103261755975331E-01
    0.54405813778308075024E-01
    0.54405845490205904935E-01
    0.54405652374295135343E-01
    0.54405717052537300171E-01
    0.54405980991872382457E-01
    0.54406137129598075575E-01
    0.54406128653365373737E-01
    0.54406087155584779980E-01
    0.54405979545058422153E-01
    0.54405966275472721072E-01
    0.54406238040865924355E-01
    0.54406173383027583990E-01
    0.54405859504273790250E-01
    0.54405734272758417280E-01
    0.54405493959184487995E-01
    0.54405505343886488567E-01
    0.54405333988174625626E-01
    0.54405372401177022612E-01
    0.54405592276576701660E-01
    0.54405702964033131330E-01
    0.54405730229265335252E-01
    0.54405701874699140264E-01
    0.54406689672513698641E-01
    0.54406677029447028660E-01
    0.54407073088540411354E-01
    0.54406982056898395284E-01
    0.54406533156579756083E-01
    0.54406362478378905712E-01
    0.54406015475614667720E-01
    0.54406020368760243944E-01
    0.54405765727150112721E-01
    0.54405811680932454621E-01
    0.54406130022023158066E-01
    0.54406279859300368806E-01