# vtk DataFile Version 3.0
LAPLACIEN  2D
ASCII
DATASET UNSTRUCTURED_GRID
FIELD FieldData 1
TIME 1 1 double
0.9000
 POINTS        7297  float
   1.5625000000000000E-002  0.96875000000000000        0.0000000000000000     
   3.1250000000000000E-002  0.96875000000000000        0.0000000000000000     
   3.1250000000000000E-002  0.98437500000000000        0.0000000000000000     
   9.3749999999999997E-003  0.97812500000000002        0.0000000000000000     
   2.0312500000000001E-002  0.97968750000000004        0.0000000000000000     
   2.1874999999999999E-002  0.99062499999999998        0.0000000000000000     
   1.0937499999999999E-002  0.98906249999999996        0.0000000000000000     
   4.6875000000000000E-002  0.96875000000000000        0.0000000000000000     
   6.2500000000000000E-002  0.96875000000000000        0.0000000000000000     
   6.2500000000000000E-002  0.98437500000000000        0.0000000000000000     
   4.0625000000000001E-002  0.97812500000000002        0.0000000000000000     
   5.1562499999999997E-002  0.97968750000000004        0.0000000000000000     
   5.3124999999999999E-002  0.99062499999999998        0.0000000000000000     
   4.2187500000000003E-002  0.98906249999999996        0.0000000000000000     
   1.5625000000000000E-002  0.93750000000000000        0.0000000000000000     
   3.1250000000000000E-002  0.93750000000000000        0.0000000000000000     
   3.1250000000000000E-002  0.95312500000000000        0.0000000000000000     
   9.3749999999999997E-003  0.94687500000000002        0.0000000000000000     
   2.0312500000000001E-002  0.94843750000000004        0.0000000000000000     
   2.1874999999999999E-002  0.95937499999999998        0.0000000000000000     
   1.0937499999999999E-002  0.95781249999999996        0.0000000000000000     
   4.6875000000000000E-002  0.93750000000000000        0.0000000000000000     
   6.2500000000000000E-002  0.93750000000000000        0.0000000000000000     
   6.2500000000000000E-002  0.95312500000000000        0.0000000000000000     
   4.0625000000000001E-002  0.94687500000000002        0.0000000000000000     
   5.1562499999999997E-002  0.94843750000000004        0.0000000000000000     
   5.3124999999999999E-002  0.95937499999999998        0.0000000000000000     
   4.2187500000000003E-002  0.95781249999999996        0.0000000000000000     
   7.8125000000000000E-002  0.96875000000000000        0.0000000000000000     
   9.3750000000000000E-002  0.96875000000000000        0.0000000000000000     
   9.3750000000000000E-002  0.98437500000000000        0.0000000000000000     
   7.1874999999999994E-002  0.97812500000000002        0.0000000000000000     
   8.2812499999999997E-002  0.97968750000000004        0.0000000000000000     
   8.4375000000000006E-002  0.99062499999999998        0.0000000000000000     
   7.3437500000000003E-002  0.98906249999999996        0.0000000000000000     
  0.10937500000000000       0.96875000000000000        0.0000000000000000     
  0.12500000000000000       0.96875000000000000        0.0000000000000000     
  0.12500000000000000       0.98437500000000000        0.0000000000000000     
  0.10312499999999999       0.97812500000000002        0.0000000000000000     
  0.11406250000000000       0.97968750000000004        0.0000000000000000     
  0.11562500000000001       0.99062499999999998        0.0000000000000000     
  0.10468750000000000       0.98906249999999996        0.0000000000000000     
   7.8125000000000000E-002  0.93750000000000000        0.0000000000000000     
   9.3750000000000000E-002  0.93750000000000000        0.0000000000000000     
   9.3750000000000000E-002  0.95312500000000000        0.0000000000000000     
   7.1874999999999994E-002  0.94687500000000002        0.0000000000000000     
   8.2812499999999997E-002  0.94843750000000004        0.0000000000000000     
   8.4375000000000006E-002  0.95937499999999998        0.0000000000000000     
   7.3437500000000003E-002  0.95781249999999996        0.0000000000000000     
  0.10937500000000000       0.93750000000000000        0.0000000000000000     
  0.12500000000000000       0.93750000000000000        0.0000000000000000     
  0.12500000000000000       0.95312500000000000        0.0000000000000000     
  0.10312499999999999       0.94687500000000002        0.0000000000000000     
  0.11406250000000000       0.94843750000000004        0.0000000000000000     
  0.11562500000000001       0.95937499999999998        0.0000000000000000     
  0.10468750000000000       0.95781249999999996        0.0000000000000000     
   1.5625000000000000E-002  0.90625000000000000        0.0000000000000000     
   3.1250000000000000E-002  0.90625000000000000        0.0000000000000000     
   3.1250000000000000E-002  0.92187500000000000        0.0000000000000000     
   9.3749999999999997E-003  0.91562500000000002        0.0000000000000000     
   2.0312500000000001E-002  0.91718750000000004        0.0000000000000000     
   2.1874999999999999E-002  0.92812499999999998        0.0000000000000000     
   1.0937499999999999E-002  0.92656249999999996        0.0000000000000000     
   4.6875000000000000E-002  0.90625000000000000        0.0000000000000000     
   6.2500000000000000E-002  0.90625000000000000        0.0000000000000000     
   6.2500000000000000E-002  0.92187500000000000        0.0000000000000000     
   4.0625000000000001E-002  0.91562500000000002        0.0000000000000000     
   5.1562499999999997E-002  0.91718750000000004        0.0000000000000000     
   5.3124999999999999E-002  0.92812499999999998        0.0000000000000000     
   4.2187500000000003E-002  0.92656249999999996        0.0000000000000000     
   1.5625000000000000E-002  0.87500000000000000        0.0000000000000000     
   3.1250000000000000E-002  0.87500000000000000        0.0000000000000000     
   3.1250000000000000E-002  0.89062500000000000        0.0000000000000000     
   9.3749999999999997E-003  0.88437500000000002        0.0000000000000000     
   2.0312500000000001E-002  0.88593750000000004        0.0000000000000000     
   2.1874999999999999E-002  0.89687499999999998        0.0000000000000000     
   1.0937499999999999E-002  0.89531249999999996        0.0000000000000000     
   4.6875000000000000E-002  0.87500000000000000        0.0000000000000000     
   6.2500000000000000E-002  0.87500000000000000        0.0000000000000000     
   6.2500000000000000E-002  0.89062500000000000        0.0000000000000000     
   4.0625000000000001E-002  0.88437500000000002        0.0000000000000000     
   5.1562499999999997E-002  0.88593750000000004        0.0000000000000000     
   5.3124999999999999E-002  0.89687499999999998        0.0000000000000000     
   4.2187500000000003E-002  0.89531249999999996        0.0000000000000000     
   7.8125000000000000E-002  0.90625000000000000        0.0000000000000000     
   9.3750000000000000E-002  0.90625000000000000        0.0000000000000000     
   9.3750000000000000E-002  0.92187500000000000        0.0000000000000000     
   7.1874999999999994E-002  0.91562500000000002        0.0000000000000000     
   8.2812499999999997E-002  0.91718750000000004        0.0000000000000000     
   8.4375000000000006E-002  0.92812499999999998        0.0000000000000000     
   7.3437500000000003E-002  0.92656249999999996        0.0000000000000000     
  0.10937500000000000       0.90625000000000000        0.0000000000000000     
  0.12500000000000000       0.90625000000000000        0.0000000000000000     
  0.12500000000000000       0.92187500000000000        0.0000000000000000     
  0.10312499999999999       0.91562500000000002        0.0000000000000000     
  0.11406250000000000       0.91718750000000004        0.0000000000000000     
  0.11562500000000001       0.92812499999999998        0.0000000000000000     
  0.10468750000000000       0.92656249999999996        0.0000000000000000     
   7.8125000000000000E-002  0.87500000000000000        0.0000000000000000     
   9.3750000000000000E-002  0.87500000000000000        0.0000000000000000     
   9.3750000000000000E-002  0.89062500000000000        0.0000000000000000     
   7.1874999999999994E-002  0.88437500000000002        0.0000000000000000     
   8.2812499999999997E-002  0.88593750000000004        0.0000000000000000     
   8.4375000000000006E-002  0.89687499999999998        0.0000000000000000     
   7.3437500000000003E-002  0.89531249999999996        0.0000000000000000     
  0.10937500000000000       0.87500000000000000        0.0000000000000000     
  0.12500000000000000       0.87500000000000000        0.0000000000000000     
  0.12500000000000000       0.89062500000000000        0.0000000000000000     
  0.10312499999999999       0.88437500000000002        0.0000000000000000     
  0.11406250000000000       0.88593750000000004        0.0000000000000000     
  0.11562500000000001       0.89687499999999998        0.0000000000000000     
  0.10468750000000000       0.89531249999999996        0.0000000000000000     
  0.14062500000000000       0.96875000000000000        0.0000000000000000     
  0.15625000000000000       0.96875000000000000        0.0000000000000000     
  0.15625000000000000       0.98437500000000000        0.0000000000000000     
  0.13437499999999999       0.97812500000000002        0.0000000000000000     
  0.14531250000000001       0.97968750000000004        0.0000000000000000     
  0.14687500000000001       0.99062499999999998        0.0000000000000000     
  0.13593749999999999       0.98906249999999996        0.0000000000000000     
  0.17187500000000000       0.96875000000000000        0.0000000000000000     
  0.18750000000000000       0.96875000000000000        0.0000000000000000     
  0.18750000000000000       0.98437500000000000        0.0000000000000000     
  0.16562499999999999       0.97812500000000002        0.0000000000000000     
  0.17656250000000001       0.97968750000000004        0.0000000000000000     
[...]
 CELL_DATA       14336
 SCALARS Tumor_cells float
 LOOKUP_TABLE default
    0.50382488070204369673E-02
    0.50345731022386755113E-02
    0.50571893951265435921E-02
    0.50571893951132486714E-02
    0.50345731022019574868E-02
    0.50382488069311047799E-02
    0.50195204611995910757E-02
    0.50082257676346665989E-02
    0.49960834237474070763E-02
    0.49960834237591233986E-02
    0.50082257676875305621E-02
    0.50195204613423111129E-02
    0.50174584738001551734E-02
    0.50174584737869773465E-02
    0.51089247731639243072E-02
    0.51274925969296549985E-02
    0.51741795216470095470E-02
    0.51875978739689626931E-02
    0.51545169813016124966E-02
    0.51725628985551342851E-02
    0.51356307262053835574E-02
    0.51022504127519853825E-02
    0.50661770450790288844E-02
    0.50522552653743885501E-02
    0.50748329239098180499E-02
    0.50712691180944471925E-02
    0.51068676657000013769E-02
    0.51148659097661345121E-02
    0.51725628986630271464E-02
    0.51545169813627007838E-02
    0.51875978739763769013E-02
    0.51741795216581204508E-02
    0.51274925969585303381E-02
    0.51089247731784977191E-02
    0.50712691181168285948E-02
    0.50748329239658817105E-02
    0.50522552654592442836E-02
    0.50661770451740847920E-02
    0.51022504128646565397E-02
    0.51356307263846689634E-02
    0.51148659098373492476E-02
    0.51068676657581631856E-02
    0.52451158978384518697E-02
    0.52496395082279401559E-02
    0.53075854843449869411E-02
    0.53075854843621702445E-02
    0.52496395082343152647E-02
    0.52451158978399185784E-02
    0.51885813615630011625E-02
    0.51701034285731809620E-02
    0.51231238591931665266E-02
    0.51231238591989058592E-02
    0.51701034285769930168E-02
    0.51885813615695055082E-02
    0.52060022069086693899E-02
    0.52060022069090458249E-02
    0.52713638856324860141E-02
    0.53108029451591097156E-02
    0.53803271182988323881E-02
    0.54060435627785018847E-02
    0.53629131842601847693E-02
    0.53941777974109870672E-02
    0.53402257228883781570E-02
    0.52860931722501910621E-02
    0.52272805104767641055E-02
    0.52000678737737417862E-02
    0.52328131927817005467E-02
    0.52152570321039714435E-02
    0.52865758551441230026E-02
    0.53020590853469591261E-02
    0.55196962726034816057E-02
    0.55778736686899225636E-02
    0.56681668907484824421E-02
    0.57046098915829795625E-02
    0.56522136468032616735E-02
    0.56950600579381170305E-02
    0.56258967577211115713E-02
    0.55531042097093736773E-02
    0.54735732191302224545E-02
    0.54341837915182975016E-02
    0.54764600249550465447E-02
    0.54462875017949304371E-02
    0.55500844433999559080E-02
    0.55722660328967376156E-02
    0.54118632819118456939E-02
    0.54372928248040790222E-02
    0.55190156004755021660E-02
    0.55310527005645159643E-02
    0.54618615919495017152E-02
    0.54698258225011862910E-02
    0.53952920097823011542E-02
    0.53563805203923064990E-02
    0.52860158599877700436E-02
    0.52729925821202372135E-02
    0.53310327787122972071E-02
    0.53358834313677709626E-02
    0.53891795246924362184E-02
    0.53965128708110578215E-02
    0.56667782484264087040E-02
    0.57106880682803598873E-02
    0.58142298086529958789E-02
    0.58364812035595417528E-02
    0.57564711738145200523E-02
    0.57749081924806291294E-02
    0.56839151075976732802E-02
    0.56269249664828721938E-02
    0.55350436494914032753E-02
    0.55103665578481869636E-02
    0.55792258107005303011E-02
    0.55722283430926049241E-02
    0.56577730887102063370E-02
    0.56715067226592585925E-02
    0.53941777975035380341E-02
    0.53629131843274148450E-02
    0.54060435628187275200E-02
    0.53803271183248445667E-02
    0.53108029451883597555E-02
    0.52713638856349588624E-02
    0.52152570320870310014E-02
    0.52328131928275501555E-02
    0.52000678738669432744E-02
    0.52272805105764092240E-02
    0.52860931723609479518E-02
    0.53402257230570314428E-02
    0.53020590854177757426E-02
    0.52865758551998241060E-02
    0.54698258224983855799E-02
    0.54618615919564761710E-02
    0.55310527005847185539E-02
    0.55190156005100066833E-02
    0.54372928248126086576E-02
    0.54118632819017704200E-02
    0.53358834313221590109E-02
    0.53310327786971496017E-02
    0.52729925821170297098E-02
    0.52860158599890268508E-02
    0.53563805203983528777E-02
    0.53952920097970914065E-02
    0.53965128708140762404E-02
    0.53891795246925689247E-02
    0.56950600582779979317E-02
    0.56522136470807515102E-02
    0.57046098918619335058E-02
    0.56681668909787106050E-02
    0.55778736688625492335E-02
    0.55196962726964098750E-02
    0.54462875018341906988E-02
    0.54764600250751084912E-02
    0.54341837916415851664E-02
    0.54735732192993137579E-02
    0.55531042099574564816E-02
    0.56258967580853965623E-02
    0.55722660331184161939E-02
    0.55500844435874196678E-02
    0.57749081927302931341E-02
    0.57564711740361066902E-02
    0.58364812038193148586E-02
    0.58142298088917077070E-02
    0.57106880684354181452E-02
    0.56667782485095817557E-02
    0.55722283431082000882E-02
    0.55792258107680856374E-02
    0.55103665578888983215E-02
    0.55350436495787795621E-02
    0.56269249666371324789E-02
    0.56839151078171583006E-02
    0.56715067228201255720E-02
    0.56577730888485626773E-02
    0.56436774120259920393E-02
    0.56570572455589412941E-02
    0.57513298086458919042E-02
    0.57513298086431007342E-02
    0.56570572455535393652E-02
    0.56436774120154587983E-02
    0.55484304527398387030E-02
    0.55230756498599858223E-02
    0.54406201433626821470E-02
    0.54406201433616768748E-02
    0.55230756498778829644E-02
    0.55484304527949101019E-02
    0.55863545510948259959E-02
    0.55863545510914033865E-02
    0.59094468648019007201E-02
    0.59414355536009577294E-02
    0.60588919630587033741E-02
    0.60688455683277874042E-02
    0.59621324430795749616E-02
    0.59584000316764583124E-02
    0.58451984796310287040E-02
    0.58019905342808365117E-02
    0.56968865489185971721E-02
    0.56854936952416426990E-02
    0.57801567482707568238E-02
    0.57941348134341501622E-02
    0.58647159832925415193E-02
    0.58709641521012432760E-02
    0.59584000319363450426E-02
    0.59621324432966010115E-02
    0.60688455685658036082E-02
    0.60588919632566665477E-02
    0.59414355537397642304E-02
    0.59094468648825124527E-02
    0.57941348134397914829E-02
    0.57801567483353613955E-02
    0.56854936952879372644E-02
    0.56968865490053810507E-02
    0.58019905344463612237E-02
    0.58451984798889066244E-02
    0.58709641522609150310E-02
    0.58647159834258975192E-02
    0.62388967962113605834E-02
    0.62617479739185376297E-02
    0.63932737335342416929E-02
    0.63932737334978523985E-02
    0.62617479738473419762E-02
    0.62388967960463857787E-02
    0.61039633373363329227E-02
    0.60719733788329247060E-02
    0.59532214141950643913E-02
    0.59532214142355918685E-02
    0.60719733789144497704E-02
    0.61039633375302038837E-02
    0.61634169323493137593E-02
    0.61634169323268777133E-02
    0.58449044294662851756E-02
    0.59189921440796888080E-02
    0.60272135902040601188E-02
    0.60724095470794381413E-02
    0.60118767886840791814E-02
    0.60642338113211678371E-02
    0.59822375347502341689E-02
    0.58935721437146952259E-02
    0.57961121586646083270E-02
    0.57461095163490044646E-02
    0.57969280757142419708E-02
    0.57559809391338956006E-02
    0.58878126949839437385E-02
    0.59156569997525455459E-02
    0.62350991143783722481E-02
    0.63216632851866893031E-02
    0.64442881962687723410E-02
    0.64959246071083160193E-02
    0.64286955100604026639E-02
    0.64881236656043235478E-02
    0.63961671121011689709E-02
    0.62950234341864180071E-02
    0.61831053491831168209E-02
    0.61244540054654177108E-02
    0.61825043242244642414E-02
    0.61330319444576333540E-02
    0.62873930637488842713E-02
    0.63196481073129430125E-02
    0.60006029098896868784E-02
    0.60598818759867584260E-02
    0.61824738243700261969E-02
    0.62127335019812428285E-02
    0.61227331655290071627E-02
    0.61492341145702065705E-02
    0.60439368053450065812E-02
    0.59718965673757262377E-02
    0.58611644276598704947E-02
    0.58266334314910220651E-02
    0.59056713452747553253E-02
    0.58890424768793308771E-02
    0.60020167374906967586E-02
    0.60209794987647257888E-02
    0.64011338750358543620E-02
    0.64720850960618553360E-02
    0.66102339256756429894E-02
    0.66459843960249226705E-02
    0.65472005886101723032E-02
    0.65790411811834864989E-02
    0.64621425831250731142E-02
    0.63786579794486777950E-02
    0.62524557868637127209E-02
    0.62102440340824505843E-02
    0.62984386300390139690E-02
    0.62747608850480954615E-02
    0.64093057411072872076E-02
    0.64321260224510920164E-02
    0.66758952969036460326E-02
    0.67710077296734838548E-02
    0.69039419250814014831E-02
    0.69594435956294425222E-02
    0.68872222094674062295E-02
    0.69509940675529695644E-02
    0.68523500879900658619E-02
    0.67426195834568887488E-02
    0.66202838700689537604E-02
    0.65552862887862063321E-02
    0.66189774004333989596E-02
    0.65635642081792663904E-02
    0.67340644679084824681E-02
    0.67693026499924570383E-02
    0.71508843673369513680E-02
    0.72502545705883563246E-02
    0.73889735891641558987E-02
    0.74455904389975745977E-02
    0.73702859166852778897E-02
    0.74354791113937154790E-02
    0.73337086798390778083E-02
    0.72196479886669955375E-02
    0.70913688256163112320E-02
    0.70225888592862382651E-02
    0.70901024044362813761E-02
    0.70315818367689192012E-02
    0.72111599200174883798E-02
    0.72478261470138817188E-02
    0.68536111912020705739E-02
    0.69320734283121023325E-02
    0.70816756779104594877E-02
    0.71201717605199827191E-02
    0.70141500087161148813E-02
    0.70483808527697028659E-02
    0.69230428273566102168E-02
    0.68321787067820169762E-02
    0.66944929921846172555E-02
    0.66470763565502901868E-02
    0.67430555388840905315E-02
    0.67151924856970390473E-02
    0.68646000767661006364E-02
    0.68897509142076488603E-02
    0.73412074457268406205E-02
    0.74226960019057588655E-02
    0.75791790963066207887E-02
    0.76175416049666247811E-02
    0.75061113805739501648E-02
    0.75396582114759897950E-02
    0.74093920589783819619E-02
    0.73155346408016680773E-02
    0.71708229852207941435E-02
    0.71208973405819326122E-02
    0.72229851079347630327E-02
    0.71939855529443361148E-02
    0.73509246722562263804E-02
    0.73767753303093574688E-02
    0.62574781285682484072E-02
    0.63046507146168667343E-02
    0.64425323228656716443E-02
    0.64599828347537907938E-02
    0.63414005367664382298E-02
    0.63445501603889139716E-02
    0.62153763419660864112E-02
    0.61576313438775186898E-02
    0.60324845105262170711E-02
    0.60117499005563311554E-02
    0.61182873050415137808E-02
    0.61234884984432431249E-02
    0.62214734986560582194E-02
    0.62326522991730127360E-02
    0.66750476992246451230E-02
    0.67334011871818359729E-02
    0.68881750352060731532E-02
    0.69103738828768628000E-02
    0.67809406150475719580E-02
    0.67879352729975665423E-02
    0.66453798209261368338E-02
    0.65769718064937459506E-02
    0.64351459311477142433E-02
    0.64074748738477994847E-02
    0.65251096202531139179E-02
    0.65244676291689998257E-02
    0.66435655238612214765E-02
    0.66581682150835003881E-02
    0.66061985698469558384E-02
    0.66444102283243471757E-02
    0.67979368955088615920E-02
    0.68051740382861969011E-02
    0.66599471943091246087E-02
    0.66431065480688838640E-02
    0.64904237126065132332E-02
    0.64440558381077062480E-02
    0.63038216414065930196E-02
    0.62947403542993494649E-02
    0.64270620882381683872E-02
    0.64508114088784075657E-02
    0.65382228115404015037E-02
    0.65430017080635380355E-02
    0.70468718545736276984E-02
    0.70961027834418460847E-02
    0.72679867954183879908E-02
    0.72794639453840096974E-02
    0.71214189423846547058E-02
    0.71072239261145255321E-02
    0.69393367708065660862E-02
    0.68827756958944816268E-02
    0.67244766171294283533E-02
    0.67089695381403182881E-02
    0.68542760038734201061E-02
    0.68730748681431214769E-02
    0.69816576777615782512E-02
    0.69895632097450562450E-02
    0.71467757452126816700E-02
    0.72118625390020221419E-02
    0.73793387263753435976E-02
    0.74033380298611749237E-02
    0.72644848772484699184E-02
    0.72721177461875412609E-02
    0.71192934185969223779E-02
    0.70445259662678984258E-02
    0.68900335459067540977E-02
    0.68581063888097648640E-02
    0.69856408834688913517E-02
    0.69823255094885981753E-02
    0.71154152785678362672E-02
    0.71317960676155565253E-02
    0.76551439022459538339E-02
    0.77222243708600273385E-02
    0.78977036124517809718E-02
    0.79204577043085165611E-02
    0.77739748538636190348E-02
    0.77789781963392328271E-02
    0.76194094809232358612E-02
    0.75428689089470169274E-02
    0.73802335186690434105E-02
    0.73469153853380495325E-02
    0.74827729713587629035E-02
    0.74800830277235302868E-02
    0.76194562795405722591E-02
    0.76358863969510984426E-02
    0.75446912705700776985E-02
    0.76001649682449698431E-02
    0.77860549683445292798E-02
    0.77985970968848725149E-02
    0.76291006318952711215E-02
    0.76140626352689940934E-02
    0.74341026125399594510E-02
    0.73719430944087374971E-02
    0.71996940064691615502E-02
    0.71806716473961380159E-02
    0.73378880396027246213E-02
    0.73552277033624938879E-02
    0.74773677291095127367E-02
    0.74866206133229950756E-02
    0.80811988551865165942E-02
    0.81378707650341941537E-02
    0.83328662339557987154E-02
    0.83432318172569890774E-02
    0.81640784167703282781E-02
    0.81447045050417436751E-02
    0.79562737957297995778E-02
    0.78933614249433632637E-02
    0.77118300717869316813E-02
    0.76923586471188132307E-02
    0.78599598167915733088E-02
    0.78794131990752268313E-02
    0.80069328020671275831E-02
    0.80156882356151922669E-02
    0.60642338121405054904E-02
    0.60118767894044326458E-02
    0.60724095478271334497E-02
    0.60272135908686014574E-02
    0.59189921446273245295E-02
    0.58449044298793774790E-02
    0.57559809394475275335E-02
    0.57969280761441515509E-02
    0.57461095167549956775E-02
    0.57961121591510664230E-02
    0.58935721443396553790E-02
    0.59822375355452544685E-02
    0.59156570003603909172E-02
    0.58878126955377602797E-02
    0.61492341152991980904E-02
    0.61227331661913523414E-02
    0.62127335027041871024E-02
    0.61824738250363152695E-02
    0.60598818765133493497E-02
    0.60006029102901122310E-02
    0.58890424771693124575E-02
    0.59056713456530456063E-02
    0.58266334318179992258E-02
    0.58611644280674758678E-02
    0.59718965679086809945E-02
    0.60439368059986165599E-02
    0.60209794993112113887E-02
    0.60020167379945159672E-02
    0.64881236671228753252E-02
    0.64286955114448958784E-02
    0.64959246085441830695E-02
    0.64442881975881674550E-02
    0.63216632863330882511E-02
    0.62350991153372892217E-02
    0.61330319452744287700E-02
    0.61825043251921545789E-02
    0.61244540063842070610E-02
    0.61831053502152217780E-02
    0.62950234354131181722E-02
    0.63961671135486794851E-02
    0.63196481085311022666E-02
    0.62873930648940099322E-02
    0.65790411826086364275E-02
    0.65472005899301832441E-02
    0.66459843974248904858E-02
    0.66102339269836505112E-02
    0.64720850971778003460E-02
    0.64011338759726709585E-02
    0.62747608858350753178E-02
    0.62984386309507377905E-02
    0.62102440349211382106E-02
    0.62524557878164003025E-02
    0.63786579805818746300E-02
    0.64621425844326946600E-02
    0.64321260236028842197E-02
    0.64093057421965608442E-02
    0.63445501611179809520E-02
    0.63414005374142204050E-02
    0.64599828354431005142E-02
    0.64425323234804030004E-02
    0.63046507151181619202E-02
    0.62574781289575437740E-02
    0.61234884987177457677E-02
    0.61182873054110636576E-02
    0.60117499008849606401E-02
    0.60324845109291985387E-02
    0.61576313444147634177E-02
    0.62153763426492023014E-02
    0.62326522997102002180E-02
    0.62214734991470881792E-02
    0.66431065486912228499E-02
    0.66599471948017340342E-02
    0.68051740387648660888E-02
    0.67979368958823423522E-02
    0.66444102286103163407E-02
    0.66061985699882074322E-02
    0.64508114089516059575E-02
    0.64270620884570731426E-02
    0.62947403545360368707E-02
    0.63038216417559160207E-02
    0.64440558385524693980E-02
    0.64904237132148408576E-02
    0.65430017084559888643E-02
    0.65382228118693111463E-02
    0.67879352744048982587E-02
    0.67809406163346352958E-02
    0.69103738842219691180E-02
    0.68881750364422527147E-02
    0.67334011882546245323E-02
    0.66750477001328613336E-02
    0.65244676299271086792E-02
    0.65251096211426003191E-02
    0.64074748746770944507E-02
    0.64351459320848647741E-02
    0.65769718076168909304E-02
    0.66453798222472215684E-02
    0.66581682162098762903E-02
    0.66435655249217915111E-02
    0.71072239273926567787E-02
    0.71214189434965916373E-02
    0.72794639464981054922E-02
    0.72679867963953564969E-02
    0.70961027842839129523E-02
    0.70468718552219250864E-02
    0.68730748686895585045E-02
    0.68542760045987938602E-02
    0.67089695388640518611E-02
    0.67244766179966287620E-02
    0.68827756969071455379E-02
    0.69393367720322800610E-02
    0.69895632107093213711E-02
    0.69816576786439913174E-02
    0.69509940699769021469E-02
    0.68872222117244913733E-02
    0.69594435979603410172E-02
    0.69039419272640045397E-02
    0.67710077316305451040E-02
    0.66758952986228567439E-02
    0.65635642097170033421E-02
    0.66189774021549784358E-02
    0.65552862904356308527E-02
    0.66202838718626231401E-02
    0.67426195854976183133E-02
    0.68523500902987893868E-02
    0.67693026520326852677E-02
    0.67340644698577452679E-02
    0.70483808550956010205E-02
    0.70141500108986780393E-02
    0.71201717627984977693E-02
    0.70816756800620942608E-02
    0.69320734302236401009E-02
    0.68536111928832691570E-02
    0.67151924871932996280E-02
    0.67430555405411972750E-02
    0.66470763581156422015E-02
    0.66944929938962168675E-02
    0.68321787087254849322E-02
    0.69230428295260710084E-02
    0.68897509161728849938E-02
    0.68646000786494482809E-02
    0.74354791149033308204E-02
    0.73702859200096178249E-02
    0.74455904424282773682E-02
    0.73889735924090255495E-02
    0.72502545735562340043E-02
    0.71508843700185641123E-02
    0.70315818392326350644E-02
    0.70901024071143908464E-02
    0.70225888618700767901E-02
    0.70913688283723757058E-02
    0.72196479917171763052E-02
    0.73337086831960591679E-02
    0.72478261500735774447E-02
    0.72111599229701499325E-02
    0.75396582148843467250E-02
    0.75061113838110760099E-02
    0.76175416083212165591E-02
    0.75791790994930796979E-02
    0.74226960048071463291E-02
    0.73412074483475515604E-02
    0.71939855553496377671E-02
    0.72229851105367849293E-02
    0.71208973430765681867E-02
    0.71708229878927175899E-02
    0.73155346437526642955E-02
    0.74093920622041575114E-02
    0.73767753332835764302E-02
    0.73509246751298521969E-02
    0.72721177484689524320E-02
    0.72644848793698866760E-02
    0.74033380320522364920E-02
    0.73793387284232150186E-02
    0.72118625408418507786E-02
    0.71467757468368356064E-02
    0.69823255109329384824E-02
    0.69856408850812725872E-02
    0.68581063903468617027E-02
    0.68900335475846827271E-02
    0.70445259681789348591E-02
    0.71192934207562784052E-02
    0.71317960695300042923E-02
    0.71154152803970397226E-02
    0.76140626373851563735E-02
    0.76291006338077595184E-02
    0.77985970988095273948E-02
    0.77860549701003539322E-02
    0.76001649698250817525E-02
    0.75446912719094151936E-02
    0.73552277045729448982E-02
    0.73378880410255595615E-02
    0.71806716488029458459E-02
    0.71996940080495961181E-02
    0.73719430961791260204E-02
    0.74341026145710881884E-02