# vtk DataFile Version 3.0
LAPLACIEN  2D
ASCII
DATASET UNSTRUCTURED_GRID
FIELD FieldData 1
TIME 1 1 double
10.3000
 POINTS        7297  float
   1.5625000000000000E-002  0.96875000000000000        0.0000000000000000     
   3.1250000000000000E-002  0.96875000000000000        0.0000000000000000     
   3.1250000000000000E-002  0.98437500000000000        0.0000000000000000     
   9.3749999999999997E-003  0.97812500000000002        0.0000000000000000     
   2.0312500000000001E-002  0.97968750000000004        0.0000000000000000     
   2.1874999999999999E-002  0.99062499999999998        0.0000000000000000     
   1.0937499999999999E-002  0.98906249999999996        0.0000000000000000     
   4.6875000000000000E-002  0.96875000000000000        0.0000000000000000     
   6.2500000000000000E-002  0.96875000000000000        0.0000000000000000     
   6.2500000000000000E-002  0.98437500000000000        0.0000000000000000     
   4.0625000000000001E-002  0.97812500000000002        0.0000000000000000     
   5.1562499999999997E-002  0.97968750000000004        0.0000000000000000     
   5.3124999999999999E-002  0.99062499999999998        0.0000000000000000     
   4.2187500000000003E-002  0.98906249999999996        0.0000000000000000     
   1.5625000000000000E-002  0.93750000000000000        0.0000000000000000     
   3.1250000000000000E-002  0.93750000000000000        0.0000000000000000     
   3.1250000000000000E-002  0.95312500000000000        0.0000000000000000     
   9.3749999999999997E-003  0.94687500000000002        0.0000000000000000     
   2.0312500000000001E-002  0.94843750000000004        0.0000000000000000     
   2.1874999999999999E-002  0.95937499999999998        0.0000000000000000     
   1.0937499999999999E-002  0.95781249999999996        0.0000000000000000     
   4.6875000000000000E-002  0.93750000000000000        0.0000000000000000     
   6.2500000000000000E-002  0.93750000000000000        0.0000000000000000     
   6.2500000000000000E-002  0.95312500000000000        0.0000000000000000     
   4.0625000000000001E-002  0.94687500000000002        0.0000000000000000     
   5.1562499999999997E-002  0.94843750000000004        0.0000000000000000     
   5.3124999999999999E-002  0.95937499999999998        0.0000000000000000     
   4.2187500000000003E-002  0.95781249999999996        0.0000000000000000     
   7.8125000000000000E-002  0.96875000000000000        0.0000000000000000     
   9.3750000000000000E-002  0.96875000000000000        0.0000000000000000     
   9.3750000000000000E-002  0.98437500000000000        0.0000000000000000     
   7.1874999999999994E-002  0.97812500000000002        0.0000000000000000     
   8.2812499999999997E-002  0.97968750000000004        0.0000000000000000     
   8.4375000000000006E-002  0.99062499999999998        0.0000000000000000     
   7.3437500000000003E-002  0.98906249999999996        0.0000000000000000     
  0.10937500000000000       0.96875000000000000        0.0000000000000000     
  0.12500000000000000       0.96875000000000000        0.0000000000000000     
  0.12500000000000000       0.98437500000000000        0.0000000000000000     
  0.10312499999999999       0.97812500000000002        0.0000000000000000     
  0.11406250000000000       0.97968750000000004        0.0000000000000000     
  0.11562500000000001       0.99062499999999998        0.0000000000000000     
  0.10468750000000000       0.98906249999999996        0.0000000000000000     
   7.8125000000000000E-002  0.93750000000000000        0.0000000000000000     
   9.3750000000000000E-002  0.93750000000000000        0.0000000000000000     
   9.3750000000000000E-002  0.95312500000000000        0.0000000000000000     
   7.1874999999999994E-002  0.94687500000000002        0.0000000000000000     
   8.2812499999999997E-002  0.94843750000000004        0.0000000000000000     
   8.4375000000000006E-002  0.95937499999999998        0.0000000000000000     
   7.3437500000000003E-002  0.95781249999999996        0.0000000000000000     
  0.10937500000000000       0.93750000000000000        0.0000000000000000     
  0.12500000000000000       0.93750000000000000        0.0000000000000000     
  0.12500000000000000       0.95312500000000000        0.0000000000000000     
  0.10312499999999999       0.94687500000000002        0.0000000000000000     
  0.11406250000000000       0.94843750000000004        0.0000000000000000     
  0.11562500000000001       0.95937499999999998        0.0000000000000000     
  0.10468750000000000       0.95781249999999996        0.0000000000000000     
   1.5625000000000000E-002  0.90625000000000000        0.0000000000000000     
   3.1250000000000000E-002  0.90625000000000000        0.0000000000000000     
   3.1250000000000000E-002  0.92187500000000000        0.0000000000000000     
   9.3749999999999997E-003  0.91562500000000002        0.0000000000000000     
   2.0312500000000001E-002  0.91718750000000004        0.0000000000000000     
   2.1874999999999999E-002  0.92812499999999998        0.0000000000000000     
   1.0937499999999999E-002  0.92656249999999996        0.0000000000000000     
   4.6875000000000000E-002  0.90625000000000000        0.0000000000000000     
   6.2500000000000000E-002  0.90625000000000000        0.0000000000000000     
   6.2500000000000000E-002  0.92187500000000000        0.0000000000000000     
   4.0625000000000001E-002  0.91562500000000002        0.0000000000000000     
   5.1562499999999997E-002  0.91718750000000004        0.0000000000000000     
   5.3124999999999999E-002  0.92812499999999998        0.0000000000000000     
   4.2187500000000003E-002  0.92656249999999996        0.0000000000000000     
   1.5625000000000000E-002  0.87500000000000000        0.0000000000000000     
   3.1250000000000000E-002  0.87500000000000000        0.0000000000000000     
   3.1250000000000000E-002  0.89062500000000000        0.0000000000000000     
   9.3749999999999997E-003  0.88437500000000002        0.0000000000000000     
   2.0312500000000001E-002  0.88593750000000004        0.0000000000000000     
   2.1874999999999999E-002  0.89687499999999998        0.0000000000000000     
   1.0937499999999999E-002  0.89531249999999996        0.0000000000000000     
   4.6875000000000000E-002  0.87500000000000000        0.0000000000000000     
   6.2500000000000000E-002  0.87500000000000000        0.0000000000000000     
   6.2500000000000000E-002  0.89062500000000000        0.0000000000000000     
   4.0625000000000001E-002  0.88437500000000002        0.0000000000000000     
   5.1562499999999997E-002  0.88593750000000004        0.0000000000000000     
   5.3124999999999999E-002  0.89687499999999998        0.0000000000000000     
   4.2187500000000003E-002  0.89531249999999996        0.0000000000000000     
   7.8125000000000000E-002  0.90625000000000000        0.0000000000000000     
   9.3750000000000000E-002  0.90625000000000000        0.0000000000000000     
   9.3750000000000000E-002  0.92187500000000000        0.0000000000000000     
   7.1874999999999994E-002  0.91562500000000002        0.0000000000000000     
   8.2812499999999997E-002  0.91718750000000004        0.0000000000000000     
   8.4375000000000006E-002  0.92812499999999998        0.0000000000000000     
   7.3437500000000003E-002  0.92656249999999996        0.0000000000000000     
  0.10937500000000000       0.90625000000000000        0.0000000000000000     
  0.12500000000000000       0.90625000000000000        0.0000000000000000     
  0.12500000000000000       0.92187500000000000        0.0000000000000000     
  0.10312499999999999       0.91562500000000002        0.0000000000000000     
  0.11406250000000000       0.91718750000000004        0.0000000000000000     
  0.11562500000000001       0.92812499999999998        0.0000000000000000     
  0.10468750000000000       0.92656249999999996        0.0000000000000000     
   7.8125000000000000E-002  0.87500000000000000        0.0000000000000000     
   9.3750000000000000E-002  0.87500000000000000        0.0000000000000000     
   9.3750000000000000E-002  0.89062500000000000        0.0000000000000000     
   7.1874999999999994E-002  0.88437500000000002        0.0000000000000000     
   8.2812499999999997E-002  0.88593750000000004        0.0000000000000000     
   8.4375000000000006E-002  0.89687499999999998        0.0000000000000000     
   7.3437500000000003E-002  0.89531249999999996        0.0000000000000000     
  0.10937500000000000       0.87500000000000000        0.0000000000000000     
  0.12500000000000000       0.87500000000000000        0.0000000000000000     
  0.12500000000000000       0.89062500000000000        0.0000000000000000     
  0.10312499999999999       0.88437500000000002        0.0000000000000000     
  0.11406250000000000       0.88593750000000004        0.0000000000000000     
  0.11562500000000001       0.89687499999999998        0.0000000000000000     
  0.10468750000000000       0.89531249999999996        0.0000000000000000     
  0.14062500000000000       0.96875000000000000        0.0000000000000000     
  0.15625000000000000       0.96875000000000000        0.0000000000000000     
  0.15625000000000000       0.98437500000000000        0.0000000000000000     
  0.13437499999999999       0.97812500000000002        0.0000000000000000     
  0.14531250000000001       0.97968750000000004        0.0000000000000000     
  0.14687500000000001       0.99062499999999998        0.0000000000000000     
  0.13593749999999999       0.98906249999999996        0.0000000000000000     
  0.17187500000000000       0.96875000000000000        0.0000000000000000     
  0.18750000000000000       0.96875000000000000        0.0000000000000000     
  0.18750000000000000       0.98437500000000000        0.0000000000000000     
  0.16562499999999999       0.97812500000000002        0.0000000000000000     
  0.17656250000000001       0.97968750000000004        0.0000000000000000     
[...]
 CELL_DATA       14336
 SCALARS Tumor_cells float
 LOOKUP_TABLE default
    0.28086489317805843346E-01
    0.28086489090389611667E-01
    0.28086490855013881290E-01
    0.28086490855013270668E-01
    0.28086489090389805956E-01
    0.28086489317803747801E-01
    0.28086487917804773412E-01
    0.28086487090752006862E-01
    0.28086486197615306848E-01
    0.28086486197610713300E-01
    0.28086487090754778950E-01
    0.28086487917804700554E-01
    0.28086487788302191143E-01
    0.28086487788301285617E-01
    0.28086495115440972270E-01
    0.28086496660929431701E-01
    0.28086500857093767841E-01
    0.28086502019374615796E-01
    0.28086498872961385143E-01
    0.28086500381708803809E-01
    0.28086497083182383055E-01
    0.28086494340779581680E-01
    0.28086491447322090714E-01
    0.28086490409750423242E-01
    0.28086492213891482012E-01
    0.28086491990629725707E-01
    0.28086494815938656960E-01
    0.28086495437155856170E-01
    0.28086500381715076569E-01
    0.28086498872966103590E-01
    0.28086502019379663841E-01
    0.28086500857097396883E-01
    0.28086496660932269709E-01
    0.28086495115441801468E-01
    0.28086491990631120425E-01
    0.28086492213892984282E-01
    0.28086490409752948999E-01
    0.28086491447324047482E-01
    0.28086494340783578483E-01
    0.28086497083187302731E-01
    0.28086495437159582356E-01
    0.28086494815941574765E-01
    0.28086508169790049688E-01
    0.28086508845423099195E-01
    0.28086515410776616980E-01
    0.28086515410775697577E-01
    0.28086508845421551822E-01
    0.28086508169786285338E-01
    0.28086502351528451482E-01
    0.28086500693425983655E-01
    0.28086496368814144881E-01
    0.28086496368814484886E-01
    0.28086500693427478986E-01
    0.28086502351531556637E-01
    0.28086504261886316436E-01
    0.28086504261885837652E-01
    0.28086510628743482920E-01
    0.28086514813029424958E-01
    0.28086523009108788768E-01
    0.28086526064746521192E-01
    0.28086520642453288721E-01
    0.28086524314499865251E-01
    0.28086517837634428912E-01
    0.28086511828215296460E-01
    0.28086505616024579762E-01
    0.28086502990326021878E-01
    0.28086506304474821022E-01
    0.28086504710322871686E-01
    0.28086511952570804990E-01
    0.28086513605106392527E-01
    0.28086541705111021244E-01
    0.28086550151048245150E-01
    0.28086564652553911575E-01
    0.28086570552715871274E-01
    0.28086561398749310819E-01
    0.28086568195044625540E-01
    0.28086556729532641263E-01
    0.28086545828910704919E-01
    0.28086534499684640692E-01
    0.28086529353236779072E-01
    0.28086535170550354368E-01
    0.28086531324520807446E-01
    0.28086545607339759301E-01
    0.28086548814336059765E-01
    0.28086528523682003505E-01
    0.28086531794691071279E-01
    0.28086543321083186353E-01
    0.28086544860431262444E-01
    0.28086534613341370553E-01
    0.28086535203965406343E-01
    0.28086525097590776812E-01
    0.28086520634766614507E-01
    0.28086512370123523086E-01
    0.28086511125307585257E-01
    0.28086518044415843820E-01
    0.28086518818414268200E-01
    0.28086525152718255782E-01
    0.28086525943571933467E-01
    0.28086567107119264630E-01
    0.28086574644767492437E-01
    0.28086594509452941087E-01
    0.28086598626829155367E-01
    0.28086582207462670868E-01
    0.28086584837427139294E-01
    0.28086567760997712545E-01
    0.28086558768184045204E-01
    0.28086544174050105671E-01
    0.28086540868713219532E-01
    0.28086551838992040303E-01
    0.28086551217465175606E-01
    0.28086564682558372297E-01
    0.28086566801905771262E-01
    0.28086524314514114270E-01
    0.28086520642465667708E-01
    0.28086526064759448351E-01
    0.28086523009119884059E-01
    0.28086514813038664096E-01
    0.28086510628750262220E-01
    0.28086504710328964035E-01
    0.28086506304482342783E-01
    0.28086502990333293839E-01
    0.28086505616032823168E-01
    0.28086511828225652759E-01
    0.28086517837646873819E-01
    0.28086513605116731479E-01
    0.28086511952580259233E-01
    0.28086535203977174707E-01
    0.28086534613350502138E-01
    0.28086544860440078308E-01
    0.28086543321089698505E-01
    0.28086531794696060343E-01
    0.28086528523684043540E-01
    0.28086518818416179866E-01
    0.28086518044420097362E-01
    0.28086511125312341869E-01
    0.28086512370129827071E-01
    0.28086520634774608113E-01
    0.28086525097601382911E-01
    0.28086525943579111753E-01
    0.28086525152724261395E-01
    0.28086568195070136383E-01
    0.28086561398772469378E-01
    0.28086570552739900664E-01
    0.28086564652575651130E-01
    0.28086550151067275066E-01
    0.28086541705126897434E-01
    0.28086531324535205650E-01
    0.28086535170566868935E-01
    0.28086529353252502605E-01
    0.28086534499701984458E-01
    0.28086545828930897101E-01
    0.28086556729555744311E-01
    0.28086548814356369907E-01
    0.28086545607358917587E-01
    0.28086584837450166013E-01
    0.28086582207482575085E-01
    0.28086598626849101218E-01
    0.28086594509470114850E-01
    0.28086574644782286159E-01
    0.28086567107130359922E-01
    0.28086551217475445169E-01
    0.28086551839005220732E-01
    0.28086540868726465880E-01
    0.28086544174065475321E-01
    0.28086558768201871222E-01
    0.28086567761018969847E-01
    0.28086566801922917269E-01
    0.28086564682574085422E-01
    0.28086563590130536605E-01
    0.28086566130271800601E-01
    0.28086583234999230180E-01
    0.28086583234997845870E-01
    0.28086566130269240149E-01
    0.28086563590124558748E-01
    0.28086548003385548161E-01
    0.28086544390921279468E-01
    0.28086532433830014438E-01
    0.28086532433831065680E-01
    0.28086544390923610937E-01
    0.28086548003391068051E-01
    0.28086554268941774787E-01
    0.28086554268941056611E-01
    0.28086616451864318544E-01
    0.28086623991801951128E-01
    0.28086652814060444200E-01
    0.28086655508056352498E-01
    0.28086628681250957323E-01
    0.28086627266518896656E-01
    0.28086601430817162428E-01
    0.28086593078906176707E-01
    0.28086572645697947120E-01
    0.28086570820064819809E-01
    0.28086589053216245992E-01
    0.28086591807935483434E-01
    0.28086606531213729326E-01
    0.28086607806878102073E-01
    0.28086627266536202258E-01
    0.28086628681264332041E-01
    0.28086655508068925774E-01
    0.28086652814069742318E-01
    0.28086623991809212680E-01
    0.28086616451867378597E-01
    0.28086591807938335319E-01
    0.28086589053222824064E-01
    0.28086570820072296467E-01
    0.28086572645708053619E-01
    0.28086593078918389160E-01
    0.28086601430833361276E-01
    0.28086607806888808786E-01
    0.28086606531222715194E-01
    0.28086704603905277011E-01
    0.28086711754208622954E-01
    0.28086755230447454229E-01
    0.28086755230445573789E-01
    0.28086711754205059832E-01
    0.28086704603896991972E-01
    0.28086665109977745902E-01
    0.28086656609079743013E-01
    0.28086626488533213836E-01
    0.28086626488534785495E-01
    0.28086656609083063274E-01
    0.28086665109985593791E-01
    0.28086681804481754277E-01
    0.28086681804480741198E-01
    0.28086597566381862889E-01
    0.28086612772287217199E-01
    0.28086637929658431201E-01
    0.28086648504715344687E-01
    0.28086632850930166871E-01
    0.28086644861806446538E-01
    0.28086625047783392306E-01
    0.28086605970492384970E-01
    0.28086586224623660141E-01
    0.28086577095000012788E-01
    0.28086587026520733190E-01
    0.28086579858323024173E-01
    0.28086605246503748567E-01
    0.28086610959107992380E-01
    0.28086695506995364158E-01
    0.28086722112550862457E-01
    0.28086765934933553834E-01
    0.28086784199161295150E-01
    0.28086756838639634348E-01
    0.28086777291627534892E-01
    0.28086743158069256421E-01
    0.28086710289909260635E-01
    0.28086676111155523677E-01
    0.28086660295309862773E-01
    0.28086677421746052141E-01
    0.28086664775582872999E-01
    0.28086709064574878064E-01
    0.28086718965523616021E-01
    0.28086636667821487240E-01
    0.28086651457519314773E-01
    0.28086685980494241477E-01
    0.28086694467636879463E-01
    0.28086666831283729068E-01
    0.28086672510639801303E-01
    0.28086643031791064251E-01
    0.28086626703328856913E-01
    0.28086601413880519368E-01
    0.28086594909917782931E-01
    0.28086612875651364302E-01
    0.28086610014007720032E-01
    0.28086635487772983882E-01
    0.28086639761207898847E-01
    0.28086760629307826881E-01
    0.28086787967408984729E-01
    0.28086848667316394179E-01
    0.28086864318033189641E-01
    0.28086816099604797192E-01
    0.28086826252850728702E-01
    0.28086774846200045913E-01
    0.28086746097525830401E-01
    0.28086702031617553910E-01
    0.28086690245553491696E-01
    0.28086720954128757688E-01
    0.28086714686340698288E-01
    0.28086760709544873055E-01
    0.28086768506096836118E-01
    0.28086865705926795239E-01
    0.28086910963674657088E-01
    0.28086986410005464893E-01
    0.28087016438836025917E-01
    0.28086968694754493869E-01
    0.28087002114358328164E-01
    0.28086944354146863717E-01
    0.28086888936632605634E-01
    0.28086830762745179646E-01
    0.28086803803746073632E-01
    0.28086833548868497812E-01
    0.28086812294520591138E-01
    0.28086887720032531479E-01
    0.28086904285249847391E-01
    0.28087156509336505539E-01
    0.28087230162746740919E-01
    0.28087357880985205222E-01
    0.28087404217757190594E-01
    0.28087321408970016001E-01
    0.28087373003083785511E-01
    0.28087278103781393446E-01
    0.28087187629307879683E-01
    0.28087090955211547333E-01
    0.28087046504309438888E-01
    0.28087097746318290259E-01
    0.28087064007248259412E-01
    0.28087188332980440875E-01
    0.28087214858878772894E-01
    0.28086981277333666895E-01
    0.28087029676552469765E-01
    0.28087137375366319492E-01
    0.28087163983142530987E-01
    0.28087077451012926882E-01
    0.28087092716551690513E-01
    0.28087002768391981788E-01
    0.28086954116174213392E-01
    0.28086877359984496749E-01
    0.28086857188383655692E-01
    0.28086911194834768973E-01
    0.28086900117145974926E-01
    0.28086981025380441251E-01
    0.28086994307874313392E-01
    0.28087371830877064932E-01
    0.28087453502867447408E-01
    0.28087643848840316424E-01
    0.28087684544193865233E-01
    0.28087527615669283937E-01
    0.28087545202562753249E-01
    0.28087388825515900020E-01
    0.28087310568503241759E-01
    0.28087178287290685136E-01
    0.28087145866777216835E-01
    0.28087242649384953908E-01
    0.28087226750260776975E-01
    0.28087363766234094142E-01
    0.28087384566008299219E-01
    0.28086711073163246610E-01
    0.28086727446605251612E-01
    0.28086776800881174676E-01
    0.28086784405951508575E-01
    0.28086740403999454346E-01
    0.28086741017567615902E-01
    0.28086696946031802780E-01
    0.28086680316448047606E-01
    0.28086645119416133592E-01
    0.28086640221097469716E-01
    0.28086669453834024052E-01
    0.28086670810483320426E-01
    0.28086700150143938115E-01
    0.28086703631148145222E-01
    0.28086880101060075071E-01
    0.28086912900133622489E-01
    0.28086999962111978274E-01
    0.28087016766148994312E-01
    0.28086940991882334423E-01
    0.28086944709762754618E-01
    0.28086867359258475135E-01
    0.28086836314969599454E-01
    0.28086774462550024439E-01
    0.28086764179637502964E-01
    0.28086813218731538494E-01
    0.28086811808302681454E-01
    0.28086867905069402840E-01
    0.28086875396939350175E-01
    0.28086838800417790463E-01
    0.28086856950846499081E-01
    0.28086929033496747105E-01
    0.28086934991434921172E-01
    0.28086866711463480406E-01
    0.28086861179480095141E-01
    0.28086795567241047006E-01
    0.28086776752260785711E-01
    0.28086725869557814528E-01
    0.28086722441099949699E-01
    0.28086768916700526055E-01
    0.28086776724511271219E-01
    0.28086812362324711095E-01
    0.28086814936408157489E-01
    0.28087074165268562792E-01
    0.28087114599792888797E-01
    0.28087238986041675876E-01
    0.28087258229908998453E-01
    0.28087145348691226060E-01
    0.28087144283870740802E-01
    0.28087030466209108454E-01
    0.28086991852872313091E-01
    0.28086903248431473179E-01
    0.28086893088389661838E-01
    0.28086968016270984910E-01
    0.28086973002006656447E-01
    0.28087044815130423475E-01
    0.28087052803763758180E-01
    0.28087186891313061649E-01
    0.28087249654535319937E-01
    0.28087406965162941413E-01
    0.28087439368803417128E-01
    0.28087303167805090232E-01
    0.28087309821954134503E-01
    0.28087171204416928882E-01
    0.28087115721618278325E-01
    0.28087005511906945610E-01
    0.28086986255145773850E-01
    0.28087072144800790535E-01
    0.28087066439556183928E-01
    0.28087170651046333009E-01
    0.28087184863051943562E-01
    0.28087748885101185975E-01
    0.28087863490586780640E-01
    0.28088151415903962749E-01
    0.28088207003841132725E-01
    0.28087954841576327769E-01
    0.28087958419610144917E-01
    0.28087707850196250159E-01
    0.28087614004579534999E-01
    0.28087416721438780709E-01
    0.28087384071955195236E-01
    0.28087539923523870133E-01
    0.28087529907743984114E-01
    0.28087717850660665064E-01
    0.28087742075283816251E-01
    0.28087501748282957259E-01
    0.28087587279293144832E-01
    0.28087812244317066773E-01
    0.28087857859638892116E-01
    0.28087659374481484947E-01
    0.28087665707069220389E-01
    0.28087460327629057422E-01
    0.28087385236197467270E-01
    0.28087225688855112227E-01
    0.28087202659168607199E-01
    0.28087330285176122929E-01
    0.28087327837279924686E-01
    0.28087470745173988285E-01
    0.28087489349550492923E-01
    0.28088303213743347903E-01
    0.28088474673067655857E-01
    0.28088895056407013617E-01
    0.28088987498241593105E-01
    0.28088619388950464284E-01
    0.28088631439861479894E-01
    0.28088251082353483251E-01
    0.28088112359259433115E-01
    0.28087818897197480011E-01
    0.28087773728935946232E-01
    0.28088003508645670997E-01
    0.28087988350763228723E-01
    0.28088265173740488423E-01
    0.28088302320169528797E-01
    0.28086644861846383342E-01
    0.28086632850967248320E-01
    0.28086648504753636973E-01
    0.28086637929693989563E-01
    0.28086612772319226317E-01
    0.28086597566409968879E-01
    0.28086579858348996452E-01
    0.28086587026549345719E-01
    0.28086577095027476930E-01
    0.28086586224653240645E-01
    0.28086605970525622272E-01
    0.28086625047820328038E-01
    0.28086610959141441318E-01
    0.28086605246535775032E-01
    0.28086672510677281739E-01
    0.28086666831317583931E-01
    0.28086694467671154130E-01
    0.28086685980525293027E-01
    0.28086651457547118921E-01
    0.28086636667844857435E-01
    0.28086610014029612242E-01
    0.28086612875676666978E-01
    0.28086594909942769888E-01
    0.28086601413908132696E-01
    0.28086626703359741930E-01
    0.28086643031826143829E-01
    0.28086639761238214874E-01
    0.28086635487801589472E-01
    0.28086777291685079139E-01
    0.28086756838693837518E-01
    0.28086784199217073449E-01
    0.28086765934986109017E-01
    0.28086722112599039197E-01
    0.28086695507038881431E-01
    0.28086664775623586959E-01
    0.28086677421789947584E-01
    0.28086660295352238598E-01
    0.28086676111200494649E-01
    0.28086710289958703723E-01
    0.28086743158123182035E-01
    0.28086718965573402584E-01
    0.28086709064622961129E-01
    0.28086826252905879031E-01
    0.28086816099655850104E-01
    0.28086864318085057873E-01
    0.28086848667364588267E-01
    0.28086787967453070991E-01
    0.28086760629346705503E-01
    0.28086714686377405037E-01
    0.28086720954169402259E-01
    0.28086690245593428500E-01
    0.28086702031660578521E-01
    0.28086746097572962838E-01
    0.28086774846252132720E-01
    0.28086768506143559160E-01
    0.28086760709589618512E-01
    0.28086741017599461956E-01
    0.28086740404026890733E-01
    0.28086784405978535567E-01
    0.28086776800904472012E-01
    0.28086727446625645022E-01
    0.28086711073178664833E-01
    0.28086670810497850470E-01
    0.28086669453852804168E-01
    0.28086640221116745963E-01
    0.28086645119438518464E-01
    0.28086680316473381508E-01
    0.28086696946061896762E-01
    0.28086703631172126039E-01
    0.28086700150165920531E-01
    0.28086861179503066349E-01
    0.28086866711481209280E-01
    0.28086934991451387167E-01
    0.28086929033508949149E-01
    0.28086856950856154552E-01
    0.28086838800421887880E-01
    0.28086776724515122305E-01
    0.28086768916709449473E-01
    0.28086722441110229670E-01
    0.28086725869571744357E-01
    0.28086776752277324565E-01
    0.28086795567262907991E-01
    0.28086814936422517530E-01
    0.28086812362336767424E-01
    0.28086944709812478732E-01
    0.28086940991927173555E-01
    0.28087016766193864670E-01
    0.28086999962152629784E-01
    0.28086912900170474955E-01
    0.28086880101091168255E-01
    0.28086811808332154405E-01
    0.28086813218765757649E-01
    0.28086764179671833142E-01
    0.28086774462587948964E-01
    0.28086836315011350779E-01
    0.28086867359305760228E-01
    0.28086875396979894132E-01
    0.28086867905107663901E-01
    0.28087144283911825993E-01
    0.28087145348726576255E-01
    0.28087258229943543736E-01
    0.28087238986071461078E-01
    0.28087114599819155980E-01
    0.28087074165288480887E-01
    0.28086973002025578811E-01
    0.28086968016295510431E-01
    0.28086893088415141456E-01
    0.28086903248461095317E-01
    0.28086991852905449779E-01
    0.28087030466248372185E-01
    0.28087052803794886058E-01
    0.28087044815158949268E-01
    0.28087002114436650929E-01
    0.28086968694828982895E-01
    0.28087016438912464772E-01
    0.28086986410078233073E-01
    0.28086910963742182934E-01
    0.28086865705988905279E-01
    0.28086812294579242139E-01
    0.28086833548930822957E-01
    0.28086803803806521806E-01
    0.28086830762808694811E-01
    0.28086888936701435993E-01
    0.28086944354220971104E-01
    0.28086904285319132246E-01
    0.28086887720099831811E-01
    0.28087092716627751199E-01
    0.28087077451084463409E-01
    0.28087163983215354679E-01
    0.28087137375435028419E-01
    0.28087029676616168811E-01
    0.28086981277391367268E-01
    0.28086900117200747085E-01
    0.28086911194893988963E-01
    0.28086857188441758520E-01
    0.28086877360046145352E-01
    0.28086954116240840651E-01
    0.28087002768464305880E-01
    0.28086994307940690851E-01
    0.28086981025444584387E-01
    0.28087373003186200116E-01
    0.28087321409068107675E-01
    0.28087404217857693534E-01
    0.28087357881081537886E-01
    0.28087230162836932662E-01
    0.28087156509420483502E-01
    0.28087064007328056692E-01
    0.28087097746402268222E-01
    0.28087046504391161711E-01
    0.28087090955296850625E-01
    0.28087187629399365529E-01
    0.28087278103878975111E-01
    0.28087214858970834669E-01
    0.28087188333070237101E-01
    0.28087545202663183330E-01
    0.28087527615764846384E-01
    0.28087684544291391386E-01
    0.28087643848933269847E-01
    0.28087453502954270318E-01
    0.28087371830957077318E-01
    0.28087226750337000725E-01
    0.28087242649466107741E-01
    0.28087145866856757376E-01
    0.28087178287374243296E-01
    0.28087310568592718796E-01
    0.28087388825611837168E-01
    0.28087384566097800542E-01
    0.28087363766321080116E-01
    0.28087309822025226941E-01
    0.28087303167870870946E-01
    0.28087439368869804995E-01
    0.28087406965224652466E-01
    0.28087249654592173764E-01
    0.28087186891363358221E-01
    0.28087066439604020662E-01
    0.28087072144853873074E-01
    0.28086986255198485157E-01
    0.28087005511963736987E-01
    0.28087115721679833252E-01
    0.28087171204484819020E-01
    0.28087184863112523575E-01
    0.28087170651104356039E-01
    0.28087665707132326159E-01
    0.28087659374538345713E-01
    0.28087857859695596757E-01
    0.28087812244368463160E-01
    0.28087587279339912977E-01
    0.28087501748322449974E-01
    0.28087327837317509205E-01
    0.28087330285219855308E-01
    0.28087202659212783667E-01
    0.28087225688903965509E-01
    0.28087385236250862058E-01
    0.28087460327689481310E-01