# vtk DataFile Version 3.0
LAPLACIEN  2D
ASCII
DATASET UNSTRUCTURED_GRID
 POINTS        7297  float
   1.5625000000000000E-002  0.96875000000000000        0.0000000000000000     
   3.1250000000000000E-002  0.96875000000000000        0.0000000000000000     
   3.1250000000000000E-002  0.98437500000000000        0.0000000000000000     
   9.3749999999999997E-003  0.97812500000000002        0.0000000000000000     
   2.0312500000000001E-002  0.97968750000000004        0.0000000000000000     
   2.1874999999999999E-002  0.99062499999999998        0.0000000000000000     
   1.0937499999999999E-002  0.98906249999999996        0.0000000000000000     
   4.6875000000000000E-002  0.96875000000000000        0.0000000000000000     
   6.2500000000000000E-002  0.96875000000000000        0.0000000000000000     
   6.2500000000000000E-002  0.98437500000000000        0.0000000000000000     
   4.0625000000000001E-002  0.97812500000000002        0.0000000000000000     
   5.1562499999999997E-002  0.97968750000000004        0.0000000000000000     
   5.3124999999999999E-002  0.99062499999999998        0.0000000000000000     
   4.2187500000000003E-002  0.98906249999999996        0.0000000000000000     
   1.5625000000000000E-002  0.93750000000000000        0.0000000000000000     
   3.1250000000000000E-002  0.93750000000000000        0.0000000000000000     
   3.1250000000000000E-002  0.95312500000000000        0.0000000000000000     
   9.3749999999999997E-003  0.94687500000000002        0.0000000000000000     
   2.0312500000000001E-002  0.94843750000000004        0.0000000000000000     
   2.1874999999999999E-002  0.95937499999999998        0.0000000000000000     
   1.0937499999999999E-002  0.95781249999999996        0.0000000000000000     
   4.6875000000000000E-002  0.93750000000000000        0.0000000000000000     
   6.2500000000000000E-002  0.93750000000000000        0.0000000000000000     
   6.2500000000000000E-002  0.95312500000000000        0.0000000000000000     
   4.0625000000000001E-002  0.94687500000000002        0.0000000000000000     
   5.1562499999999997E-002  0.94843750000000004        0.0000000000000000     
   5.3124999999999999E-002  0.95937499999999998        0.0000000000000000     
   4.2187500000000003E-002  0.95781249999999996        0.0000000000000000     
   7.8125000000000000E-002  0.96875000000000000        0.0000000000000000     
   9.3750000000000000E-002  0.96875000000000000        0.0000000000000000     
   9.3750000000000000E-002  0.98437500000000000        0.0000000000000000     
   7.1874999999999994E-002  0.97812500000000002        0.0000000000000000     
   8.2812499999999997E-002  0.97968750000000004        0.0000000000000000     
   8.4375000000000006E-002  0.99062499999999998        0.0000000000000000     
   7.3437500000000003E-002  0.98906249999999996        0.0000000000000000     
  0.10937500000000000       0.96875000000000000        0.0000000000000000     
  0.12500000000000000       0.96875000000000000        0.0000000000000000     
  0.12500000000000000       0.98437500000000000        0.0000000000000000     
  0.10312499999999999       0.97812500000000002        0.0000000000000000     
  0.11406250000000000       0.97968750000000004        0.0000000000000000     
  0.11562500000000001       0.99062499999999998        0.0000000000000000     
  0.10468750000000000       0.98906249999999996        0.0000000000000000     
   7.8125000000000000E-002  0.93750000000000000        0.0000000000000000     
   9.3750000000000000E-002  0.93750000000000000        0.0000000000000000     
   9.3750000000000000E-002  0.95312500000000000        0.0000000000000000     
   7.1874999999999994E-002  0.94687500000000002        0.0000000000000000     
   8.2812499999999997E-002  0.94843750000000004        0.0000000000000000     
   8.4375000000000006E-002  0.95937499999999998        0.0000000000000000     
   7.3437500000000003E-002  0.95781249999999996        0.0000000000000000     
  0.10937500000000000       0.93750000000000000        0.0000000000000000     
  0.12500000000000000       0.93750000000000000        0.0000000000000000     
  0.12500000000000000       0.95312500000000000        0.0000000000000000     
  0.10312499999999999       0.94687500000000002        0.0000000000000000     
  0.11406250000000000       0.94843750000000004        0.0000000000000000     
  0.11562500000000001       0.95937499999999998        0.0000000000000000     
  0.10468750000000000       0.95781249999999996        0.0000000000000000     
   1.5625000000000000E-002  0.90625000000000000        0.0000000000000000     
   3.1250000000000000E-002  0.90625000000000000        0.0000000000000000     
   3.1250000000000000E-002  0.92187500000000000        0.0000000000000000     
   9.3749999999999997E-003  0.91562500000000002        0.0000000000000000     
   2.0312500000000001E-002  0.91718750000000004        0.0000000000000000     
   2.1874999999999999E-002  0.92812499999999998        0.0000000000000000     
   1.0937499999999999E-002  0.92656249999999996        0.0000000000000000     
   4.6875000000000000E-002  0.90625000000000000        0.0000000000000000     
   6.2500000000000000E-002  0.90625000000000000        0.0000000000000000     
   6.2500000000000000E-002  0.92187500000000000        0.0000000000000000     
   4.0625000000000001E-002  0.91562500000000002        0.0000000000000000     
   5.1562499999999997E-002  0.91718750000000004        0.0000000000000000     
   5.3124999999999999E-002  0.92812499999999998        0.0000000000000000     
   4.2187500000000003E-002  0.92656249999999996        0.0000000000000000     
   1.5625000000000000E-002  0.87500000000000000        0.0000000000000000     
   3.1250000000000000E-002  0.87500000000000000        0.0000000000000000     
   3.1250000000000000E-002  0.89062500000000000        0.0000000000000000     
   9.3749999999999997E-003  0.88437500000000002        0.0000000000000000     
   2.0312500000000001E-002  0.88593750000000004        0.0000000000000000     
   2.1874999999999999E-002  0.89687499999999998        0.0000000000000000     
   1.0937499999999999E-002  0.89531249999999996        0.0000000000000000     
   4.6875000000000000E-002  0.87500000000000000        0.0000000000000000     
   6.2500000000000000E-002  0.87500000000000000        0.0000000000000000     
   6.2500000000000000E-002  0.89062500000000000        0.0000000000000000     
   4.0625000000000001E-002  0.88437500000000002        0.0000000000000000     
   5.1562499999999997E-002  0.88593750000000004        0.0000000000000000     
   5.3124999999999999E-002  0.89687499999999998        0.0000000000000000     
   4.2187500000000003E-002  0.89531249999999996        0.0000000000000000     
   7.8125000000000000E-002  0.90625000000000000        0.0000000000000000     
   9.3750000000000000E-002  0.90625000000000000        0.0000000000000000     
   9.3750000000000000E-002  0.92187500000000000        0.0000000000000000     
   7.1874999999999994E-002  0.91562500000000002        0.0000000000000000     
   8.2812499999999997E-002  0.91718750000000004        0.0000000000000000     
   8.4375000000000006E-002  0.92812499999999998        0.0000000000000000     
   7.3437500000000003E-002  0.92656249999999996        0.0000000000000000     
  0.10937500000000000       0.90625000000000000        0.0000000000000000     
  0.12500000000000000       0.90625000000000000        0.0000000000000000     
  0.12500000000000000       0.92187500000000000        0.0000000000000000     
  0.10312499999999999       0.91562500000000002        0.0000000000000000     
  0.11406250000000000       0.91718750000000004        0.0000000000000000     
  0.11562500000000001       0.92812499999999998        0.0000000000000000     
  0.10468750000000000       0.92656249999999996        0.0000000000000000     
   7.8125000000000000E-002  0.87500000000000000        0.0000000000000000     
   9.3750000000000000E-002  0.87500000000000000        0.0000000000000000     
   9.3750000000000000E-002  0.89062500000000000        0.0000000000000000     
   7.1874999999999994E-002  0.88437500000000002        0.0000000000000000     
   8.2812499999999997E-002  0.88593750000000004        0.0000000000000000     
   8.4375000000000006E-002  0.89687499999999998        0.0000000000000000     
   7.3437500000000003E-002  0.89531249999999996        0.0000000000000000     
  0.10937500000000000       0.87500000000000000        0.0000000000000000     
  0.12500000000000000       0.87500000000000000        0.0000000000000000     
  0.12500000000000000       0.89062500000000000        0.0000000000000000     
  0.10312499999999999       0.88437500000000002        0.0000000000000000     
  0.11406250000000000       0.88593750000000004        0.0000000000000000     
  0.11562500000000001       0.89687499999999998        0.0000000000000000     
  0.10468750000000000       0.89531249999999996        0.0000000000000000     
  0.14062500000000000       0.96875000000000000        0.0000000000000000     
  0.15625000000000000       0.96875000000000000        0.0000000000000000     
  0.15625000000000000       0.98437500000000000        0.0000000000000000     
  0.13437499999999999       0.97812500000000002        0.0000000000000000     
  0.14531250000000001       0.97968750000000004        0.0000000000000000     
  0.14687500000000001       0.99062499999999998        0.0000000000000000     
  0.13593749999999999       0.98906249999999996        0.0000000000000000     
  0.17187500000000000       0.96875000000000000        0.0000000000000000     
  0.18750000000000000       0.96875000000000000        0.0000000000000000     
  0.18750000000000000       0.98437500000000000        0.0000000000000000     
  0.16562499999999999       0.97812500000000002        0.0000000000000000     
  0.17656250000000001       0.97968750000000004        0.0000000000000000     
  0.17812500000000001       0.99062499999999998        0.0000000000000000     
[...]
 CELL_DATA       14336
 SCALARS Tumor_cells float
 LOOKUP_TABLE default
    0.11395419547454507456E-01
    0.11394678542886591682E-01
    0.11399163465287850266E-01
    0.11399163465279575636E-01
    0.11394678542871024274E-01
    0.11395419547418040099E-01
    0.11391691114669696278E-01
    0.11389439029955317206E-01
    0.11387019720929883460E-01
    0.11387019720932414421E-01
    0.11389439029971557688E-01
    0.11391691114710748509E-01
    0.11391275281807810779E-01
    0.11391275281802908451E-01
    0.11409395500162254622E-01
    0.11413093327823763817E-01
    0.11422310000755251519E-01
    0.11425015002007063089E-01
    0.11418518208270509243E-01
    0.11422156421204832447E-01
    0.11414819881454126363E-01
    0.11408163508412770895E-01
    0.11400986377636090907E-01
    0.11398208469902963713E-01
    0.11402681670591691132E-01
    0.11401954091878958170E-01
    0.11409043695447582123E-01
    0.11410646229652045627E-01
    0.11422156421311075586E-01
    0.11418518208349309057E-01
    0.11425015002077577864E-01
    0.11422310000808318445E-01
    0.11413093327865699023E-01
    0.11409395500179638286E-01
    0.11401954091895724272E-01
    0.11402681670629917499E-01
    0.11398208469945617094E-01
    0.11400986377689817028E-01
    0.11408163508485539075E-01
    0.11414819881558966111E-01
    0.11410646229715224256E-01
    0.11409043695500236185E-01
    0.11436165779290208624E-01
    0.11436972134995197423E-01
    0.11448214650473154466E-01
    0.11448214650463934411E-01
    0.11436972134974384210E-01
    0.11436165779240363080E-01
    0.11425105430496856548E-01
    0.11421428442054074731E-01
    0.11412188190217690750E-01
    0.11412188190226628046E-01
    0.11421428442072780254E-01
    0.11425105430542148444E-01
    0.11428445404166508170E-01
    0.11428445404160773174E-01
    0.11441489356512764622E-01
    0.11449383432037956235E-01
    0.11463046142566071101E-01
    0.11468261223627110312E-01
    0.11459887242796047355E-01
    0.11466211848192532294E-01
    0.11455524911875319960E-01
    0.11444736365635848480E-01
    0.11433058909289112171E-01
    0.11427627595157750437E-01
    0.11434063461345960952E-01
    0.11430490886569517200E-01
    0.11444720673411946238E-01
    0.11447832186272903152E-01
    0.11490478305088914351E-01
    0.11502166207545794219E-01
    0.11519819782928630500E-01
    0.11527254262010228417E-01
    0.11517209247829944541E-01
    0.11525906864985429462E-01
    0.11512254985807194099E-01
    0.11497764073784675146E-01
    0.11482015452920279336E-01
    0.11474156380805492286E-01
    0.11482388957281900940E-01
    0.11476214541017120199E-01
    0.11496946946137200779E-01
    0.11501416313829938148E-01
    0.11468335780565584031E-01
    0.11473338964383321056E-01
    0.11489043961058568663E-01
    0.11491549417238044670E-01
    0.11478408793043820557E-01
    0.11480276060057166901E-01
    0.11465849951472451354E-01
    0.11458044623175706045E-01
    0.11444291219844651697E-01
    0.11441643384578533554E-01
    0.11452862324894194299E-01
    0.11453700879943464266E-01
    0.11464183737246617240E-01
    0.11465690090291261183E-01
    0.11517440731640658097E-01
    0.11526233318400214492E-01
    0.11545947874519900053E-01
    0.11550663866587106837E-01
    0.11535824866147095097E-01
    0.11540045940538101038E-01
    0.11522635299468770784E-01
    0.11511135116523038210E-01
    0.11493294214964065031E-01
    0.11488229120680003292E-01
    0.11501267803951687255E-01
    0.11499518178194485449E-01
    0.11516499769810284448E-01
    0.11519358875052367747E-01
    0.11466211848405656951E-01
    0.11459887242979579364E-01
    0.11468261223812463781E-01
    0.11463046142723665524E-01
    0.11449383432170012059E-01
    0.11441489356606687755E-01
    0.11430490886648650081E-01
    0.11434063461459951366E-01
    0.11427627595274950090E-01
    0.11433058909422734450E-01
    0.11444736365798744218E-01
    0.11455524912078447405E-01
    0.11447832186428332640E-01
    0.11444720673552628842E-01
    0.11480276060217972298E-01
    0.11478408793170802316E-01
    0.11491549417362547508E-01
    0.11489043961153959372E-01
    0.11473338964452413358E-01
    0.11468335780591922338E-01
    0.11453700879960336187E-01
    0.11452862324949708919E-01
    0.11441643384641739939E-01
    0.11444291219931681039E-01
    0.11458044623286138541E-01
    0.11465849951621153585E-01
    0.11465690090390300016E-01
    0.11464183737329006196E-01
    0.11525906865401594828E-01
    0.11517209248201647209E-01
    0.11527254262395109780E-01
    0.11519819783272483918E-01
    0.11502166207840624351E-01
    0.11490478305325390121E-01
    0.11476214541222622481E-01
    0.11482388957531985615E-01
    0.11474156381044601366E-01
    0.11482015453190788645E-01
    0.11497764074109240173E-01
    0.11512254986194016618E-01
    0.11501416314151271386E-01
    0.11496946946436076287E-01
    0.11540045940903832788E-01
    0.11535824866464206018E-01
    0.11550663866911815847E-01
    0.11545947874801773536E-01
    0.11526233318633153160E-01
    0.11517440731808586268E-01
    0.11499518178338729441E-01
    0.11501267804146371801E-01
    0.11488229120869717856E-01
    0.11493294215192205454E-01
    0.11511135116797983208E-01
    0.11522635299804129261E-01
    0.11519358875319496080E-01
    0.11516499770053255022E-01
    0.11512571224055998670E-01
    0.11514908475769886076E-01
    0.11532534542151808357E-01
    0.11532534542132173022E-01
    0.11514908475733429127E-01
    0.11512571223971895806E-01
    0.11494548303071266265E-01
    0.11489580199611024863E-01
    0.11473830063336652729E-01
    0.11473830063350804603E-01
    0.11489580199646277914E-01
    0.11494548303157247834E-01
    0.11501545867556781794E-01
    0.11501545867546290186E-01
    0.11561867553662929717E-01
    0.11567996656663383920E-01
    0.11589656704389845326E-01
    0.11591862868371355377E-01
    0.11572509545234943920E-01
    0.11572511707016706201E-01
    0.11551477534739743036E-01
    0.11542818363935784115E-01
    0.11522960623475545991E-01
    0.11520547931962530491E-01
    0.11538142321442885693E-01
    0.11540530487548626704E-01
    0.11554034212164724510E-01
    0.11555384347963245165E-01
    0.11572511707304576623E-01
    0.11572509545460348684E-01
    0.11591862868588884497E-01
    0.11589656704554184355E-01
    0.11567996656788927592E-01
    0.11561867553719689869E-01
    0.11540530487589012801E-01
    0.11538142321545716631E-01
    0.11520547932073842493E-01
    0.11522960623630538329E-01
    0.11542818364134834960E-01
    0.11551477535011430223E-01
    0.11555384348140506148E-01
    0.11554034212313541233E-01
    0.11622068778559356897E-01
    0.11625867311270382531E-01
    0.11649283854691031351E-01
    0.11649283854658182627E-01
    0.11625867311207897792E-01
    0.11622068778414292381E-01
    0.11597690580044174927E-01
    0.11591608273454212172E-01
    0.11569880614254976145E-01
    0.11569880614283933884E-01
    0.11591608273514799124E-01
    0.11597690580187653905E-01
    0.11608121654606843448E-01
    0.11608121654588927224E-01
    0.11554495858551618384E-01
    0.11569430599227775378E-01
    0.11590468267912486938E-01
    0.11599746998768253187E-01
    0.11588300374509660426E-01
    0.11598967378430897687E-01
    0.11582848669980492715E-01
    0.11565225981627019411E-01
    0.11545990267929396450E-01
    0.11536021604625244438E-01
    0.11545816567343263059E-01
    0.11537382771967964051E-01
    0.11563732433090983392E-01
    0.11569356826976599437E-01
    0.11631104720976491798E-01
    0.11648616037730603889E-01
    0.11672303224439260771E-01
    0.11682980950189082725E-01
    0.11670454623402033364E-01
    0.11682612458595470831E-01
    0.11664618296635401867E-01
    0.11644553238198308495E-01
    0.11622546693648141622E-01
    0.11610866743813456209E-01
    0.11621930694103187187E-01
    0.11611665938494993705E-01
    0.11642534276731409879E-01
    0.11649066987015007507E-01
    0.11581611287873924687E-01
    0.11593641695300698977E-01
    0.11616761045806417441E-01
    0.11623308511961033193E-01
    0.11607034580681600475E-01
    0.11613199759231576311E-01
    0.11593298634047729395E-01
    0.11578677801918676321E-01
    0.11557330335591827972E-01
    0.11550170755398934605E-01
    0.11564801385413664078E-01
    0.11560812543175136985E-01
    0.11583401445436083965E-01
    0.11587408143156559953E-01
    0.11658407371652324339E-01
    0.11673001250781989482E-01
    0.11698792897201236440E-01
    0.11706723108343785808E-01
    0.11689330439687804775E-01
    0.11696955680513832984E-01
    0.11675151461105549508E-01
    0.11658102606075797236E-01
    0.11633961903752492936E-01
    0.11625110305311209605E-01
    0.11641045558025813964E-01
    0.11635251965367082380E-01
    0.11662344011250149953E-01
    0.11667249469974782378E-01
    0.11717391584960065373E-01
    0.11736711586769988866E-01
    0.11762214493554320680E-01
    0.11773792667645907248E-01
    0.11760548226178909811E-01
    0.11773661615435068728E-01
    0.11754453806220281284E-01
    0.11732728045418597262E-01
    0.11708771513085263274E-01
    0.11695843367603434709E-01
    0.11707835414299738383E-01
    0.11696237888800736088E-01
    0.11730355150568284872E-01
    0.11737514975230692316E-01
    0.11810080368998103484E-01
    0.11830372630611728224E-01
    0.11856791276754718306E-01
    0.11868736677104826591E-01
    0.11855160363381137684E-01
    0.11868657323975038975E-01
    0.11848942497491724360E-01
    0.11826399972725930645E-01
    0.11801387019845585233E-01
    0.11787720889630865298E-01
    0.11800266189303467226E-01
    0.11787885100343080749E-01
    0.11823859066708264712E-01
    0.11831340990100492130E-01
    0.11744914867404197475E-01
    0.11761301108100065405E-01
    0.11788934695639107994E-01
    0.11797746225986744523E-01
    0.11779589671372148879E-01
    0.11788134313819578422E-01
    0.11765083902362628160E-01
    0.11746391736395699751E-01
    0.11720275365073577756E-01
    0.11710198630426764399E-01
    0.11727103639781267033E-01
    0.11720008904267338601E-01
    0.11750330066382539893E-01
    0.11755851223306494277E-01
    0.11837862316730410339E-01
    0.11855202520028538041E-01
    0.11883784242276977661E-01
    0.11892941168884656883E-01
    0.11874397609088257338E-01
    0.11883283515313050605E-01
    0.11859686194695268080E-01
    0.11840197834347612055E-01
    0.11812994962609280752E-01
    0.11802206836220959646E-01
    0.11819714036561061732E-01
    0.11811872665104127325E-01
    0.11844027958231397035E-01
    0.11849857987919164976E-01
    0.11626290321569303365E-01
    0.11635654753560577268E-01
    0.11660745088043699205E-01
    0.11664774382279141651E-01
    0.11643952051437946732E-01
    0.11645877956971301473E-01
    0.11622322663030188947E-01
    0.11610551163752969722E-01
    0.11587165010510496951E-01
    0.11582666606325777922E-01
    0.11601883273416756584E-01
    0.11602047032189961515E-01
    0.11621158643731034979E-01
    0.11623651344947432199E-01
    0.11703394310134238379E-01
    0.11715315708003449721E-01
    0.11743105547831981378E-01
    0.11748506188575612297E-01
    0.11726525751056145891E-01
    0.11729886135697161972E-01
    0.11704392839282725877E-01
    0.11690205587658592315E-01
    0.11664002441903941962E-01
    0.11657824548843882459E-01
    0.11678381477952547163E-01
    0.11676760982067517156E-01
    0.11700370716454432107E-01
    0.11703755130282270797E-01
    0.11686834147518721308E-01
    0.11693871814111604299E-01
    0.11720747966216103764E-01
    0.11722567284788177125E-01
    0.11697648317538032053E-01
    0.11695758941052283517E-01
    0.11668826738395039755E-01
    0.11659633919005204378E-01
    0.11634351331085819592E-01
    0.11632269848273884064E-01
    0.11655650283857909438E-01
    0.11659517411784668314E-01
    0.11675567346447247169E-01
    0.11676707544197060390E-01
    0.11764354828281501850E-01
    0.11773949380040482290E-01
    0.11803555081492651466E-01
    0.11806739388208479374E-01
    0.11780624787447223703E-01
    0.11780150965190997955E-01
    0.11751244239030718061E-01
    0.11739641045632871058E-01
    0.11711513804878842179E-01
    0.11707760713945721334E-01
    0.11732516197858000942E-01
    0.11734613688465641776E-01
    0.11755166759179938585E-01
    0.11757194425633979776E-01
    0.11790264371765854165E-01
    0.11803969350171571520E-01
    0.11833632170819174956E-01
    0.11839900776708425431E-01
    0.11817110395170259823E-01
    0.11821360172862052304E-01
    0.11794579811151917684E-01
    0.11778764201130257142E-01
    0.11750558540493645857E-01
    0.11743171140088378562E-01
    0.11764739145655693855E-01
    0.11761842835819847145E-01
    0.11788673192813918858E-01
    0.11792664705970373751E-01
    0.11883637984336547014E-01
    0.11898288667293010698E-01
    0.11928939904174543779E-01
    0.11935540110262213981E-01
    0.11912305419452902736E-01
    0.11916862020290604554E-01
    0.11889483608034998388E-01
    0.11872887955514216732E-01
    0.11843562717144711857E-01
    0.11835481974693719959E-01
    0.11857701236076668636E-01
    0.11854087480864763937E-01
    0.11882744175000110529E-01
    0.11887035028265081904E-01
    0.11851713462854417819E-01
    0.11863090580577112174E-01
    0.11894603505870510532E-01
    0.11898649080766727365E-01
    0.11871680839468672433E-01
    0.11872074715749322479E-01
    0.11841837956590790110E-01
    0.11828613306548354384E-01
    0.11798452518653870791E-01
    0.11793500274868655778E-01
    0.11819306483457322696E-01
    0.11820146322700068181E-01
    0.11843923290866456913E-01
    0.11846552892146975863E-01
    0.11945661205630696278E-01
    0.11957987172754211760E-01
    0.11990535065641048235E-01
    0.11994908703679658252E-01
    0.11967439999148480820E-01
    0.11968117865460122309E-01
    0.11937226557613611969E-01
    0.11923226592912807703E-01
    0.11891906538279714903E-01
    0.11886272115121280374E-01
    0.11912777090470666810E-01
    0.11912919198140669783E-01
    0.11938531079729995665E-01
    0.11941455292621980591E-01
    0.11598967379140796841E-01
    0.11588300375160877353E-01
    0.11599746999441893150E-01
    0.11590468268531856078E-01
    0.11569430599774796140E-01
    0.11554495859018769008E-01
    0.11537382772386611807E-01
    0.11545816567820747431E-01
    0.11536021605081176605E-01
    0.11545990268429898867E-01
    0.11565225982204772534E-01
    0.11582848670641729405E-01
    0.11569356827554864303E-01
    0.11563732433639282646E-01
    0.11613199759890805926E-01
    0.11607034581276610627E-01
    0.11623308512572578730E-01
    0.11616761046361492524E-01
    0.11593641695784702439E-01
    0.11581611288272371588E-01
    0.11560812543532555940E-01
    0.11564801385835299027E-01
    0.11550170755806330944E-01
    0.11557330336050827130E-01
    0.11578677802447489426E-01
    0.11593298634658555021E-01
    0.11587408143679547856E-01
    0.11583401445927059281E-01
    0.11682612459683251738E-01
    0.11670454624417916922E-01
    0.11682980951237187037E-01
    0.11672303225420366593E-01
    0.11648616038617127383E-01
    0.11631104721762692764E-01
    0.11611665939216199786E-01
    0.11621930694896245514E-01
    0.11610866744575678092E-01
    0.11622546694467602441E-01
    0.11644553239116426507E-01
    0.11664618297656475718E-01
    0.11649066987937172629E-01
    0.11642534277615843030E-01
    0.11696955681551338135E-01
    0.11689330440646406029E-01
    0.11706723109326879623E-01
    0.11698792898114035790E-01
    0.11673001251603049716E-01
    0.11658407372367257659E-01
    0.11635251966024913808E-01
    0.11641045558762096526E-01
    0.11625110306024958109E-01
    0.11633961904530662132E-01
    0.11658102606945231969E-01
    0.11675151462077872425E-01
    0.11667249470840997463E-01
    0.11662344012076497624E-01
    0.11645877957549051127E-01
    0.11643952051938384964E-01
    0.11664774382780797660E-01
    0.11660745088478960407E-01
    0.11635654753935045086E-01
    0.11626290321853980161E-01
    0.11602047032441704585E-01
    0.11601883273744617586E-01
    0.11582666606653755151E-01
    0.11587165010895562195E-01
    0.11610551164203765373E-01
    0.11622322663574206902E-01
    0.11623651345378944663E-01
    0.11621158644125785184E-01
    0.11695758941484184559E-01
    0.11697648317873114709E-01
    0.11722567285102642592E-01
    0.11720747966452036565E-01
    0.11693871814296371431E-01
    0.11686834147599996572E-01
    0.11659517411851406596E-01
    0.11655650284021126101E-01
    0.11632269848459549783E-01
    0.11634351331342657546E-01
    0.11659633919314970479E-01
    0.11668826738808809468E-01
    0.11676707544467096120E-01
    0.11675567346673590419E-01
    0.11729886136648319528E-01
    0.11726525751915109833E-01
    0.11748506189443060771E-01
    0.11743105548619877168E-01
    0.11715315708709964429E-01
    0.11703394310729845276E-01
    0.11676760982615941309E-01
    0.11678381478591536025E-01
    0.11657824549474393727E-01
    0.11664002442604640142E-01
    0.11690205588445742174E-01
    0.11704392840183682270E-01
    0.11703755131052333630E-01
    0.11700370717180346228E-01
    0.11780150965990828643E-01
    0.11780624788136228112E-01
    0.11806739388884299885E-01
    0.11803555082077341748E-01
    0.11773949380553695027E-01
    0.11764354828671814632E-01
    0.11734613688826372319E-01
    0.11732516198328799689E-01
    0.11707760714430073476E-01
    0.11711513805446410741E-01
    0.11739641046274409963E-01
    0.11751244239795802238E-01
    0.11757194426238251617E-01
    0.11755166759733292822E-01
    0.11773661616983531475E-01
    0.11760548227642501212E-01
    0.11773792669151027929E-01
    0.11762214494979413362E-01
    0.11736711588079604476E-01
    0.11717391586149197499E-01
    0.11696237889908606827E-01
    0.11707835415492836087E-01
    0.11695843368756449893E-01
    0.11708771514307969239E-01
    0.11732728046760851695E-01
    0.11754453807684483307E-01
    0.11737514976579876969E-01
    0.11730355151872909683E-01
    0.11788134315316294368E-01
    0.11779589672775724052E-01
    0.11797746227422103299E-01
    0.11788934696991250350E-01
    0.11761301109340399629E-01
    0.11744914868518330567E-01
    0.11720008905309480668E-01
    0.11727103640916050273E-01
    0.11710198631530633132E-01
    0.11720275366254355454E-01
    0.11746391737688235274E-01
    0.11765083903778242314E-01
    0.11755851224598202337E-01
    0.11750330067626888267E-01
    0.11868657326060306698E-01
    0.11855160365370284378E-01
    0.11868736679145728760E-01
    0.11856791278703095530E-01
    0.11830372632424462215E-01
    0.11810080370671723060E-01
    0.11787885101920542869E-01
    0.11800266190977379971E-01
    0.11787720891256094763E-01
    0.11801387021551664955E-01
    0.11826399974570937432E-01
    0.11848942499476083218E-01
    0.11831340991956360020E-01
    0.11823859068513001627E-01
    0.11883283517345615693E-01
    0.11874397611014535919E-01
    0.11892941170850863594E-01
    0.11883784244145845568E-01
    0.11855202521766843721E-01
    0.11837862318322857000E-01
    0.11811872666610944566E-01
    0.11819714038174018028E-01
    0.11802206837795868252E-01
    0.11812994964273496393E-01
    0.11840197836143271162E-01
    0.11859686196633186656E-01
    0.11849857989714773776E-01
    0.11844027959972552866E-01
    0.11821360174267029133E-01
    0.11817110396468018599E-01
    0.11839900778021281505E-01
    0.11833632172039263222E-01
    0.11803969351290631226E-01
    0.11790264372753907554E-01
    0.11761842836746768878E-01
    0.11764739146687486562E-01
    0.11743171141104593452E-01
    0.11750558541592962675E-01
    0.11778764202335607197E-01
    0.11794579812491054818E-01
    0.11792664707159826801E-01
    0.11788673193951814192E-01
    0.11872074716994784546E-01
    0.11871680840588550929E-01
    0.11898649081880111056E-01
    0.11894603506879710200E-01
    0.11863090581496366430E-01
    0.11851713463631646794E-01
    0.11820146323434348873E-01
    0.11819306484314820796E-01
    0.11793500275732888075E-01
    0.11798452519613365427E-01
    0.11828613307601055712E-01
    0.11841837957786547145E-01