# vtk DataFile Version 3.0
LAPLACIEN  2D
ASCII
DATASET UNSTRUCTURED_GRID
FIELD FieldData 1
TIME 1 1 double
3.7000
 POINTS        7297  float
   1.5625000000000000E-002  0.96875000000000000        0.0000000000000000     
   3.1250000000000000E-002  0.96875000000000000        0.0000000000000000     
   3.1250000000000000E-002  0.98437500000000000        0.0000000000000000     
   9.3749999999999997E-003  0.97812500000000002        0.0000000000000000     
   2.0312500000000001E-002  0.97968750000000004        0.0000000000000000     
   2.1874999999999999E-002  0.99062499999999998        0.0000000000000000     
   1.0937499999999999E-002  0.98906249999999996        0.0000000000000000     
   4.6875000000000000E-002  0.96875000000000000        0.0000000000000000     
   6.2500000000000000E-002  0.96875000000000000        0.0000000000000000     
   6.2500000000000000E-002  0.98437500000000000        0.0000000000000000     
   4.0625000000000001E-002  0.97812500000000002        0.0000000000000000     
   5.1562499999999997E-002  0.97968750000000004        0.0000000000000000     
   5.3124999999999999E-002  0.99062499999999998        0.0000000000000000     
   4.2187500000000003E-002  0.98906249999999996        0.0000000000000000     
   1.5625000000000000E-002  0.93750000000000000        0.0000000000000000     
   3.1250000000000000E-002  0.93750000000000000        0.0000000000000000     
   3.1250000000000000E-002  0.95312500000000000        0.0000000000000000     
   9.3749999999999997E-003  0.94687500000000002        0.0000000000000000     
   2.0312500000000001E-002  0.94843750000000004        0.0000000000000000     
   2.1874999999999999E-002  0.95937499999999998        0.0000000000000000     
   1.0937499999999999E-002  0.95781249999999996        0.0000000000000000     
   4.6875000000000000E-002  0.93750000000000000        0.0000000000000000     
   6.2500000000000000E-002  0.93750000000000000        0.0000000000000000     
   6.2500000000000000E-002  0.95312500000000000        0.0000000000000000     
   4.0625000000000001E-002  0.94687500000000002        0.0000000000000000     
   5.1562499999999997E-002  0.94843750000000004        0.0000000000000000     
   5.3124999999999999E-002  0.95937499999999998        0.0000000000000000     
   4.2187500000000003E-002  0.95781249999999996        0.0000000000000000     
   7.8125000000000000E-002  0.96875000000000000        0.0000000000000000     
   9.3750000000000000E-002  0.96875000000000000        0.0000000000000000     
   9.3750000000000000E-002  0.98437500000000000        0.0000000000000000     
   7.1874999999999994E-002  0.97812500000000002        0.0000000000000000     
   8.2812499999999997E-002  0.97968750000000004        0.0000000000000000     
   8.4375000000000006E-002  0.99062499999999998        0.0000000000000000     
   7.3437500000000003E-002  0.98906249999999996        0.0000000000000000     
  0.10937500000000000       0.96875000000000000        0.0000000000000000     
  0.12500000000000000       0.96875000000000000        0.0000000000000000     
  0.12500000000000000       0.98437500000000000        0.0000000000000000     
  0.10312499999999999       0.97812500000000002        0.0000000000000000     
  0.11406250000000000       0.97968750000000004        0.0000000000000000     
  0.11562500000000001       0.99062499999999998        0.0000000000000000     
  0.10468750000000000       0.98906249999999996        0.0000000000000000     
   7.8125000000000000E-002  0.93750000000000000        0.0000000000000000     
   9.3750000000000000E-002  0.93750000000000000        0.0000000000000000     
   9.3750000000000000E-002  0.95312500000000000        0.0000000000000000     
   7.1874999999999994E-002  0.94687500000000002        0.0000000000000000     
   8.2812499999999997E-002  0.94843750000000004        0.0000000000000000     
   8.4375000000000006E-002  0.95937499999999998        0.0000000000000000     
   7.3437500000000003E-002  0.95781249999999996        0.0000000000000000     
  0.10937500000000000       0.93750000000000000        0.0000000000000000     
  0.12500000000000000       0.93750000000000000        0.0000000000000000     
  0.12500000000000000       0.95312500000000000        0.0000000000000000     
  0.10312499999999999       0.94687500000000002        0.0000000000000000     
  0.11406250000000000       0.94843750000000004        0.0000000000000000     
  0.11562500000000001       0.95937499999999998        0.0000000000000000     
  0.10468750000000000       0.95781249999999996        0.0000000000000000     
   1.5625000000000000E-002  0.90625000000000000        0.0000000000000000     
   3.1250000000000000E-002  0.90625000000000000        0.0000000000000000     
   3.1250000000000000E-002  0.92187500000000000        0.0000000000000000     
   9.3749999999999997E-003  0.91562500000000002        0.0000000000000000     
   2.0312500000000001E-002  0.91718750000000004        0.0000000000000000     
   2.1874999999999999E-002  0.92812499999999998        0.0000000000000000     
   1.0937499999999999E-002  0.92656249999999996        0.0000000000000000     
   4.6875000000000000E-002  0.90625000000000000        0.0000000000000000     
   6.2500000000000000E-002  0.90625000000000000        0.0000000000000000     
   6.2500000000000000E-002  0.92187500000000000        0.0000000000000000     
   4.0625000000000001E-002  0.91562500000000002        0.0000000000000000     
   5.1562499999999997E-002  0.91718750000000004        0.0000000000000000     
   5.3124999999999999E-002  0.92812499999999998        0.0000000000000000     
   4.2187500000000003E-002  0.92656249999999996        0.0000000000000000     
   1.5625000000000000E-002  0.87500000000000000        0.0000000000000000     
   3.1250000000000000E-002  0.87500000000000000        0.0000000000000000     
   3.1250000000000000E-002  0.89062500000000000        0.0000000000000000     
   9.3749999999999997E-003  0.88437500000000002        0.0000000000000000     
   2.0312500000000001E-002  0.88593750000000004        0.0000000000000000     
   2.1874999999999999E-002  0.89687499999999998        0.0000000000000000     
   1.0937499999999999E-002  0.89531249999999996        0.0000000000000000     
   4.6875000000000000E-002  0.87500000000000000        0.0000000000000000     
   6.2500000000000000E-002  0.87500000000000000        0.0000000000000000     
   6.2500000000000000E-002  0.89062500000000000        0.0000000000000000     
   4.0625000000000001E-002  0.88437500000000002        0.0000000000000000     
   5.1562499999999997E-002  0.88593750000000004        0.0000000000000000     
   5.3124999999999999E-002  0.89687499999999998        0.0000000000000000     
   4.2187500000000003E-002  0.89531249999999996        0.0000000000000000     
   7.8125000000000000E-002  0.90625000000000000        0.0000000000000000     
   9.3750000000000000E-002  0.90625000000000000        0.0000000000000000     
   9.3750000000000000E-002  0.92187500000000000        0.0000000000000000     
   7.1874999999999994E-002  0.91562500000000002        0.0000000000000000     
   8.2812499999999997E-002  0.91718750000000004        0.0000000000000000     
   8.4375000000000006E-002  0.92812499999999998        0.0000000000000000     
   7.3437500000000003E-002  0.92656249999999996        0.0000000000000000     
  0.10937500000000000       0.90625000000000000        0.0000000000000000     
  0.12500000000000000       0.90625000000000000        0.0000000000000000     
  0.12500000000000000       0.92187500000000000        0.0000000000000000     
  0.10312499999999999       0.91562500000000002        0.0000000000000000     
  0.11406250000000000       0.91718750000000004        0.0000000000000000     
  0.11562500000000001       0.92812499999999998        0.0000000000000000     
  0.10468750000000000       0.92656249999999996        0.0000000000000000     
   7.8125000000000000E-002  0.87500000000000000        0.0000000000000000     
   9.3750000000000000E-002  0.87500000000000000        0.0000000000000000     
   9.3750000000000000E-002  0.89062500000000000        0.0000000000000000     
   7.1874999999999994E-002  0.88437500000000002        0.0000000000000000     
   8.2812499999999997E-002  0.88593750000000004        0.0000000000000000     
   8.4375000000000006E-002  0.89687499999999998        0.0000000000000000     
   7.3437500000000003E-002  0.89531249999999996        0.0000000000000000     
  0.10937500000000000       0.87500000000000000        0.0000000000000000     
  0.12500000000000000       0.87500000000000000        0.0000000000000000     
  0.12500000000000000       0.89062500000000000        0.0000000000000000     
  0.10312499999999999       0.88437500000000002        0.0000000000000000     
  0.11406250000000000       0.88593750000000004        0.0000000000000000     
  0.11562500000000001       0.89687499999999998        0.0000000000000000     
  0.10468750000000000       0.89531249999999996        0.0000000000000000     
  0.14062500000000000       0.96875000000000000        0.0000000000000000     
  0.15625000000000000       0.96875000000000000        0.0000000000000000     
  0.15625000000000000       0.98437500000000000        0.0000000000000000     
  0.13437499999999999       0.97812500000000002        0.0000000000000000     
  0.14531250000000001       0.97968750000000004        0.0000000000000000     
  0.14687500000000001       0.99062499999999998        0.0000000000000000     
  0.13593749999999999       0.98906249999999996        0.0000000000000000     
  0.17187500000000000       0.96875000000000000        0.0000000000000000     
  0.18750000000000000       0.96875000000000000        0.0000000000000000     
  0.18750000000000000       0.98437500000000000        0.0000000000000000     
  0.16562499999999999       0.97812500000000002        0.0000000000000000     
  0.17656250000000001       0.97968750000000004        0.0000000000000000     
[...]
 CELL_DATA       14336
 SCALARS Tumor_cells float
 LOOKUP_TABLE default
    0.14582476546515591928E-01
    0.14582446966049395637E-01
    0.14582625868541681385E-01
    0.14582625868536234354E-01
    0.14582446966041308356E-01
    0.14582476546496686912E-01
    0.14582327792088633361E-01
    0.14582237939676829033E-01
    0.14582141419610906638E-01
    0.14582141419610821637E-01
    0.14582237939682610867E-01
    0.14582327792101494601E-01
    0.14582311194846910019E-01
    0.14582311194844734675E-01
    0.14583034029379195184E-01
    0.14583181644808020094E-01
    0.14583549420843505348E-01
    0.14583657550663250979E-01
    0.14583398348906895584E-01
    0.14583543761335476460E-01
    0.14583250842530866981E-01
    0.14582985108325721355E-01
    0.14582698686368245067E-01
    0.14582587827865195820E-01
    0.14582766275244610568E-01
    0.14582737196518313905E-01
    0.14583020138964520804E-01
    0.14583084129746456264E-01
    0.14583543761416005793E-01
    0.14583398348970193908E-01
    0.14583657550728146984E-01
    0.14583549420891477391E-01
    0.14583181644842509866E-01
    0.14583034029393211750E-01
    0.14582737196530207169E-01
    0.14582766275270508255E-01
    0.14582587827890479415E-01
    0.14582698686401806762E-01
    0.14582985108374349123E-01
    0.14583250842597410973E-01
    0.14583084129793364922E-01
    0.14583020139003815760E-01
    0.14584102224970188141E-01
    0.14584134206303788622E-01
    0.14584582762653994226E-01
    0.14584582762642486070E-01
    0.14584134206283218271E-01
    0.14584102224922498858E-01
    0.14583660885164181562E-01
    0.14583514051782809490E-01
    0.14583145413403714521E-01
    0.14583145413411184241E-01
    0.14583514051800236522E-01
    0.14583660885205811455E-01
    0.14583793958098870483E-01
    0.14583793958093281204E-01
    0.14584315251569578142E-01
    0.14584630997943709776E-01
    0.14585176950036188651E-01
    0.14585385963252824049E-01
    0.14585051555643289978E-01
    0.14585304957763889355E-01
    0.14584877535056399792E-01
    0.14584446056024946009E-01
    0.14583979353313245367E-01
    0.14583762302521606838E-01
    0.14584019200667652782E-01
    0.14583876223662677746E-01
    0.14584445045480403866E-01
    0.14584569552012522850E-01
    0.14586274455502791503E-01
    0.14586743278984366096E-01
    0.14587450346306663970E-01
    0.14587749279242459566E-01
    0.14587347307349311440E-01
    0.14587696804885520035E-01
    0.14587149353210785915E-01
    0.14586568409098022228E-01
    0.14585937644407492852E-01
    0.14585622894031480268E-01
    0.14585952008631533974E-01
    0.14585704208251684677E-01
    0.14586534980719951388E-01
    0.14586714295655564891E-01
    0.14585385810530192632E-01
    0.14585585899484330638E-01
    0.14586213095925934513E-01
    0.14586313804138040934E-01
    0.14585789362445636050E-01
    0.14585864940676753973E-01
    0.14585288637318786359E-01
    0.14584976206389984460E-01
    0.14584426924552879729E-01
    0.14584320933677050180E-01
    0.14584768566808816587E-01
    0.14584801743753992090E-01
    0.14585220696473865862E-01
    0.14585281098260070506E-01
    0.14587348674205498703E-01
    0.14587701853310533137E-01
    0.14588491179393744956E-01
    0.14588681688745415779E-01
    0.14588088482386034686E-01
    0.14588259645212211038E-01
    0.14587562442024963605E-01
    0.14587100597499949237E-01
    0.14586386560606293822E-01
    0.14586183143907425000E-01
    0.14586703767509484261E-01
    0.14586632542090503112E-01
    0.14587313502381430916E-01
    0.14587428612843201040E-01
    0.14585304957947875862E-01
    0.14585051555803559345E-01
    0.14585385963419504954E-01
    0.14585176950179572219E-01
    0.14584630998062602519E-01
    0.14584315251657859955E-01
    0.14583876223740030800E-01
    0.14584019200766228444E-01
    0.14583762302614792714E-01
    0.14583979353421277006E-01
    0.14584446056158642882E-01
    0.14584877535218140204E-01
    0.14584569552146023699E-01
    0.14584445045602660238E-01
    0.14585864940828054820E-01
    0.14585789362563241628E-01
    0.14586313804251382562E-01
    0.14586213096009848292E-01
    0.14585585899548211830E-01
    0.14585385810556739106E-01
    0.14584801743777922600E-01
    0.14584768566863989467E-01
    0.14584320933737543458E-01
    0.14584426924634678879E-01
    0.14584976206492576006E-01
    0.14585288637455786145E-01
    0.14585281098352330040E-01
    0.14585220696551262284E-01
    0.14587696805216161799E-01
    0.14587347307649408193E-01
    0.14587749279553693244E-01
    0.14587450346588239081E-01
    0.14586743279230367232E-01
    0.14586274455707853165E-01
    0.14585704208437227231E-01
    0.14585952008845139150E-01
    0.14585622894234708327E-01
    0.14585937644632132604E-01
    0.14586568409359478016E-01
    0.14587149353510625929E-01
    0.14586714295918391110E-01
    0.14586534980967794800E-01
    0.14588259645510201837E-01
    0.14588088482643498875E-01
    0.14588681689003336200E-01
    0.14588491179615855481E-01
    0.14587701853501559152E-01
    0.14587348674348840638E-01
    0.14586632542222690775E-01
    0.14586703767679764718E-01
    0.14586183144078109647E-01
    0.14586386560804841597E-01
    0.14587100597730402046E-01
    0.14587562442300158402E-01
    0.14587428613064844923E-01
    0.14587313502584476829E-01
    0.14587152438698409995E-01
    0.14587245228456786894E-01
    0.14587949242470680047E-01
    0.14587949242452762089E-01
    0.14587245228423645002E-01
    0.14587152438621318884E-01
    0.14586432629994230264E-01
    0.14586233841430496991E-01
    0.14585605033740678405E-01
    0.14585605033754478130E-01
    0.14586233841460518115E-01
    0.14586432630065664443E-01
    0.14586711455861654449E-01
    0.14586711455852375413E-01
    0.14589122303038212086E-01
    0.14589368558060335918E-01
    0.14590236396581647213E-01
    0.14590326269735760453E-01
    0.14589551717794302377E-01
    0.14589554072824044775E-01
    0.14588711722840340401E-01
    0.14588363403209059915E-01
    0.14587568770909111263E-01
    0.14587471457606483380E-01
    0.14588174354396953383E-01
    0.14588269000800924494E-01
    0.14588810505965081263E-01
    0.14588865193017155550E-01
    0.14589554073047803287E-01
    0.14589551717967271655E-01
    0.14590326269898198225E-01
    0.14590236396701877428E-01
    0.14589368558154304154E-01
    0.14589122303077893886E-01
    0.14588269000837743999E-01
    0.14588174354482022488E-01
    0.14587471457702899311E-01
    0.14587568771039663082E-01
    0.14588363403366933629E-01
    0.14588711723049948774E-01
    0.14588865193155798120E-01
    0.14588810506081423962E-01
    0.14591536059147175441E-01
    0.14591687526178726345E-01
    0.14592628384875128145E-01
    0.14592628384850845485E-01
    0.14591687526132882807E-01
    0.14591536059040224535E-01
    0.14590557902964595982E-01
    0.14590313209489421190E-01
    0.14589442781087102324E-01
    0.14589442781107433283E-01
    0.14590313209532192532E-01
    0.14590557903065915976E-01
    0.14590974970933265689E-01
    0.14590974970920246589E-01
    0.14588841976053082070E-01
    0.14589443496852623830E-01
    0.14590289632081504534E-01
    0.14590664588792738240E-01
    0.14590204526911940142E-01
    0.14590635190130150575E-01
    0.14589985881453246958E-01
    0.14589276519895930107E-01
    0.14588503318312372181E-01
    0.14588102777982538127E-01
    0.14588495478906065780E-01
    0.14588155804896489956E-01
    0.14589215448642754019E-01
    0.14589442017954045577E-01
    0.14591929523417920128E-01
    0.14592639522534591248E-01
    0.14593599460136464155E-01
    0.14594034337625157519E-01
    0.14593526489239122199E-01
    0.14594020968838985683E-01
    0.14593290358406781765E-01
    0.14592477178015157702E-01
    0.14591587045650887197E-01
    0.14591115191050177402E-01
    0.14591561255581596973E-01
    0.14591145549894513414E-01
    0.14592394371845477871E-01
    0.14592659258855099694E-01
    0.14589922988077453150E-01
    0.14590409143767250205E-01
    0.14591339572165989980E-01
    0.14591605978367897661E-01
    0.14590952312824166659E-01
    0.14591203585836588080E-01
    0.14590402611540088246E-01
    0.14589812611391977590E-01
    0.14588954867172529428E-01
    0.14588666115704187684E-01
    0.14589251779652126842E-01
    0.14589089206043084901E-01
    0.14589999533435094037E-01
    0.14590161738271028441E-01
    0.14593023664910484416E-01
    0.14593618932870115398E-01
    0.14594667025076607861E-01
    0.14594993122405364172E-01
    0.14594287146917730644E-01
    0.14594600258253565342E-01
    0.14593714244471167954E-01
    0.14593020928941310976E-01
    0.14592043889077298616E-01
    0.14591684609907963274E-01
    0.14592326468664970629E-01
    0.14592088889967165521E-01
    0.14593189297228409754E-01
    0.14593389502356571286E-01
    0.14595436404796291799E-01
    0.14596228083049514468E-01
    0.14597275136334474793E-01
    0.14597752233491726251E-01
    0.14597206695748833269E-01
    0.14597746030986060925E-01
    0.14596955777858534528E-01
    0.14596065454473916914E-01
    0.14595086253658070413E-01
    0.14594559253699441667E-01
    0.14595047773082132914E-01
    0.14594574180616170372E-01
    0.14595967912642619085E-01
    0.14596261204519152613E-01
    0.14599256711041928153E-01
    0.14600101790543067518E-01
    0.14601210551337848523E-01
    0.14601711010751767389E-01
    0.14601135799885971156E-01
    0.14601699909450191472E-01
    0.14600871313720583874E-01
    0.14599931097951603445E-01
    0.14598891070367868775E-01
    0.14598326008631682185E-01
    0.14598846492541107250E-01
    0.14598334827959953339E-01
    0.14599827119750181242E-01
    0.14600138368096581346E-01
    0.14596556337422149363E-01
    0.14597234590321283773E-01
    0.14598377756738816630E-01
    0.14598745707225189647E-01
    0.14597992810639868339E-01
    0.14598346788085346873E-01
    0.14597393603959776462E-01
    0.14596624287573970596E-01
    0.14595553532162304500E-01
    0.14595140603438867821E-01
    0.14595830414380847953E-01
    0.14595536861372642584E-01
    0.14596784191443255146E-01
    0.14597012222388525485E-01
    0.14600428082904284496E-01
    0.14601162340015294561E-01
    0.14602382990813438796E-01
    0.14602773209415538178E-01
    0.14601972345391331376E-01
    0.14602342948519189333E-01
    0.14601336412467471118E-01
    0.14600519790267772399E-01
    0.14599379210037280105E-01
    0.14598931014086375182E-01
    0.14599663804680107840E-01
    0.14599336094554243859E-01
    0.14600685815587729696E-01
    0.14600930568802414702E-01
    0.14591709068013214434E-01
    0.14592089130536303049E-01
    0.14593101060089777588E-01
    0.14593267137839770892E-01
    0.14592429116478178308E-01
    0.14592511105926032552E-01
    0.14591562024455009827E-01
    0.14591085036259613533E-01
    0.14590144632275222833E-01
    0.14589962028521757595E-01
    0.14590731972333613811E-01
    0.14590735669939668487E-01
    0.14591507899291512873E-01
    0.14591609720996323585E-01
    0.14594832461855966957E-01
    0.14595323682301606164E-01
    0.14596459206804968112E-01
    0.14596686077380637697E-01
    0.14595790027606513409E-01
    0.14595933218361362149E-01
    0.14594893270500064464E-01
    0.14594311890915475510E-01
    0.14593248145425787368E-01
    0.14592994926468993294E-01
    0.14593824648917867390E-01
    0.14593753614206042904E-01
    0.14594719177841906921E-01
    0.14594859275732775111E-01
    0.14594142558250670569E-01
    0.14594428950018273686E-01
    0.14595518006688072005E-01
    0.14595594772370931030E-01
    0.14594586582692151144E-01
    0.14594514586296009409E-01
    0.14593425691899744243E-01
    0.14593051261933909571E-01
    0.14592032015442440301E-01
    0.14591946526961652869E-01
    0.14592886700221527688E-01
    0.14593040783166564417E-01
    0.14593690795656468970E-01
    0.14593738130573618086E-01
    0.14597299373900893965E-01
    0.14597699983776269220E-01
    0.14598920133288213405E-01
    0.14599059856496633333E-01
    0.14597987091864716991E-01
    0.14597977085089851659E-01
    0.14596789661744536543E-01
    0.14596308008312366966E-01
    0.14595159739322705397E-01
    0.14595002905627416090E-01
    0.14596007245866314539E-01
    0.14596086512999007292E-01
    0.14596934759198341991E-01
    0.14597021120134555036E-01
    0.14598409117766738760E-01
    0.14598988006607657372E-01
    0.14600230643313021409E-01
    0.14600501844079523395E-01
    0.14599547477886757121E-01
    0.14599730498057621186E-01
    0.14598611632363728274E-01
    0.14597951835275730162E-01
    0.14596786270953083370E-01
    0.14596479049047069235E-01
    0.14597363673102395354E-01
    0.14597236849899936431E-01
    0.14598356277178238527E-01
    0.14598524874470442114E-01
    0.14602369186141085644E-01
    0.14603013821846718909E-01
    0.14604358858817325859E-01
    0.14604657142058831767E-01
    0.14603631207255452981E-01
    0.14603828155598548924E-01
    0.14602632314846446596E-01
    0.14601920582163627205E-01
    0.14600668812328779569E-01
    0.14600325667962651272E-01
    0.14601267312933726913E-01
    0.14601106494090182811E-01
    0.14602342780617868015E-01
    0.14602529438917441831E-01
    0.14600937583759942759E-01
    0.14601433781022316732E-01
    0.14602776730377849818E-01
    0.14602966455545488694E-01
    0.14601822420559851246E-01
    0.14601854676637182964E-01
    0.14600572677065666582E-01
    0.14600006284101699205E-01
    0.14598744515758720758E-01
    0.14598531602955390138E-01
    0.14599598962486411841E-01
    0.14599620719940323288E-01
    0.14600634828253212030E-01
    0.14600751748502760127E-01
    0.14605020828145555412E-01
    0.14605600595245529782E-01
    0.14607079587756945788E-01
    0.14607308796956560912E-01
    0.14606065425650169298E-01
    0.14606116333399241092E-01
    0.14604724659745355053E-01
    0.14604093091845776059E-01
    0.14602720802391078517E-01
    0.14602467343554477452E-01
    0.14603608332564011613E-01
    0.14603591599993673636E-01
    0.14604748777167640000E-01
    0.14604888246169357366E-01
    0.14590635190649138206E-01
    0.14590204527393780404E-01
    0.14590664589290303771E-01
    0.14590289632543230677E-01
    0.14589443497268024183E-01
    0.14588841976417476348E-01
    0.14588155805232948248E-01
    0.14588495479277341707E-01
    0.14588102778338767063E-01
    0.14588503318696316793E-01
    0.14589276520327480735E-01
    0.14589985881933170350E-01
    0.14589442018388437683E-01
    0.14589215449058529073E-01
    0.14591203586322957705E-01
    0.14590952313263376092E-01
    0.14591605978812094424E-01
    0.14591339572568185617E-01
    0.14590409144127647681E-01
    0.14589922988380112090E-01
    0.14589089206326193507E-01
    0.14589251779980083254E-01
    0.14588666116027888819E-01
    0.14588954867530409820E-01
    0.14589812611792561670E-01
    0.14590402611995432341E-01
    0.14590161738664259028E-01
    0.14589999533806076795E-01
    0.14594020969586380884E-01
    0.14593526489943041760E-01
    0.14594034338349184260E-01
    0.14593599460818739572E-01
    0.14592639523160236617E-01
    0.14591929523982888339E-01
    0.14591145550423434071E-01
    0.14591561256151843948E-01
    0.14591115191600868839E-01
    0.14591587046235371047E-01
    0.14592477178657622949E-01
    0.14593290359107204124E-01
    0.14592659259501830626E-01
    0.14592394372470099753E-01
    0.14594600258968352946E-01
    0.14594287147579002029E-01
    0.14594993123075971839E-01
    0.14594667025699290322E-01
    0.14593618933440721461E-01
    0.14593023665413635756E-01
    0.14592088890442687921E-01
    0.14592326469191880742E-01
    0.14591684610426158136E-01
    0.14592043889635752940E-01
    0.14593020929552839166E-01
    0.14593714245147069997E-01
    0.14593389502962130291E-01
    0.14593189297808216789E-01
    0.14592511106338077950E-01
    0.14592429116832811298E-01
    0.14593267138188410412E-01
    0.14593101060390025261E-01
    0.14592089130799578561E-01
    0.14591709068212123032E-01
    0.14590735670127341281E-01
    0.14590731972576312034E-01
    0.14589962028771162258E-01
    0.14590144632565082983E-01
    0.14591085036587554333E-01
    0.14591562024844684231E-01
    0.14591609721306481734E-01
    0.14591507899575728233E-01
    0.14594514586591167404E-01
    0.14594586582919597678E-01
    0.14595594772581368601E-01
    0.14595518006843766906E-01
    0.14594428950141711404E-01
    0.14594142558302949930E-01
    0.14593040783216090772E-01
    0.14592886700336350769E-01
    0.14591946527094270744E-01
    0.14592032015622004998E-01
    0.14593051262146694222E-01
    0.14593425692181060879E-01
    0.14593738130758105928E-01
    0.14593690795811287836E-01
    0.14595933219001745729E-01
    0.14595790028183126819E-01
    0.14596686077955610059E-01
    0.14596459207325621077E-01
    0.14595323682774991383E-01
    0.14594832462255277750E-01
    0.14593753614586044490E-01
    0.14593824649359427373E-01
    0.14592994926912798009E-01
    0.14593248145916126041E-01
    0.14594311891454268479E-01
    0.14594893271110199670E-01
    0.14594859276255173208E-01
    0.14594719178334854617E-01
    0.14597977085613299264E-01
    0.14597987092314091903E-01
    0.14599059856933365581E-01
    0.14598920133664278903E-01
    0.14597699984109762869E-01
    0.14597299374153523480E-01
    0.14596086513240805194E-01
    0.14596007246179929992E-01
    0.14595002905954352485E-01
    0.14595159739702668819E-01
    0.14596308008735925724E-01
    0.14596789662246249797E-01
    0.14597021120531209967E-01
    0.14596934759561827274E-01
    0.14597746031999942612E-01
    0.14597206696713264928E-01
    0.14597752234480419753E-01
    0.14597275137275820753E-01
    0.14596228083924437866E-01
    0.14595436405601317983E-01
    0.14594574181377417341E-01
    0.14595047773890918244E-01
    0.14594559254484390162E-01
    0.14595086254482605298E-01
    0.14596065455366289895E-01
    0.14596955778817949367E-01
    0.14596261205417146098E-01
    0.14595967913515183259E-01
    0.14598346789066664331E-01
    0.14597992811561653556E-01
    0.14598745708160462339E-01
    0.14598377757620531470E-01
    0.14597234591141134905E-01
    0.14596556338165315309E-01
    0.14595536862080453130E-01
    0.14595830415146286013E-01
    0.14595140604191319741E-01
    0.14595553532960808124E-01
    0.14596624288435427336E-01
    0.14597393604894740374E-01
    0.14597012223245341839E-01
    0.14596784192270994066E-01
    0.14601699910766353929E-01
    0.14601135801147158491E-01
    0.14601711012041218574E-01
    0.14601210552574661258E-01
    0.14600101791704228962E-01
    0.14599256712124504889E-01
    0.14598334828991432061E-01
    0.14598846493625975557E-01
    0.14598326009688652669E-01
    0.14598891071469890027E-01
    0.14599931099130748768E-01
    0.14600871314975288548E-01
    0.14600138369282639542E-01
    0.14599827120907692829E-01
    0.14602342949802933278E-01
    0.14601972346610005843E-01
    0.14602773210651705596E-01
    0.14602382991990733169E-01
    0.14601162341121446189E-01
    0.14600428083925028749E-01
    0.14599336095532284424E-01
    0.14599663805721672244E-01
    0.14598931015110897663E-01
    0.14599379211113337751E-01
    0.14600519791416103829E-01
    0.14601336413697884459E-01
    0.14600930569947387708E-01
    0.14600685816700490621E-01
    0.14599730498964524211E-01
    0.14599547478723870486E-01
    0.14600501844919172925E-01
    0.14600230644092722365E-01
    0.14598988007330254701E-01
    0.14598409118406006912E-01
    0.14597236850512148101E-01
    0.14597363673782419100E-01
    0.14596479049725065089E-01
    0.14596786271683433178E-01
    0.14597951836064415251E-01
    0.14598611633232894125E-01
    0.14598524875244062865E-01
    0.14598356277919076474E-01
    0.14601854677427191648E-01
    0.14601822421269757338E-01
    0.14602966456246967500E-01
    0.14602776731013017084E-01
    0.14601433781605039838E-01
    0.14600937584252533102E-01
    0.14599620720414313926E-01
    0.14599598963038466770E-01
    0.14598531603516476038E-01
    0.14598744516378641539E-01
    0.14600006284775136206E-01
    0.14600572677826413950E-01