# vtk DataFile Version 3.0
LAPLACIEN  2D
ASCII
DATASET UNSTRUCTURED_GRID
FIELD FieldData 1
TIME 1 1 double
2.9000
 POINTS        7297  float
   1.5625000000000000E-002  0.96875000000000000        0.0000000000000000     
   3.1250000000000000E-002  0.96875000000000000        0.0000000000000000     
   3.1250000000000000E-002  0.98437500000000000        0.0000000000000000     
   9.3749999999999997E-003  0.97812500000000002        0.0000000000000000     
   2.0312500000000001E-002  0.97968750000000004        0.0000000000000000     
   2.1874999999999999E-002  0.99062499999999998        0.0000000000000000     
   1.0937499999999999E-002  0.98906249999999996        0.0000000000000000     
   4.6875000000000000E-002  0.96875000000000000        0.0000000000000000     
   6.2500000000000000E-002  0.96875000000000000        0.0000000000000000     
   6.2500000000000000E-002  0.98437500000000000        0.0000000000000000     
   4.0625000000000001E-002  0.97812500000000002        0.0000000000000000     
   5.1562499999999997E-002  0.97968750000000004        0.0000000000000000     
   5.3124999999999999E-002  0.99062499999999998        0.0000000000000000     
   4.2187500000000003E-002  0.98906249999999996        0.0000000000000000     
   1.5625000000000000E-002  0.93750000000000000        0.0000000000000000     
   3.1250000000000000E-002  0.93750000000000000        0.0000000000000000     
   3.1250000000000000E-002  0.95312500000000000        0.0000000000000000     
   9.3749999999999997E-003  0.94687500000000002        0.0000000000000000     
   2.0312500000000001E-002  0.94843750000000004        0.0000000000000000     
   2.1874999999999999E-002  0.95937499999999998        0.0000000000000000     
   1.0937499999999999E-002  0.95781249999999996        0.0000000000000000     
   4.6875000000000000E-002  0.93750000000000000        0.0000000000000000     
   6.2500000000000000E-002  0.93750000000000000        0.0000000000000000     
   6.2500000000000000E-002  0.95312500000000000        0.0000000000000000     
   4.0625000000000001E-002  0.94687500000000002        0.0000000000000000     
   5.1562499999999997E-002  0.94843750000000004        0.0000000000000000     
   5.3124999999999999E-002  0.95937499999999998        0.0000000000000000     
   4.2187500000000003E-002  0.95781249999999996        0.0000000000000000     
   7.8125000000000000E-002  0.96875000000000000        0.0000000000000000     
   9.3750000000000000E-002  0.96875000000000000        0.0000000000000000     
   9.3750000000000000E-002  0.98437500000000000        0.0000000000000000     
   7.1874999999999994E-002  0.97812500000000002        0.0000000000000000     
   8.2812499999999997E-002  0.97968750000000004        0.0000000000000000     
   8.4375000000000006E-002  0.99062499999999998        0.0000000000000000     
   7.3437500000000003E-002  0.98906249999999996        0.0000000000000000     
  0.10937500000000000       0.96875000000000000        0.0000000000000000     
  0.12500000000000000       0.96875000000000000        0.0000000000000000     
  0.12500000000000000       0.98437500000000000        0.0000000000000000     
  0.10312499999999999       0.97812500000000002        0.0000000000000000     
  0.11406250000000000       0.97968750000000004        0.0000000000000000     
  0.11562500000000001       0.99062499999999998        0.0000000000000000     
  0.10468750000000000       0.98906249999999996        0.0000000000000000     
   7.8125000000000000E-002  0.93750000000000000        0.0000000000000000     
   9.3750000000000000E-002  0.93750000000000000        0.0000000000000000     
   9.3750000000000000E-002  0.95312500000000000        0.0000000000000000     
   7.1874999999999994E-002  0.94687500000000002        0.0000000000000000     
   8.2812499999999997E-002  0.94843750000000004        0.0000000000000000     
   8.4375000000000006E-002  0.95937499999999998        0.0000000000000000     
   7.3437500000000003E-002  0.95781249999999996        0.0000000000000000     
  0.10937500000000000       0.93750000000000000        0.0000000000000000     
  0.12500000000000000       0.93750000000000000        0.0000000000000000     
  0.12500000000000000       0.95312500000000000        0.0000000000000000     
  0.10312499999999999       0.94687500000000002        0.0000000000000000     
  0.11406250000000000       0.94843750000000004        0.0000000000000000     
  0.11562500000000001       0.95937499999999998        0.0000000000000000     
  0.10468750000000000       0.95781249999999996        0.0000000000000000     
   1.5625000000000000E-002  0.90625000000000000        0.0000000000000000     
   3.1250000000000000E-002  0.90625000000000000        0.0000000000000000     
   3.1250000000000000E-002  0.92187500000000000        0.0000000000000000     
   9.3749999999999997E-003  0.91562500000000002        0.0000000000000000     
   2.0312500000000001E-002  0.91718750000000004        0.0000000000000000     
   2.1874999999999999E-002  0.92812499999999998        0.0000000000000000     
   1.0937499999999999E-002  0.92656249999999996        0.0000000000000000     
   4.6875000000000000E-002  0.90625000000000000        0.0000000000000000     
   6.2500000000000000E-002  0.90625000000000000        0.0000000000000000     
   6.2500000000000000E-002  0.92187500000000000        0.0000000000000000     
   4.0625000000000001E-002  0.91562500000000002        0.0000000000000000     
   5.1562499999999997E-002  0.91718750000000004        0.0000000000000000     
   5.3124999999999999E-002  0.92812499999999998        0.0000000000000000     
   4.2187500000000003E-002  0.92656249999999996        0.0000000000000000     
   1.5625000000000000E-002  0.87500000000000000        0.0000000000000000     
   3.1250000000000000E-002  0.87500000000000000        0.0000000000000000     
   3.1250000000000000E-002  0.89062500000000000        0.0000000000000000     
   9.3749999999999997E-003  0.88437500000000002        0.0000000000000000     
   2.0312500000000001E-002  0.88593750000000004        0.0000000000000000     
   2.1874999999999999E-002  0.89687499999999998        0.0000000000000000     
   1.0937499999999999E-002  0.89531249999999996        0.0000000000000000     
   4.6875000000000000E-002  0.87500000000000000        0.0000000000000000     
   6.2500000000000000E-002  0.87500000000000000        0.0000000000000000     
   6.2500000000000000E-002  0.89062500000000000        0.0000000000000000     
   4.0625000000000001E-002  0.88437500000000002        0.0000000000000000     
   5.1562499999999997E-002  0.88593750000000004        0.0000000000000000     
   5.3124999999999999E-002  0.89687499999999998        0.0000000000000000     
   4.2187500000000003E-002  0.89531249999999996        0.0000000000000000     
   7.8125000000000000E-002  0.90625000000000000        0.0000000000000000     
   9.3750000000000000E-002  0.90625000000000000        0.0000000000000000     
   9.3750000000000000E-002  0.92187500000000000        0.0000000000000000     
   7.1874999999999994E-002  0.91562500000000002        0.0000000000000000     
   8.2812499999999997E-002  0.91718750000000004        0.0000000000000000     
   8.4375000000000006E-002  0.92812499999999998        0.0000000000000000     
   7.3437500000000003E-002  0.92656249999999996        0.0000000000000000     
  0.10937500000000000       0.90625000000000000        0.0000000000000000     
  0.12500000000000000       0.90625000000000000        0.0000000000000000     
  0.12500000000000000       0.92187500000000000        0.0000000000000000     
  0.10312499999999999       0.91562500000000002        0.0000000000000000     
  0.11406250000000000       0.91718750000000004        0.0000000000000000     
  0.11562500000000001       0.92812499999999998        0.0000000000000000     
  0.10468750000000000       0.92656249999999996        0.0000000000000000     
   7.8125000000000000E-002  0.87500000000000000        0.0000000000000000     
   9.3750000000000000E-002  0.87500000000000000        0.0000000000000000     
   9.3750000000000000E-002  0.89062500000000000        0.0000000000000000     
   7.1874999999999994E-002  0.88437500000000002        0.0000000000000000     
   8.2812499999999997E-002  0.88593750000000004        0.0000000000000000     
   8.4375000000000006E-002  0.89687499999999998        0.0000000000000000     
   7.3437500000000003E-002  0.89531249999999996        0.0000000000000000     
  0.10937500000000000       0.87500000000000000        0.0000000000000000     
  0.12500000000000000       0.87500000000000000        0.0000000000000000     
  0.12500000000000000       0.89062500000000000        0.0000000000000000     
  0.10312499999999999       0.88437500000000002        0.0000000000000000     
  0.11406250000000000       0.88593750000000004        0.0000000000000000     
  0.11562500000000001       0.89687499999999998        0.0000000000000000     
  0.10468750000000000       0.89531249999999996        0.0000000000000000     
  0.14062500000000000       0.96875000000000000        0.0000000000000000     
  0.15625000000000000       0.96875000000000000        0.0000000000000000     
  0.15625000000000000       0.98437500000000000        0.0000000000000000     
  0.13437499999999999       0.97812500000000002        0.0000000000000000     
  0.14531250000000001       0.97968750000000004        0.0000000000000000     
  0.14687500000000001       0.99062499999999998        0.0000000000000000     
  0.13593749999999999       0.98906249999999996        0.0000000000000000     
  0.17187500000000000       0.96875000000000000        0.0000000000000000     
  0.18750000000000000       0.96875000000000000        0.0000000000000000     
  0.18750000000000000       0.98437500000000000        0.0000000000000000     
  0.16562499999999999       0.97812500000000002        0.0000000000000000     
  0.17656250000000001       0.97968750000000004        0.0000000000000000     
[...]
 CELL_DATA       14336
 SCALARS Tumor_cells float
 LOOKUP_TABLE default
    0.13355558142929081777E-01
    0.13355426402565274621E-01
    0.13356222715819085489E-01
    0.13356222715812189963E-01
    0.13355426402554489845E-01
    0.13355558142904039309E-01
    0.13354895940051382530E-01
    0.13354495906451957846E-01
    0.13354066195754835458E-01
    0.13354066195755496388E-01
    0.13354495906460064208E-01
    0.13354895940070670921E-01
    0.13354822011695180115E-01
    0.13354822011692286596E-01
    0.13358039120237547720E-01
    0.13358695981390684288E-01
    0.13360332031691438473E-01
    0.13360813071549166794E-01
    0.13359660290498030777E-01
    0.13360307270514298547E-01
    0.13359004240735238012E-01
    0.13357821722922968641E-01
    0.13356546983602101200E-01
    0.13356053496055878341E-01
    0.13356847691035723252E-01
    0.13356718194099418892E-01
    0.13357977487034504785E-01
    0.13358262289580164622E-01
    0.13360307270614284539E-01
    0.13359660290576034353E-01
    0.13360813071627737625E-01
    0.13360332031749671405E-01
    0.13358695981433051439E-01
    0.13358039120254877608E-01
    0.13356718194114299350E-01
    0.13356847691068473097E-01
    0.13356053496088508489E-01
    0.13356546983645103260E-01
    0.13357821722984514895E-01
    0.13359004240820159665E-01
    0.13358262289638600517E-01
    0.13357977487083446538E-01
    0.13362789632882366223E-01
    0.13362931506167127077E-01
    0.13364924638101656831E-01
    0.13364924638088178030E-01
    0.13362931506142431554E-01
    0.13362789632824797689E-01
    0.13360827575469086045E-01
    0.13360174410387141639E-01
    0.13358534671215938766E-01
    0.13358534671225132801E-01
    0.13360174410408274040E-01
    0.13360827575519538743E-01
    0.13361419027549975569E-01
    0.13361419027543234433E-01
    0.13363736938135556409E-01
    0.13365140240563013266E-01
    0.13367565400180771856E-01
    0.13368493674166488649E-01
    0.13367008745518932714E-01
    0.13368134248305641940E-01
    0.13366235890500319933E-01
    0.13364318672293207246E-01
    0.13362244315168763167E-01
    0.13361279173109780194E-01
    0.13362421324370540171E-01
    0.13361785442006557378E-01
    0.13364314154073400273E-01
    0.13364867475140367048E-01
    0.13372436406440054921E-01
    0.13374515828736539477E-01
    0.13377649674227699850E-01
    0.13378974386326937529E-01
    0.13377194047784177894E-01
    0.13378743108693573471E-01
    0.13376317412151891156E-01
    0.13373741226705499613E-01
    0.13370943007483314033E-01
    0.13369545885811946404E-01
    0.13371006370413610759E-01
    0.13369906357909766906E-01
    0.13373592676078325386E-01
    0.13374388027774792090E-01
    0.13368490643538981019E-01
    0.13369378946717759213E-01
    0.13372161823744488016E-01
    0.13372608837978236518E-01
    0.13370282681957256984E-01
    0.13370618790253788535E-01
    0.13368061045157808575E-01
    0.13366673107971018333E-01
    0.13364233041040776348E-01
    0.13363761760037199885E-01
    0.13365750199342326526E-01
    0.13365897299407751911E-01
    0.13367758214765145322E-01
    0.13368026605779594757E-01
    0.13377194998685167787E-01
    0.13378759378618399270E-01
    0.13382252104136809281E-01
    0.13383095335930236119E-01
    0.13380472344889256936E-01
    0.13381231325672839766E-01
    0.13378145548963197090E-01
    0.13376098425295268948E-01
    0.13372933344116775048E-01
    0.13372030658506247822E-01
    0.13374338487925088725E-01
    0.13374022040434599412E-01
    0.13377040570400075895E-01
    0.13377550848227486718E-01
    0.13368134248530401387E-01
    0.13367008745714371865E-01
    0.13368493674369038432E-01
    0.13367565400354778499E-01
    0.13365140240707437669E-01
    0.13363736938242293945E-01
    0.13361785442099566312E-01
    0.13362421324490792937E-01
    0.13361279173224684808E-01
    0.13362244315301783498E-01
    0.13364318672457535866E-01
    0.13366235890700016095E-01
    0.13364867475303481362E-01
    0.13364314154222539655E-01
    0.13370618790436720330E-01
    0.13370282682099669108E-01
    0.13372608838115866009E-01
    0.13372161823846852313E-01
    0.13369378946795226759E-01
    0.13368490643570828807E-01
    0.13365897299435543916E-01
    0.13365750199408636331E-01
    0.13363761760110200519E-01
    0.13364233041139655586E-01
    0.13366673108095186370E-01
    0.13368061045323828551E-01
    0.13368026605891217273E-01
    0.13367758214858726715E-01
    0.13378743109102341977E-01
    0.13377194048154352271E-01
    0.13378974386710752037E-01
    0.13377649674574318417E-01
    0.13374515829038516671E-01
    0.13372436406690444907E-01
    0.13369906358135152588E-01
    0.13371006370674950320E-01
    0.13369545886060764731E-01
    0.13370943007759194046E-01
    0.13373741227027972564E-01
    0.13376317412523774236E-01
    0.13374388028098318018E-01
    0.13373592676382845684E-01
    0.13381231326040018276E-01
    0.13380472345206562146E-01
    0.13383095336249099111E-01
    0.13382252104411697033E-01
    0.13378759378853499404E-01
    0.13377194998860728742E-01
    0.13374022040594955515E-01
    0.13374338488132809719E-01
    0.13372030658713731158E-01
    0.13372933344359155816E-01
    0.13376098425578034079E-01
    0.13378145549301848072E-01
    0.13377550848499787997E-01
    0.13377040570649277595E-01
    0.13376325037213331048E-01
    0.13376735693582511577E-01
    0.13379852732866074488E-01
    0.13379852732844305443E-01
    0.13376735693542255584E-01
    0.13376325037119754860E-01
    0.13373135011833280419E-01
    0.13372253110979673979E-01
    0.13369463626161003089E-01
    0.13369463626177668578E-01
    0.13372253111016424096E-01
    0.13373135011921050488E-01
    0.13374370664034958972E-01
    0.13374370664023648575E-01
    0.13385038265675280530E-01
    0.13386125369965891710E-01
    0.13389954096344991799E-01
    0.13390350328634066657E-01
    0.13386934488011953404E-01
    0.13386946127555154201E-01
    0.13383226241002531970E-01
    0.13381685093709867057E-01
    0.13378169366458669484E-01
    0.13377738123319101587E-01
    0.13380848306707642664E-01
    0.13381267000217581670E-01
    0.13383660970091687883E-01
    0.13383902804819483232E-01
    0.13386946127832730774E-01
    0.13386934488226894316E-01
    0.13390350328836807259E-01
    0.13389954096495534572E-01
    0.13386125370083120853E-01
    0.13385038265725287404E-01
    0.13381267000262321923E-01
    0.13380848306812239551E-01
    0.13377738123436950027E-01
    0.13378169366618852115E-01
    0.13381685093905125797E-01
    0.13383226241262747430E-01
    0.13383902804991345756E-01
    0.13383660970235879834E-01
    0.13395673714642730712E-01
    0.13396338945577693225E-01
    0.13400469060315707212E-01
    0.13400469060285335673E-01
    0.13396338945520338062E-01
    0.13395673714508960980E-01
    0.13391370133842872212E-01
    0.13390291686356480677E-01
    0.13386453400631288108E-01
    0.13386453400656896096E-01
    0.13390291686410300473E-01
    0.13391370133970381326E-01
    0.13393206061359987785E-01
    0.13393206061343653629E-01
    0.13383809293236688387E-01
    0.13386469117132024365E-01
    0.13390205178047290963E-01
    0.13391860820576436883E-01
    0.13389832424959884072E-01
    0.13391734450293612049E-01
    0.13388868770918663925E-01
    0.13385733707582647342E-01
    0.13382314296112500160E-01
    0.13380541114152147072E-01
    0.13382278458186975395E-01
    0.13380774215537473079E-01
    0.13385462808342714694E-01
    0.13386464666164188744E-01
    0.13397429298373576476E-01
    0.13400552719881792668E-01
    0.13404763409264785351E-01
    0.13406672442973093656E-01
    0.13404451549692119466E-01
    0.13406623054477942447E-01
    0.13403420202571594139E-01
    0.13399846498720953403E-01
    0.13395930906151633233E-01
    0.13393851323961817462E-01
    0.13395814229191871023E-01
    0.13393980563749841722E-01
    0.13399479694112757452E-01
    0.13400645016132509482E-01
    0.13388576096504269108E-01
    0.13390721024361481109E-01
    0.13394818086470073465E-01
    0.13395991977418923030E-01
    0.13393118365795051231E-01
    0.13394229064007983493E-01
    0.13390701685512824970E-01
    0.13388095605885325448E-01
    0.13384307525698311073E-01
    0.13383029642117245939E-01
    0.13385616103092688386E-01
    0.13384896190445269223E-01
    0.13388917330283677323E-01
    0.13389633889375097617E-01
    0.13402210546656403642E-01
    0.13404819504587026785E-01
    0.13409395028266860375E-01
    0.13410821912119523860E-01
    0.13407751189301856179E-01
    0.13409129216277300423E-01
    0.13405261377927668240E-01
    0.13402216761506585002E-01
    0.13397929576231603493E-01
    0.13396346562809644323E-01
    0.13399161707037766586E-01
    0.13398113670478956766E-01
    0.13402945998312734005E-01
    0.13403825630509147784E-01
    0.13412790989863698776E-01
    0.13416244884703797113E-01
    0.13420787147166580999E-01
    0.13422862949288532144E-01
    0.13420510600411208676E-01
    0.13422858523363358912E-01
    0.13419432380785419057E-01
    0.13415555338790833076E-01
    0.13411285632724376585E-01
    0.13408980095151821349E-01
    0.13411109880423278604E-01
    0.13409033668243369383E-01
    0.13415122998069892168E-01
    0.13416402927066861661E-01
    0.13429332194019361763E-01
    0.13432972258262346893E-01
    0.13437694583169592505E-01
    0.13439844521766436750E-01
    0.13437423528701954167E-01
    0.13439848554185918408E-01
    0.13436319146418827103E-01
    0.13432283531967936438E-01
    0.13427812575624566149E-01
    0.13425369096030202384E-01
    0.13427602578549947820E-01
    0.13425379514614253426E-01
    0.13431819241735630868E-01
    0.13433161021901542098E-01
    0.13417598762125382966E-01
    0.13420539221919290662E-01
    0.13425453980487429481E-01
    0.13427047083817866824E-01
    0.13423835866432408739E-01
    0.13425386249552161144E-01
    0.13421288312542557775E-01
    0.13417941027837386112E-01
    0.13413294600832188774E-01
    0.13411487641957660355E-01
    0.13414475329951953270E-01
    0.13413186924124288063E-01
    0.13418611089307141970E-01
    0.13419604677559437284E-01
    0.13434190654176805108E-01
    0.13437319499812317922E-01
    0.13442429287853385755E-01
    0.13444095283574271360E-01
    0.13440797893888615025E-01
    0.13442417404520779628E-01
    0.13438202407940956842E-01
    0.13434698558273698230E-01
    0.13429841638267107223E-01
    0.13427900019073761226E-01
    0.13431002261213575988E-01
    0.13429571089340999399E-01
    0.13435348951770110376E-01
    0.13436403115978771267E-01
    0.13396433929762746953E-01
    0.13398102317182945115E-01
    0.13402538406158064077E-01
    0.13403265493066507039E-01
    0.13399595884555633857E-01
    0.13399958573136727322E-01
    0.13395794002966983360E-01
    0.13393693527243906438E-01
    0.13389552645101837278E-01
    0.13388746352292674180E-01
    0.13392137366346120245E-01
    0.13392153133860915798E-01
    0.13395550964590429224E-01
    0.13395999059860060065E-01
    0.13410092984320103049E-01
    0.13412227226681110170E-01
    0.13417147524032401601E-01
    0.13418128515642875273E-01
    0.13414256112036533966E-01
    0.13414885273524142228E-01
    0.13410374474019130450E-01
    0.13407834603044819360E-01
    0.13403190614694497282E-01
    0.13402079255839725175E-01
    0.13405702651604926509E-01
    0.13405390767308150712E-01
    0.13409602734529915691E-01
    0.13410214083082253045E-01
    0.13407091559818019519E-01
    0.13408339136622952556E-01
    0.13413080656526160661E-01
    0.13413411998374532436E-01
    0.13409024257383217460E-01
    0.13408709790547980803E-01
    0.13403957506996829266E-01
    0.13402318765280602647E-01
    0.13397852246890738781E-01
    0.13397477061060173928E-01
    0.13401598972272483687E-01
    0.13402274898706463893E-01
    0.13405116835866289285E-01
    0.13405323257994771619E-01
    0.13420786032419536327E-01
    0.13422502295787570870E-01
    0.13427735166020859925E-01
    0.13428322382659495585E-01
    0.13423725521495625396E-01
    0.13423678116491612883E-01
    0.13418572201348649697E-01
    0.13416491490996062391E-01
    0.13411516366358230273E-01
    0.13410835513898719876E-01
    0.13415194164957389839E-01
    0.13415542482930840201E-01
    0.13419203127008680690E-01
    0.13419573463163914084E-01
    0.13425525982292688815E-01
    0.13427995990111451022E-01
    0.13433266947228364452E-01
    0.13434416346775364740E-01
    0.13430392467857174207E-01
    0.13431192737053225528E-01
    0.13426440535102142707E-01
    0.13423595912334856939E-01
    0.13418584897139511011E-01
    0.13417249434352631135E-01
    0.13421052226670554877E-01
    0.13420500391413096516E-01
    0.13425310542503805095E-01
    0.13426036388457110796E-01
    0.13442204284091501323E-01
    0.13444871658678915829E-01
    0.13450361067681911378E-01
    0.13451587733242034023E-01
    0.13447455321706684381E-01
    0.13448321913714983075E-01
    0.13443430259460103712E-01
    0.13440424937662577218E-01
    0.13435187920766044484E-01
    0.13433717372099874751E-01
    0.13437648194193858864E-01
    0.13436953997902387203E-01
    0.13442131198081571503E-01
    0.13442918778333767110E-01
    0.13436280941103094858E-01
    0.13438340320550835882E-01
    0.13443938568571992334E-01
    0.13444699447123715716E-01
    0.13439938866203779075E-01
    0.13440064709465533027E-01
    0.13434702563460373601E-01
    0.13432311283547297351E-01
    0.13426958070478514640E-01
    0.13426051270763152828E-01
    0.13430597120689013318E-01
    0.13430704005549647453E-01
    0.13434973983958447066E-01
    0.13435460699356638337E-01
    0.13453078726825504555E-01
    0.13455352081579583651E-01
    0.13461200192156963507E-01
    0.13462049900936471497E-01
    0.13457154796635244567E-01
    0.13457351279374996436E-01
    0.13451818993141073655E-01
    0.13449254735133611000E-01
    0.13443652701869526420E-01
    0.13442606590650585038E-01
    0.13447296142646208289E-01
    0.13447256565986680579E-01
    0.13451918005715091803E-01
    0.13452470613314721284E-01
    0.13391734450943324972E-01
    0.13389832425561966692E-01
    0.13391860821198456680E-01
    0.13390205178623652837E-01
    0.13386469117649076044E-01
    0.13383809293688448544E-01
    0.13380774215952812717E-01
    0.13382278458647390088E-01
    0.13380541114593613380E-01
    0.13382314296589601157E-01
    0.13385733708121037855E-01
    0.13388868771520019696E-01
    0.13386464666705708698E-01
    0.13385462808860290260E-01
    0.13394229064616134176E-01
    0.13393118366344165804E-01
    0.13395991977975689469E-01
    0.13394818086974319415E-01
    0.13390721024811437154E-01
    0.13388576096880990332E-01
    0.13384896190795502954E-01
    0.13385616103499486246E-01
    0.13383029642517542054E-01
    0.13384307526142063746E-01
    0.13388095606384136510E-01
    0.13390701686081205382E-01
    0.13389633889865368635E-01
    0.13388917330745861434E-01
    0.13406623055423519397E-01
    0.13404451550581357802E-01
    0.13406672443888311211E-01
    0.13404763410126179640E-01
    0.13400552720669733561E-01
    0.13397429299082976029E-01
    0.13393980564411812201E-01
    0.13395814229907754972E-01
    0.13393851324652579146E-01
    0.13395930906886316381E-01
    0.13399846499531093552E-01
    0.13403420203457739462E-01
    0.13400645016947774005E-01
    0.13399479694899293220E-01
    0.13409129217181254418E-01
    0.13407751190137867994E-01
    0.13410821912968995395E-01
    0.13409395029055521179E-01
    0.13404819505307434893E-01
    0.13402210547290294151E-01
    0.13398113671075509087E-01
    0.13399161707699848087E-01
    0.13396346563459216733E-01
    0.13397929576932959134E-01
    0.13402216762277143966E-01
    0.13405261378781049841E-01
    0.13403825631272969082E-01
    0.13402945999043637190E-01
    0.13399958573654741772E-01
    0.13399595885001839429E-01
    0.13403265493506531791E-01
    0.13402538406537411672E-01
    0.13398102317514539242E-01
    0.13396433930013435312E-01
    0.13392153134095209285E-01
    0.13392137366649440114E-01
    0.13388746352603057843E-01
    0.13389552645463117728E-01
    0.13393693527654787837E-01
    0.13395794003456421711E-01
    0.13395999060249423954E-01
    0.13395550964947154290E-01
    0.13408709790921610749E-01
    0.13409024257671403602E-01
    0.13413411998641803016E-01
    0.13413080656724304246E-01
    0.13408339136779729925E-01
    0.13407091559884835863E-01
    0.13402274898768407399E-01
    0.13401598972417156155E-01
    0.13397477061226813200E-01
    0.13397852247117035193E-01
    0.13402318765549620094E-01
    0.13403957507353030446E-01
    0.13405323258228253255E-01
    0.13405116836062200281E-01
    0.13414885274337149876E-01
    0.13414256112768814522E-01
    0.13418128516374699596E-01
    0.13417147524695300156E-01
    0.13412227227282341041E-01
    0.13410092984827126292E-01
    0.13405390767788075840E-01
    0.13405702652162865621E-01
    0.13402079256398823082E-01
    0.13403190615312835995E-01
    0.13407834603726768649E-01
    0.13410374474792799773E-01
    0.13410214083744419547E-01
    0.13409602735154617370E-01
    0.13423678117159320092E-01
    0.13423725522069098956E-01
    0.13428322383217804192E-01
    0.13427735166501905684E-01
    0.13422502296213386502E-01
    0.13420786032742227853E-01
    0.13415542483237959115E-01
    0.13415194165356088274E-01
    0.13410835514313441952E-01
    0.13411516366840832079E-01
    0.13416491491535372307E-01
    0.13418572201988226630E-01
    0.13419573463669478425E-01
    0.13419203127471898696E-01
    0.13422858524657322113E-01
    0.13420510601640534346E-01
    0.13422862950549604988E-01
    0.13420787148366027791E-01
    0.13416244885816285687E-01
    0.13412790990884935691E-01
    0.13409033669206656125E-01
    0.13411109881448961614E-01
    0.13408980096146463218E-01
    0.13411285633770876277E-01
    0.13415555339926346634E-01
    0.13419432382009377491E-01
    0.13416402928209418197E-01
    0.13415122999179147217E-01
    0.13425386250804435470E-01
    0.13423835867608185229E-01
    0.13427047085012598637E-01
    0.13425453981613382978E-01
    0.13420539222963653175E-01
    0.13417598763070448173E-01
    0.13413186925021653578E-01
    0.13414475330923511173E-01
    0.13411487642911008866E-01
    0.13413294601845324530E-01
    0.13417941028933264708E-01
    0.13421288313733948511E-01
    0.13419604678650259161E-01
    0.13418611090360391472E-01
    0.13439848555877809827E-01
    0.13437423530321662007E-01
    0.13439844523423647576E-01
    0.13437694584757598273E-01
    0.13432972259750534938E-01
    0.13429332195404208861E-01
    0.13425379515931134058E-01
    0.13427602579937282512E-01
    0.13425369097380854613E-01
    0.13427812577034610106E-01
    0.13432283533479803458E-01
    0.13436319148030803280E-01
    0.13433161023422332536E-01
    0.13431819243218807297E-01
    0.13442417406170990846E-01
    0.13440797895454459701E-01
    0.13444095285164487166E-01
    0.13442429289367082909E-01
    0.13437319501231727650E-01
    0.13434190655484701607E-01
    0.13429571090591356855E-01
    0.13431002262546435158E-01
    0.13427900020383026422E-01
    0.13429841639643792447E-01
    0.13434698559745958044E-01
    0.13438202409520767777E-01
    0.13436403117447556430E-01
    0.13435348953196908292E-01
    0.13431192738213540427E-01
    0.13430392468928166461E-01
    0.13434416347851281873E-01
    0.13433266948227426396E-01
    0.13427995991035548626E-01
    0.13425525983109748776E-01
    0.13420500392192854719E-01
    0.13421052227537040580E-01
    0.13417249435214695027E-01
    0.13418584898068878705E-01
    0.13423595913341227273E-01
    0.13426440536212882679E-01
    0.13426036389445292554E-01
    0.13425310543449859094E-01
    0.13440064710479392163E-01
    0.13439938867114887069E-01
    0.13444699448025095381E-01
    0.13443938569388238710E-01
    0.13438340321298607519E-01
    0.13436280941735023395E-01
    0.13430704006155796265E-01
    0.13430597121395326798E-01
    0.13426051271479859037E-01
    0.13426958071271064693E-01
    0.13432311284409949315E-01
    0.13434702564435890143E-01