# vtk DataFile Version 3.0
LAPLACIEN  2D
ASCII
DATASET UNSTRUCTURED_GRID
FIELD FieldData 1
TIME 1 1 double
17.3000
 POINTS        7297  float
   1.5625000000000000E-002  0.96875000000000000        0.0000000000000000     
   3.1250000000000000E-002  0.96875000000000000        0.0000000000000000     
   3.1250000000000000E-002  0.98437500000000000        0.0000000000000000     
   9.3749999999999997E-003  0.97812500000000002        0.0000000000000000     
   2.0312500000000001E-002  0.97968750000000004        0.0000000000000000     
   2.1874999999999999E-002  0.99062499999999998        0.0000000000000000     
   1.0937499999999999E-002  0.98906249999999996        0.0000000000000000     
   4.6875000000000000E-002  0.96875000000000000        0.0000000000000000     
   6.2500000000000000E-002  0.96875000000000000        0.0000000000000000     
   6.2500000000000000E-002  0.98437500000000000        0.0000000000000000     
   4.0625000000000001E-002  0.97812500000000002        0.0000000000000000     
   5.1562499999999997E-002  0.97968750000000004        0.0000000000000000     
   5.3124999999999999E-002  0.99062499999999998        0.0000000000000000     
   4.2187500000000003E-002  0.98906249999999996        0.0000000000000000     
   1.5625000000000000E-002  0.93750000000000000        0.0000000000000000     
   3.1250000000000000E-002  0.93750000000000000        0.0000000000000000     
   3.1250000000000000E-002  0.95312500000000000        0.0000000000000000     
   9.3749999999999997E-003  0.94687500000000002        0.0000000000000000     
   2.0312500000000001E-002  0.94843750000000004        0.0000000000000000     
   2.1874999999999999E-002  0.95937499999999998        0.0000000000000000     
   1.0937499999999999E-002  0.95781249999999996        0.0000000000000000     
   4.6875000000000000E-002  0.93750000000000000        0.0000000000000000     
   6.2500000000000000E-002  0.93750000000000000        0.0000000000000000     
   6.2500000000000000E-002  0.95312500000000000        0.0000000000000000     
   4.0625000000000001E-002  0.94687500000000002        0.0000000000000000     
   5.1562499999999997E-002  0.94843750000000004        0.0000000000000000     
   5.3124999999999999E-002  0.95937499999999998        0.0000000000000000     
   4.2187500000000003E-002  0.95781249999999996        0.0000000000000000     
   7.8125000000000000E-002  0.96875000000000000        0.0000000000000000     
   9.3750000000000000E-002  0.96875000000000000        0.0000000000000000     
   9.3750000000000000E-002  0.98437500000000000        0.0000000000000000     
   7.1874999999999994E-002  0.97812500000000002        0.0000000000000000     
   8.2812499999999997E-002  0.97968750000000004        0.0000000000000000     
   8.4375000000000006E-002  0.99062499999999998        0.0000000000000000     
   7.3437500000000003E-002  0.98906249999999996        0.0000000000000000     
  0.10937500000000000       0.96875000000000000        0.0000000000000000     
  0.12500000000000000       0.96875000000000000        0.0000000000000000     
  0.12500000000000000       0.98437500000000000        0.0000000000000000     
  0.10312499999999999       0.97812500000000002        0.0000000000000000     
  0.11406250000000000       0.97968750000000004        0.0000000000000000     
  0.11562500000000001       0.99062499999999998        0.0000000000000000     
  0.10468750000000000       0.98906249999999996        0.0000000000000000     
   7.8125000000000000E-002  0.93750000000000000        0.0000000000000000     
   9.3750000000000000E-002  0.93750000000000000        0.0000000000000000     
   9.3750000000000000E-002  0.95312500000000000        0.0000000000000000     
   7.1874999999999994E-002  0.94687500000000002        0.0000000000000000     
   8.2812499999999997E-002  0.94843750000000004        0.0000000000000000     
   8.4375000000000006E-002  0.95937499999999998        0.0000000000000000     
   7.3437500000000003E-002  0.95781249999999996        0.0000000000000000     
  0.10937500000000000       0.93750000000000000        0.0000000000000000     
  0.12500000000000000       0.93750000000000000        0.0000000000000000     
  0.12500000000000000       0.95312500000000000        0.0000000000000000     
  0.10312499999999999       0.94687500000000002        0.0000000000000000     
  0.11406250000000000       0.94843750000000004        0.0000000000000000     
  0.11562500000000001       0.95937499999999998        0.0000000000000000     
  0.10468750000000000       0.95781249999999996        0.0000000000000000     
   1.5625000000000000E-002  0.90625000000000000        0.0000000000000000     
   3.1250000000000000E-002  0.90625000000000000        0.0000000000000000     
   3.1250000000000000E-002  0.92187500000000000        0.0000000000000000     
   9.3749999999999997E-003  0.91562500000000002        0.0000000000000000     
   2.0312500000000001E-002  0.91718750000000004        0.0000000000000000     
   2.1874999999999999E-002  0.92812499999999998        0.0000000000000000     
   1.0937499999999999E-002  0.92656249999999996        0.0000000000000000     
   4.6875000000000000E-002  0.90625000000000000        0.0000000000000000     
   6.2500000000000000E-002  0.90625000000000000        0.0000000000000000     
   6.2500000000000000E-002  0.92187500000000000        0.0000000000000000     
   4.0625000000000001E-002  0.91562500000000002        0.0000000000000000     
   5.1562499999999997E-002  0.91718750000000004        0.0000000000000000     
   5.3124999999999999E-002  0.92812499999999998        0.0000000000000000     
   4.2187500000000003E-002  0.92656249999999996        0.0000000000000000     
   1.5625000000000000E-002  0.87500000000000000        0.0000000000000000     
   3.1250000000000000E-002  0.87500000000000000        0.0000000000000000     
   3.1250000000000000E-002  0.89062500000000000        0.0000000000000000     
   9.3749999999999997E-003  0.88437500000000002        0.0000000000000000     
   2.0312500000000001E-002  0.88593750000000004        0.0000000000000000     
   2.1874999999999999E-002  0.89687499999999998        0.0000000000000000     
   1.0937499999999999E-002  0.89531249999999996        0.0000000000000000     
   4.6875000000000000E-002  0.87500000000000000        0.0000000000000000     
   6.2500000000000000E-002  0.87500000000000000        0.0000000000000000     
   6.2500000000000000E-002  0.89062500000000000        0.0000000000000000     
   4.0625000000000001E-002  0.88437500000000002        0.0000000000000000     
   5.1562499999999997E-002  0.88593750000000004        0.0000000000000000     
   5.3124999999999999E-002  0.89687499999999998        0.0000000000000000     
   4.2187500000000003E-002  0.89531249999999996        0.0000000000000000     
   7.8125000000000000E-002  0.90625000000000000        0.0000000000000000     
   9.3750000000000000E-002  0.90625000000000000        0.0000000000000000     
   9.3750000000000000E-002  0.92187500000000000        0.0000000000000000     
   7.1874999999999994E-002  0.91562500000000002        0.0000000000000000     
   8.2812499999999997E-002  0.91718750000000004        0.0000000000000000     
   8.4375000000000006E-002  0.92812499999999998        0.0000000000000000     
   7.3437500000000003E-002  0.92656249999999996        0.0000000000000000     
  0.10937500000000000       0.90625000000000000        0.0000000000000000     
  0.12500000000000000       0.90625000000000000        0.0000000000000000     
  0.12500000000000000       0.92187500000000000        0.0000000000000000     
  0.10312499999999999       0.91562500000000002        0.0000000000000000     
  0.11406250000000000       0.91718750000000004        0.0000000000000000     
  0.11562500000000001       0.92812499999999998        0.0000000000000000     
  0.10468750000000000       0.92656249999999996        0.0000000000000000     
   7.8125000000000000E-002  0.87500000000000000        0.0000000000000000     
   9.3750000000000000E-002  0.87500000000000000        0.0000000000000000     
   9.3750000000000000E-002  0.89062500000000000        0.0000000000000000     
   7.1874999999999994E-002  0.88437500000000002        0.0000000000000000     
   8.2812499999999997E-002  0.88593750000000004        0.0000000000000000     
   8.4375000000000006E-002  0.89687499999999998        0.0000000000000000     
   7.3437500000000003E-002  0.89531249999999996        0.0000000000000000     
  0.10937500000000000       0.87500000000000000        0.0000000000000000     
  0.12500000000000000       0.87500000000000000        0.0000000000000000     
  0.12500000000000000       0.89062500000000000        0.0000000000000000     
  0.10312499999999999       0.88437500000000002        0.0000000000000000     
  0.11406250000000000       0.88593750000000004        0.0000000000000000     
  0.11562500000000001       0.89687499999999998        0.0000000000000000     
  0.10468750000000000       0.89531249999999996        0.0000000000000000     
  0.14062500000000000       0.96875000000000000        0.0000000000000000     
  0.15625000000000000       0.96875000000000000        0.0000000000000000     
  0.15625000000000000       0.98437500000000000        0.0000000000000000     
  0.13437499999999999       0.97812500000000002        0.0000000000000000     
  0.14531250000000001       0.97968750000000004        0.0000000000000000     
  0.14687500000000001       0.99062499999999998        0.0000000000000000     
  0.13593749999999999       0.98906249999999996        0.0000000000000000     
  0.17187500000000000       0.96875000000000000        0.0000000000000000     
  0.18750000000000000       0.96875000000000000        0.0000000000000000     
  0.18750000000000000       0.98437500000000000        0.0000000000000000     
  0.16562499999999999       0.97812500000000002        0.0000000000000000     
  0.17656250000000001       0.97968750000000004        0.0000000000000000     
[...]
 CELL_DATA       14336
 SCALARS Tumor_cells float
 LOOKUP_TABLE default
    0.52590023337104066514E-01
    0.52590022954458102988E-01
    0.52590025992061577298E-01
    0.52590025992060855653E-01
    0.52590022954460760585E-01
    0.52590023337101721168E-01
    0.52590020932448612589E-01
    0.52590019507413120203E-01
    0.52590017968174612717E-01
    0.52590017968159159800E-01
    0.52590019507421072176E-01
    0.52590020932445316615E-01
    0.52590020710070052579E-01
    0.52590020710067533760E-01
    0.52590033337087532805E-01
    0.52590036001593967740E-01
    0.52590043235999542337E-01
    0.52590045240944162386E-01
    0.52590039814082563396E-01
    0.52590042410427105535E-01
    0.52590036725249096616E-01
    0.52590032000249253841E-01
    0.52590027009693798843E-01
    0.52590025232202748662E-01
    0.52590028332281997525E-01
    0.52590027952138712619E-01
    0.52590032822558634151E-01
    0.52590033887934414802E-01
    0.52590042410427827180E-01
    0.52590039814082369107E-01
    0.52590045240944544025E-01
    0.52590043235999521520E-01
    0.52590036001594737958E-01
    0.52590033337086748710E-01
    0.52590027952140405709E-01
    0.52590028332280484846E-01
    0.52590025232204913597E-01
    0.52590027009691911464E-01
    0.52590032000250440392E-01
    0.52590036725248978655E-01
    0.52590033887935080936E-01
    0.52590032822558523129E-01
    0.52590055854774678257E-01
    0.52590057023591922636E-01
    0.52590068355838612280E-01
    0.52590068355838494318E-01
    0.52590057023592012841E-01
    0.52590055854774282740E-01
    0.52590045816876131168E-01
    0.52590042957715160687E-01
    0.52590035499850841527E-01
    0.52590035499850064371E-01
    0.52590042957715722738E-01
    0.52590045816875929940E-01
    0.52590049115130745039E-01
    0.52590049115130578505E-01
    0.52590060094378332511E-01
    0.52590067313714468356E-01
    0.52590081460464559171E-01
    0.52590086733514097850E-01
    0.52590077372525627364E-01
    0.52590083707073485841E-01
    0.52590072528554403231E-01
    0.52590062159443812240E-01
    0.52590051439735663319E-01
    0.52590046913537281947E-01
    0.52590052629498784675E-01
    0.52590049881219805283E-01
    0.52590062375922327909E-01
    0.52590065225934179427E-01
    0.52590113742180255585E-01
    0.52590128326229543254E-01
    0.52590153376560248855E-01
    0.52590163567283985946E-01
    0.52590147750221041822E-01
    0.52590159486062139360E-01
    0.52590139680084239948E-01
    0.52590120855189138871E-01
    0.52590101291204886802E-01
    0.52590092406324298602E-01
    0.52590102452827747204E-01
    0.52590095814182363787E-01
    0.52590120475395407684E-01
    0.52590126013301180530E-01
    0.52590090997173571941E-01
    0.52590096645320473512E-01
    0.52590116553420919454E-01
    0.52590119209773869557E-01
    0.52590101507539885328E-01
    0.52590102521153668513E-01
    0.52590085068743561147E-01
    0.52590077367632236116E-01
    0.52590063101829655212E-01
    0.52590060954006208338E-01
    0.52590072900786356824E-01
    0.52590074238523562555E-01
    0.52590085172787619239E-01
    0.52590086537510558062E-01
    0.52590157648025118164E-01
    0.52590170669947290671E-01
    0.52590205001233250592E-01
    0.52590212113469529676E-01
    0.52590183728444504785E-01
    0.52590188262764514526E-01
    0.52590158751830907990E-01
    0.52590143220915042122E-01
    0.52590118009686138978E-01
    0.52590112303112265812E-01
    0.52590131259673579545E-01
    0.52590130191213529942E-01
    0.52590153448899813748E-01
    0.52590157108594721980E-01
    0.52590083707074422592E-01
    0.52590077372526300437E-01
    0.52590086733514888884E-01
    0.52590081460465190610E-01
    0.52590067313715134489E-01
    0.52590060094378540678E-01
    0.52590049881220471417E-01
    0.52590052629498937331E-01
    0.52590046913538024409E-01
    0.52590051439735871486E-01
    0.52590062159444575518E-01
    0.52590072528555117937E-01
    0.52590065225934866378E-01
    0.52590062375922848326E-01
    0.52590102521154397097E-01
    0.52590101507540377990E-01
    0.52590119209774424669E-01
    0.52590116553421321910E-01
    0.52590096645320841273E-01
    0.52590090997173641330E-01
    0.52590074238523784600E-01
    0.52590072900786453969E-01
    0.52590060954006673244E-01
    0.52590063101829870318E-01
    0.52590077367632798166E-01
    0.52590085068744116259E-01
    0.52590086537510995213E-01
    0.52590085172787931489E-01
    0.52590159486063804695E-01
    0.52590147750222505929E-01
    0.52590163567285540258E-01
    0.52590153376561608878E-01
    0.52590128326230736744E-01
    0.52590113742181150702E-01
    0.52590095814183272782E-01
    0.52590102452828711710E-01
    0.52590092406325297802E-01
    0.52590101291205927636E-01
    0.52590120855190450322E-01
    0.52590139680085738749E-01
    0.52590126013302471164E-01
    0.52590120475396580357E-01
    0.52590188262765999450E-01
    0.52590183728445767664E-01
    0.52590212113470827249E-01
    0.52590205001234367754E-01
    0.52590170669948241300E-01
    0.52590157648025791237E-01
    0.52590130191214175259E-01
    0.52590131259674349762E-01
    0.52590112303113091541E-01
    0.52590118009687027156E-01
    0.52590143220916159283E-01
    0.52590158751832240258E-01
    0.52590157108595804447E-01
    0.52590153448900792132E-01
    0.52590151576141878909E-01
    0.52590155969170174211E-01
    0.52590185530844574258E-01
    0.52590185530844490991E-01
    0.52590155969170028494E-01
    0.52590151576141490330E-01
    0.52590124644173438795E-01
    0.52590118405489452713E-01
    0.52590097750383278663E-01
    0.52590097750383285602E-01
    0.52590118405489653941E-01
    0.52590124644173757984E-01
    0.52590135473109346498E-01
    0.52590135473109270170E-01
    0.52590242957010445435E-01
    0.52590255992636981974E-01
    0.52590305831911085543E-01
    0.52590310488381038223E-01
    0.52590264094497747582E-01
    0.52590261640068275417E-01
    0.52590216971549419434E-01
    0.52590202539920499758E-01
    0.52590167222151144866E-01
    0.52590164069138772840E-01
    0.52590195586883332901E-01
    0.52590200350547317010E-01
    0.52590225800832113290E-01
    0.52590228005071244788E-01
    0.52590261640069475846E-01
    0.52590264094498684333E-01
    0.52590310488381995790E-01
    0.52590305831911800249E-01
    0.52590255992637516269E-01
    0.52590242957010681357E-01
    0.52590200350547497421E-01
    0.52590195586883742296E-01
    0.52590164069139272440E-01
    0.52590167222151783244E-01
    0.52590202539921332425E-01
    0.52590216971550501901E-01
    0.52590228005071987250E-01
    0.52590225800832730851E-01
    0.52590395412468626812E-01
    0.52590407786509502097E-01
    0.52590482996550315387E-01
    0.52590482996550169670E-01
    0.52590407786509210664E-01
    0.52590395412467988434E-01
    0.52590327101101466689E-01
    0.52590312402426266092E-01
    0.52590260312602367387E-01
    0.52590260312602492287E-01
    0.52590312402426543648E-01
    0.52590327101102084251E-01
    0.52590355981091602144E-01
    0.52590355981091518878E-01
    0.52590210249849098090E-01
    0.52590236526760050784E-01
    0.52590280012873920346E-01
    0.52590298291964605870E-01
    0.52590271224991026744E-01
    0.52590291981695472256E-01
    0.52590257730179640339E-01
    0.52590224759201782689E-01
    0.52590190636321233753E-01
    0.52590174861283513208E-01
    0.52590192027491343418E-01
    0.52590179644180688745E-01
    0.52590223512847422693E-01
    0.52590233385425344537E-01
    0.52590379566399919620E-01
    0.52590425567106753590E-01
    0.52590501358348619443E-01
    0.52590532944007874205E-01
    0.52590485611734405502E-01
    0.52590520977570782979E-01
    0.52590461943897576225E-01
    0.52590405105648441175E-01
    0.52590346005655451422E-01
    0.52590318661085169727E-01
    0.52590348280023818672E-01
    0.52590326419185026707E-01
    0.52590402993646687135E-01
    0.52590420114140390417E-01
    0.52590277881738402288E-01
    0.52590303445339249555E-01
    0.52590363143499435639E-01
    0.52590377815185003485E-01
    0.52590330010722649567E-01
    0.52590339816321080013E-01
    0.52590288842478127851E-01
    0.52590260620943407588E-01
    0.52590216904536045417E-01
    0.52590205668029424424E-01
    0.52590236732931540387E-01
    0.52590231795034941831E-01
    0.52590275822738591360E-01
    0.52590283207579115177E-01
    0.52590492254425996732E-01
    0.52590539532395126632E-01
    0.52590644540186665123E-01
    0.52590671605223009155E-01
    0.52590588171532517969E-01
    0.52590605714622616629E-01
    0.52590516783415301727E-01
    0.52590467070456767273E-01
    0.52590390856263463659E-01
    0.52590370481531582836E-01
    0.52590423605701978882E-01
    0.52590412778292607021E-01
    0.52590492365032485977E-01
    0.52590505845348085867E-01
    0.52590673942516451278E-01
    0.52590752226729160779E-01
    0.52590882761452864558E-01
    0.52590934705349132172E-01
    0.52590852090135344066E-01
    0.52590909899772865510E-01
    0.52590809967221416321E-01
    0.52590714098320778813E-01
    0.52590613464597882332E-01
    0.52590566832056345747E-01
    0.52590618294364829821E-01
    0.52590581536681613173E-01
    0.52590712002402041636E-01
    0.52590740657138854153E-01
    0.52591177082625131800E-01
    0.52591304519698692244E-01
    0.52591525537461318585E-01
    0.52591605710512447092E-01
    0.52591462400161818891E-01
    0.52591551672429577569E-01
    0.52591387449954972444E-01
    0.52591230892065285452E-01
    0.52591063613114830133E-01
    0.52590986702250583362E-01
    0.52591075375641706258E-01
    0.52591017008719861958E-01
    0.52591232121653043452E-01
    0.52591278017864749594E-01
    0.52590873977054267141E-01
    0.52590957703147318825E-01
    0.52591144068857426097E-01
    0.52591190091660723616E-01
    0.52591040336828653867E-01
    0.52591066725133854554E-01
    0.52590911076896527943E-01
    0.52590826913922639196E-01
    0.52590694114174003915E-01
    0.52590659228299849182E-01
    0.52590752682990356270E-01
    0.52590733536621830924E-01
    0.52590873501757950947E-01
    0.52590896475012034739E-01
    0.52591549791357390664E-01
    0.52591691109069201027E-01
    0.52592020533911217062E-01
    0.52592090938790247989E-01
    0.52591819331739647625E-01
    0.52591849737583261370E-01
    0.52591579101235512439E-01
    0.52591443694437141343E-01
    0.52591214778284552100E-01
    0.52591158690962439004E-01
    0.52591326194090438906E-01
    0.52591298707761927056E-01
    0.52591535789142156154E-01
    0.52591571773276613033E-01
    0.52590406592982807954E-01
    0.52590434909484347348E-01
    0.52590520283923906930E-01
    0.52590533435377576077E-01
    0.52590457306475803245E-01
    0.52590458352252338059E-01
    0.52590382118681180956E-01
    0.52590353368557593572E-01
    0.52590292501366125988E-01
    0.52590284036942970547E-01
    0.52590334597867230415E-01
    0.52590336950644127334E-01
    0.52590387685095052461E-01
    0.52590393702624443906E-01
    0.52590699004858326715E-01
    0.52590755743651157461E-01
    0.52590906392491351684E-01
    0.52590935458894240428E-01
    0.52590804325226059301E-01
    0.52590810735461228365E-01
    0.52590676893922813639E-01
    0.52590623198764091528E-01
    0.52590516193020686586E-01
    0.52590498414869867039E-01
    0.52590583265601224816E-01
    0.52590580838062117586E-01
    0.52590677877246201632E-01
    0.52590690833490369438E-01
    0.52590627587639438012E-01
    0.52590658990311622834E-01
    0.52590783718657461987E-01
    0.52590794024626956460E-01
    0.52590675867565210566E-01
    0.52590666283783657486E-01
    0.52590552760119174680E-01
    0.52590520216410675813E-01
    0.52590432191580077648E-01
    0.52590426265498146918E-01
    0.52590506671978051734E-01
    0.52590520183127917320E-01
    0.52590581836683199246E-01
    0.52590586287667356880E-01
    0.52591034870835988435E-01
    0.52591104838711794089E-01
    0.52591320105206985913E-01
    0.52591353400441104293E-01
    0.52591158028338545749E-01
    0.52591156163956931380E-01
    0.52590959190301718451E-01
    0.52590892386945038706E-01
    0.52590739063623867522E-01
    0.52590721492692518724E-01
    0.52590851160889462435E-01
    0.52590859797293512679E-01
    0.52590984057742463931E-01
    0.52590997876332187810E-01
    0.52591229868587711926E-01
    0.52591338467824849667E-01
    0.52591610715253485353E-01
    0.52591666774117945549E-01
    0.52591431039118133328E-01
    0.52591442521827208578E-01
    0.52591202623320211507E-01
    0.52591106636311731048E-01
    0.52590915922833450513E-01
    0.52590882617129276755E-01
    0.52591031263768600601E-01
    0.52591021411763333449E-01
    0.52591201725068204009E-01
    0.52591226308793107003E-01
    0.52592202464245625670E-01
    0.52592400785965685850E-01
    0.52592899112092146574E-01
    0.52592995291306850192E-01
    0.52592558839294506479E-01
    0.52592564991129936436E-01
    0.52592131315714871209E-01
    0.52591968928487851931E-01
    0.52591627496586544621E-01
    0.52591571013138188606E-01
    0.52591840764902524075E-01
    0.52591823463656504900E-01
    0.52592148696130450181E-01
    0.52592190607535518887E-01
    0.52591774871772210831E-01
    0.52591922885943657995E-01
    0.52592312253483319839E-01
    0.52592391180751291158E-01
    0.52592047624860631394E-01
    0.52592058551049064574E-01
    0.52591703084260539580E-01
    0.52591573148462064657E-01
    0.52591297024996250253E-01
    0.52591257184069387098E-01
    0.52591478080448034182E-01
    0.52591473866390833769E-01
    0.52591721172204890233E-01
    0.52591753361158399827E-01
    0.52593162011128735678E-01
    0.52593458733400405558E-01
    0.52594186332361521352E-01
    0.52594346288665536071E-01
    0.52593709144217966334E-01
    0.52593729950126628936E-01
    0.52593071628580720378E-01
    0.52592831566688057199E-01
    0.52592323652725203598E-01
    0.52592245502749102037E-01
    0.52592643225470622759E-01
    0.52592617025665193420E-01
    0.52593096102961811589E-01
    0.52593160377653831727E-01
    0.52590291981698247814E-01
    0.52590271224993573318E-01
    0.52590298291967263467E-01
    0.52590280012876362836E-01
    0.52590236526762215719E-01
    0.52590210249850936897E-01
    0.52590179644182374896E-01
    0.52590192027493209981E-01
    0.52590174861285324259E-01
    0.52590190636323190521E-01
    0.52590224759204044769E-01
    0.52590257730182235485E-01
    0.52590233385427599677E-01
    0.52590223512849566812E-01
    0.52590339816323730671E-01
    0.52590330010725071241E-01
    0.52590377815187563937E-01
    0.52590363143501746290E-01
    0.52590303445341247957E-01
    0.52590277881740053745E-01
    0.52590231795036385121E-01
    0.52590236732933233477E-01
    0.52590205668031062003E-01
    0.52590216904537877285E-01
    0.52590260620945530889E-01
    0.52590288842480556464E-01
    0.52590283207581231539E-01
    0.52590275822740596701E-01
    0.52590520977575293260E-01
    0.52590485611738568839E-01
    0.52590532944012238770E-01
    0.52590501358352671757E-01
    0.52590425567110368754E-01
    0.52590379566403097633E-01
    0.52590326419187885532E-01
    0.52590348280026968930E-01
    0.52590318661088181207E-01
    0.52590346005658698825E-01
    0.52590405105652153483E-01
    0.52590461943901795072E-01
    0.52590420114144116603E-01
    0.52590402993650260666E-01
    0.52590605714627036704E-01
    0.52590588171536674367E-01
    0.52590671605227470864E-01
    0.52590644540190856215E-01
    0.52590539532398748734E-01
    0.52590492254429126173E-01
    0.52590412778295368701E-01
    0.52590423605705059751E-01
    0.52590370481534476355E-01
    0.52590390856266627795E-01
    0.52590467070460389376E-01
    0.52590516783419360980E-01
    0.52590505845351770420E-01
    0.52590492365036010936E-01
    0.52590458352254829122E-01
    0.52590457306478002875E-01
    0.52590533435379893668E-01
    0.52590520283925953904E-01
    0.52590434909486040438E-01
    0.52590406592984105527E-01
    0.52590336950645223679E-01
    0.52590334597868632072E-01
    0.52590284036944351387E-01
    0.52590292501367728872E-01
    0.52590353368559494829E-01
    0.52590382118683484669E-01
    0.52590393702626303529E-01
    0.52590387685096773307E-01
    0.52590666283785808544E-01
    0.52590675867566924473E-01
    0.52590794024628684245E-01
    0.52590783718658773438E-01
    0.52590658990312608156E-01
    0.52590627587639902918E-01
    0.52590520183128222631E-01
    0.52590506671978828890E-01
    0.52590426265499000402E-01
    0.52590432191581264199E-01
    0.52590520216412160737E-01
    0.52590552760121173081E-01
    0.52590586287668689147E-01
    0.52590581836684330286E-01
    0.52590810735465925996E-01
    0.52590804325230423866E-01
    0.52590935458898958876E-01
    0.52590906392495674615E-01
    0.52590755743654807319E-01
    0.52590699004861372889E-01
    0.52590580838064698854E-01
    0.52590583265604201602E-01
    0.52590498414872649535E-01
    0.52590516193023802149E-01
    0.52590623198767783020E-01
    0.52590676893927074120E-01
    0.52590690833494144196E-01
    0.52590677877249761285E-01
    0.52591156163961760850E-01
    0.52591158028342813169E-01
    0.52591353400445642330E-01
    0.52591320105210968838E-01
    0.52591104838715048431E-01
    0.52591034870838437865E-01
    0.52590859797295504141E-01
    0.52590851160892050642E-01
    0.52590721492695016726E-01
    0.52590739063626816552E-01
    0.52590892386948639992E-01
    0.52590959190306103832E-01
    0.52590997876335754402E-01
    0.52590984057745725211E-01
    0.52590909899779922365E-01
    0.52590852090141942954E-01
    0.52590934705356078005E-01
    0.52590882761459400996E-01
    0.52590752226734968633E-01
    0.52590673942521634632E-01
    0.52590581536686269171E-01
    0.52590618294369909091E-01
    0.52590566832061182156E-01
    0.52590613464603051808E-01
    0.52590714098326662995E-01
    0.52590809967228042965E-01
    0.52590740657144786907E-01
    0.52590712002407731529E-01
    0.52591066725141154270E-01
    0.52591040336835613578E-01
    0.52591190091668342521E-01
    0.52591144068864656425E-01
    0.52590957703153556890E-01
    0.52590873977059797439E-01
    0.52590733536626639577E-01
    0.52590752682995567380E-01
    0.52590659228304678652E-01
    0.52590694114179201146E-01
    0.52590826913928585828E-01
    0.52590911076903099075E-01
    0.52590896475018217293E-01
    0.52590873501763904518E-01
    0.52591551672440665921E-01
    0.52591462400172282743E-01
    0.52591605710523590955E-01
    0.52591525537471831009E-01
    0.52591304519707969545E-01
    0.52591177082633472351E-01
    0.52591017008727258819E-01
    0.52591075375649720680E-01
    0.52590986702258160634E-01
    0.52591063613122983333E-01
    0.52591230892074569692E-01
    0.52591387449965429357E-01
    0.52591278017874144857E-01
    0.52591232121662077892E-01
    0.52591849737595078307E-01
    0.52591819331751214761E-01
    0.52592090938803119637E-01
    0.52592020533923575232E-01
    0.52591691109079762023E-01
    0.52591549791366855315E-01
    0.52591298707770066378E-01
    0.52591326194099126401E-01
    0.52591158690970370160E-01
    0.52591214778292989795E-01
    0.52591443694446841917E-01
    0.52591579101246142824E-01
    0.52591571773286834024E-01
    0.52591535789152078773E-01
    0.52591442521835542190E-01
    0.52591431039126092239E-01
    0.52591666774126744066E-01
    0.52591610715261763453E-01
    0.52591338467831857950E-01
    0.52591229868593880603E-01
    0.52591021411768489047E-01
    0.52591031263774269677E-01
    0.52590882617134453170E-01
    0.52590915922839057139E-01
    0.52591106636318350753E-01
    0.52591202623327684695E-01
    0.52591226308800018141E-01
    0.52591201725074830653E-01
    0.52592058551058543103E-01
    0.52592047624869450728E-01
    0.52592391180760998670E-01
    0.52592312253492187746E-01
    0.52591922885951034039E-01
    0.52591774871778365630E-01
    0.52591473866395919978E-01
    0.52591478080453918365E-01
    0.52591257184074820252E-01
    0.52591297025002370358E-01
    0.52591573148469371313E-01
    0.52591703084269011970E-01