# vtk DataFile Version 3.0
LAPLACIEN  2D
ASCII
DATASET UNSTRUCTURED_GRID
 POINTS        7297  float
   1.5625000000000000E-002  0.96875000000000000        0.0000000000000000     
   3.1250000000000000E-002  0.96875000000000000        0.0000000000000000     
   3.1250000000000000E-002  0.98437500000000000        0.0000000000000000     
   9.3749999999999997E-003  0.97812500000000002        0.0000000000000000     
   2.0312500000000001E-002  0.97968750000000004        0.0000000000000000     
   2.1874999999999999E-002  0.99062499999999998        0.0000000000000000     
   1.0937499999999999E-002  0.98906249999999996        0.0000000000000000     
   4.6875000000000000E-002  0.96875000000000000        0.0000000000000000     
   6.2500000000000000E-002  0.96875000000000000        0.0000000000000000     
   6.2500000000000000E-002  0.98437500000000000        0.0000000000000000     
   4.0625000000000001E-002  0.97812500000000002        0.0000000000000000     
   5.1562499999999997E-002  0.97968750000000004        0.0000000000000000     
   5.3124999999999999E-002  0.99062499999999998        0.0000000000000000     
   4.2187500000000003E-002  0.98906249999999996        0.0000000000000000     
   1.5625000000000000E-002  0.93750000000000000        0.0000000000000000     
   3.1250000000000000E-002  0.93750000000000000        0.0000000000000000     
   3.1250000000000000E-002  0.95312500000000000        0.0000000000000000     
   9.3749999999999997E-003  0.94687500000000002        0.0000000000000000     
   2.0312500000000001E-002  0.94843750000000004        0.0000000000000000     
   2.1874999999999999E-002  0.95937499999999998        0.0000000000000000     
   1.0937499999999999E-002  0.95781249999999996        0.0000000000000000     
   4.6875000000000000E-002  0.93750000000000000        0.0000000000000000     
   6.2500000000000000E-002  0.93750000000000000        0.0000000000000000     
   6.2500000000000000E-002  0.95312500000000000        0.0000000000000000     
   4.0625000000000001E-002  0.94687500000000002        0.0000000000000000     
   5.1562499999999997E-002  0.94843750000000004        0.0000000000000000     
   5.3124999999999999E-002  0.95937499999999998        0.0000000000000000     
   4.2187500000000003E-002  0.95781249999999996        0.0000000000000000     
   7.8125000000000000E-002  0.96875000000000000        0.0000000000000000     
   9.3750000000000000E-002  0.96875000000000000        0.0000000000000000     
   9.3750000000000000E-002  0.98437500000000000        0.0000000000000000     
   7.1874999999999994E-002  0.97812500000000002        0.0000000000000000     
   8.2812499999999997E-002  0.97968750000000004        0.0000000000000000     
   8.4375000000000006E-002  0.99062499999999998        0.0000000000000000     
   7.3437500000000003E-002  0.98906249999999996        0.0000000000000000     
  0.10937500000000000       0.96875000000000000        0.0000000000000000     
  0.12500000000000000       0.96875000000000000        0.0000000000000000     
  0.12500000000000000       0.98437500000000000        0.0000000000000000     
  0.10312499999999999       0.97812500000000002        0.0000000000000000     
  0.11406250000000000       0.97968750000000004        0.0000000000000000     
  0.11562500000000001       0.99062499999999998        0.0000000000000000     
  0.10468750000000000       0.98906249999999996        0.0000000000000000     
   7.8125000000000000E-002  0.93750000000000000        0.0000000000000000     
   9.3750000000000000E-002  0.93750000000000000        0.0000000000000000     
   9.3750000000000000E-002  0.95312500000000000        0.0000000000000000     
   7.1874999999999994E-002  0.94687500000000002        0.0000000000000000     
   8.2812499999999997E-002  0.94843750000000004        0.0000000000000000     
   8.4375000000000006E-002  0.95937499999999998        0.0000000000000000     
   7.3437500000000003E-002  0.95781249999999996        0.0000000000000000     
  0.10937500000000000       0.93750000000000000        0.0000000000000000     
  0.12500000000000000       0.93750000000000000        0.0000000000000000     
  0.12500000000000000       0.95312500000000000        0.0000000000000000     
  0.10312499999999999       0.94687500000000002        0.0000000000000000     
  0.11406250000000000       0.94843750000000004        0.0000000000000000     
  0.11562500000000001       0.95937499999999998        0.0000000000000000     
  0.10468750000000000       0.95781249999999996        0.0000000000000000     
   1.5625000000000000E-002  0.90625000000000000        0.0000000000000000     
   3.1250000000000000E-002  0.90625000000000000        0.0000000000000000     
   3.1250000000000000E-002  0.92187500000000000        0.0000000000000000     
   9.3749999999999997E-003  0.91562500000000002        0.0000000000000000     
   2.0312500000000001E-002  0.91718750000000004        0.0000000000000000     
   2.1874999999999999E-002  0.92812499999999998        0.0000000000000000     
   1.0937499999999999E-002  0.92656249999999996        0.0000000000000000     
   4.6875000000000000E-002  0.90625000000000000        0.0000000000000000     
   6.2500000000000000E-002  0.90625000000000000        0.0000000000000000     
   6.2500000000000000E-002  0.92187500000000000        0.0000000000000000     
   4.0625000000000001E-002  0.91562500000000002        0.0000000000000000     
   5.1562499999999997E-002  0.91718750000000004        0.0000000000000000     
   5.3124999999999999E-002  0.92812499999999998        0.0000000000000000     
   4.2187500000000003E-002  0.92656249999999996        0.0000000000000000     
   1.5625000000000000E-002  0.87500000000000000        0.0000000000000000     
   3.1250000000000000E-002  0.87500000000000000        0.0000000000000000     
   3.1250000000000000E-002  0.89062500000000000        0.0000000000000000     
   9.3749999999999997E-003  0.88437500000000002        0.0000000000000000     
   2.0312500000000001E-002  0.88593750000000004        0.0000000000000000     
   2.1874999999999999E-002  0.89687499999999998        0.0000000000000000     
   1.0937499999999999E-002  0.89531249999999996        0.0000000000000000     
   4.6875000000000000E-002  0.87500000000000000        0.0000000000000000     
   6.2500000000000000E-002  0.87500000000000000        0.0000000000000000     
   6.2500000000000000E-002  0.89062500000000000        0.0000000000000000     
   4.0625000000000001E-002  0.88437500000000002        0.0000000000000000     
   5.1562499999999997E-002  0.88593750000000004        0.0000000000000000     
   5.3124999999999999E-002  0.89687499999999998        0.0000000000000000     
   4.2187500000000003E-002  0.89531249999999996        0.0000000000000000     
   7.8125000000000000E-002  0.90625000000000000        0.0000000000000000     
   9.3750000000000000E-002  0.90625000000000000        0.0000000000000000     
   9.3750000000000000E-002  0.92187500000000000        0.0000000000000000     
   7.1874999999999994E-002  0.91562500000000002        0.0000000000000000     
   8.2812499999999997E-002  0.91718750000000004        0.0000000000000000     
   8.4375000000000006E-002  0.92812499999999998        0.0000000000000000     
   7.3437500000000003E-002  0.92656249999999996        0.0000000000000000     
  0.10937500000000000       0.90625000000000000        0.0000000000000000     
  0.12500000000000000       0.90625000000000000        0.0000000000000000     
  0.12500000000000000       0.92187500000000000        0.0000000000000000     
  0.10312499999999999       0.91562500000000002        0.0000000000000000     
  0.11406250000000000       0.91718750000000004        0.0000000000000000     
  0.11562500000000001       0.92812499999999998        0.0000000000000000     
  0.10468750000000000       0.92656249999999996        0.0000000000000000     
   7.8125000000000000E-002  0.87500000000000000        0.0000000000000000     
   9.3750000000000000E-002  0.87500000000000000        0.0000000000000000     
   9.3750000000000000E-002  0.89062500000000000        0.0000000000000000     
   7.1874999999999994E-002  0.88437500000000002        0.0000000000000000     
   8.2812499999999997E-002  0.88593750000000004        0.0000000000000000     
   8.4375000000000006E-002  0.89687499999999998        0.0000000000000000     
   7.3437500000000003E-002  0.89531249999999996        0.0000000000000000     
  0.10937500000000000       0.87500000000000000        0.0000000000000000     
  0.12500000000000000       0.87500000000000000        0.0000000000000000     
  0.12500000000000000       0.89062500000000000        0.0000000000000000     
  0.10312499999999999       0.88437500000000002        0.0000000000000000     
  0.11406250000000000       0.88593750000000004        0.0000000000000000     
  0.11562500000000001       0.89687499999999998        0.0000000000000000     
  0.10468750000000000       0.89531249999999996        0.0000000000000000     
  0.14062500000000000       0.96875000000000000        0.0000000000000000     
  0.15625000000000000       0.96875000000000000        0.0000000000000000     
  0.15625000000000000       0.98437500000000000        0.0000000000000000     
  0.13437499999999999       0.97812500000000002        0.0000000000000000     
  0.14531250000000001       0.97968750000000004        0.0000000000000000     
  0.14687500000000001       0.99062499999999998        0.0000000000000000     
  0.13593749999999999       0.98906249999999996        0.0000000000000000     
  0.17187500000000000       0.96875000000000000        0.0000000000000000     
  0.18750000000000000       0.96875000000000000        0.0000000000000000     
  0.18750000000000000       0.98437500000000000        0.0000000000000000     
  0.16562499999999999       0.97812500000000002        0.0000000000000000     
  0.17656250000000001       0.97968750000000004        0.0000000000000000     
  0.17812500000000001       0.99062499999999998        0.0000000000000000     
[...]
 CELL_DATA       14336
 SCALARS Tumor_cells float
 LOOKUP_TABLE default
    0.29288096330343334791E-15
    0.30025069553674325832E-14
    0.99239116739384350689E-15
    0.25426172263028246839E-14
   -0.11025609300078493071E-15
   -0.58206974396065966597E-16
    0.43330065681017490184E-15
    0.97431078344617821584E-15
   -0.32982961854858261698E-14
   -0.22994798078188663341E-14
   -0.79176148578265266862E-15
    0.89887725776771003101E-15
   -0.34477030484985987438E-14
   -0.26724439574403891065E-14
   -0.48602630201701518382E-15
    0.43505318300107701004E-14
    0.30658460076989758066E-15
    0.19528701548429781151E-14
    0.24148620746167863400E-14
    0.91045672006491418668E-15
    0.68873419671403094551E-15
   -0.43218255749255909599E-14
    0.34298759009931829606E-14
    0.23702539267323731515E-14
    0.32621943334978107056E-14
   -0.40944149234620739599E-14
    0.49285245573752406933E-15
   -0.11308925704945892153E-14
   -0.38540505351159896529E-14
    0.41812756843910725109E-15
    0.61830018600144994102E-14
   -0.13557439343630889385E-15
    0.22484112479092929444E-14
    0.20692139444981089741E-14
    0.29053729011392449005E-14
    0.34918391004204404999E-14
    0.16019725946434035163E-14
    0.28899469132118571518E-14
    0.34595442232454059443E-15
    0.21558253816034994784E-15
   -0.28984628443984876903E-14
   -0.21691743724812768844E-14
    0.52314830839587878133E-14
    0.15531253816454381229E-14
   -0.18928690225470489549E-14
    0.11919199491511456890E-14
   -0.23298810928860299775E-14
   -0.23300042177840408326E-14
   -0.25974214556250737039E-14
    0.50679358848193435764E-15
    0.25215930402224606131E-14
    0.30807243225011561795E-14
   -0.14905070773785891489E-14
    0.27443428983993903863E-14
    0.39696033068781254181E-14
    0.44137288030569246107E-14
   -0.91953541604971766853E-15
    0.10340898766516485586E-14
    0.12127855415767662491E-14
   -0.87790092966468033167E-15
    0.37716088262231785122E-15
   -0.57580968828784508875E-15
    0.47610424005981673045E-14
    0.24904782110791779087E-15
    0.26043452092045961652E-14
    0.91749063314455845477E-15
    0.29713721469039087058E-14
   -0.38133212724112754084E-15
   -0.11195210340180155987E-14
    0.17263020826874989124E-14
    0.38118987196658350784E-15
    0.30942376684358998362E-14
   -0.17680115418236229951E-14
    0.27772031338704632735E-14
   -0.31916088762028148649E-16
    0.71169312038332416289E-14
   -0.30030458312056446368E-14
    0.78984677639917566240E-15
    0.77098316263761301752E-15
    0.26622061336050977197E-14
    0.28755017107268926986E-14
    0.10888583845848931106E-14
   -0.29842497079590835008E-14
    0.50980855890882960788E-14
   -0.15974209589275945364E-14
   -0.21269349187316777028E-15
    0.56533012766741465930E-15
    0.11514631427641595453E-14
   -0.23482722662512258710E-14
   -0.41047539726935059689E-14
    0.19068272344203262409E-15
    0.21230763224558148646E-15
    0.13449004192578766832E-14
    0.10844540788319251335E-14
    0.29489379576310878998E-14
    0.23373703439300433931E-14
    0.82046617778957318388E-15
    0.15836504381804283517E-14
   -0.31978187765810091791E-14
    0.29113694673529530842E-14
    0.21023529342969768232E-14
   -0.15711915144646591900E-14
   -0.16103528762749286963E-14
    0.23985937375314960699E-15
   -0.22350914257658083557E-14
   -0.11489626519332221289E-14
   -0.89563848829076400379E-15
    0.53857919735505643639E-16
   -0.28213377287322392138E-15
    0.35725795156541126674E-14
    0.17745228667439026737E-15
    0.18191568301355909313E-14
    0.24620526622867992524E-15
    0.95829252631146880715E-15
    0.10305747561238251812E-15
   -0.13383537831258352101E-15
    0.25137591028455165520E-14
    0.97480729893229278919E-15
   -0.18972275909054852200E-14
    0.46445021200922273542E-14
    0.11562938451305152601E-14
    0.96020308706022221275E-15
    0.40531974658949533635E-14
    0.35236687019659665692E-14
    0.36487834726177302577E-14
   -0.23262378800099827357E-14
    0.51202482662220449804E-15
   -0.15573988620768355175E-14
   -0.18911302676877256011E-14
    0.17673165563709675995E-14
    0.39141179590410710971E-14
   -0.10309792363382534004E-14
    0.14237367231718773058E-14
    0.11869541490683818277E-14
    0.54213680135318449918E-14
   -0.42919767640086911266E-14
   -0.22302797472511709560E-15
   -0.21794443006308483045E-14
    0.94239800373305551832E-15
   -0.36160840346776819299E-14
    0.23247690322966110339E-14
   -0.13544859070268061184E-14
    0.59490366016281329311E-15
   -0.42922603051857254668E-14
    0.33366922183404060488E-14
    0.48315920385777387245E-15
   -0.15667906767657296412E-15
    0.16322984896474128933E-14
    0.36146514341699300001E-14
    0.74973492897809090366E-15
    0.12933592180799012853E-15
   -0.14080314008741384149E-14
    0.33495616359528454075E-14
   -0.78187137976032341873E-15
   -0.17183960772685373570E-14
   -0.32920482761736418475E-15
    0.49949052539146660471E-14
   -0.93543526695298997917E-15
   -0.34556726676840036957E-14
   -0.49851696027964840826E-14
    0.28128798035356742828E-14
   -0.26787790984060709234E-14
    0.34699581052667269186E-14
   -0.10788936038383469061E-14
   -0.23935660387687950887E-14
    0.13242734064630430286E-14
    0.40117021322637638663E-14
    0.12788711600106472561E-14
    0.11612103904713736952E-14
    0.30343712527785907766E-14
   -0.90351657118933853202E-15
    0.14360684352083712661E-14
   -0.13123330632903905149E-14
   -0.67575164921851495340E-16
   -0.80655668329761454055E-15
    0.57964791236513176729E-14
   -0.20439770930543424832E-15
   -0.20991791694117887015E-14
    0.29131593306579678892E-14
   -0.18801463832291467509E-14
    0.43531809011646404209E-14
    0.29110573739241784115E-14
   -0.87156430426290840747E-15
    0.32087667533164576930E-14
    0.14754600999922432289E-14
   -0.45012546238856748864E-16
   -0.22971363710760291052E-14
   -0.42860756840390228679E-15
   -0.37516315247022368644E-14
    0.57888932084932260654E-15
    0.17681037109492741914E-14
    0.62965146794198478060E-15
   -0.33881672240779591571E-15
    0.97086766910677532354E-15
    0.14014579507383229974E-14
   -0.32034984223046298975E-14
   -0.93679359927492453955E-15
   -0.27516579867344793152E-14
    0.87792299840288673355E-15
    0.11821929168522237659E-14
    0.23231187169387601802E-14
    0.14437703692654625436E-14
   -0.35171676074527822903E-15
   -0.41951218421642711349E-15
    0.11607976568713520867E-14
    0.33259343629412485514E-15
    0.35657858203257765479E-14
    0.27907669290132351407E-14
   -0.10068004725477338744E-15
   -0.24213855724037594587E-14
   -0.39874497391525116286E-15
    0.41073160990407938157E-14
   -0.92033852068076719267E-15
   -0.35966986002617806366E-15
    0.47914857367442440985E-14
   -0.23132622379864586061E-14
    0.32194290793367104690E-14
   -0.10657189546067880225E-14
    0.10388343723143066417E-14
    0.16557664297762324403E-14
    0.17723404946263589724E-15
    0.27281850255614437168E-14
   -0.24976650451118603988E-14
   -0.14659047631624449065E-14
    0.15667212748625955300E-14
    0.27548148955889625620E-14
   -0.26048633046831757954E-14
    0.45117759034989855137E-14
    0.16006503221236515488E-15
    0.20268406239506744820E-14
   -0.64840164230591472228E-15
   -0.29387858851843901476E-16
   -0.18473364163321413865E-15
    0.15061226227810175258E-14
   -0.48921930229632390143E-14
   -0.47715133642641247996E-14
   -0.19157998820156075653E-14
   -0.14013962821044761193E-14
   -0.19861225950376593746E-14
   -0.61857005427154651426E-15
    0.18695810715841822904E-14
    0.19608586129739917390E-14
    0.50800317093148468146E-15
   -0.15874358844393302919E-14
   -0.43118542895135018484E-15
    0.20754744208552109825E-14
    0.17660429932743678066E-14
   -0.13182606645672026326E-14
   -0.69598278644696684575E-16
    0.64048880056839873651E-16
   -0.17893501990097816977E-14
   -0.11562876819814390530E-14
   -0.77684483440387165311E-15
    0.52933682170706334537E-14
    0.14648237412282360409E-14
    0.14571238365468635434E-14
   -0.74570979537708052180E-15
   -0.13436307361143556326E-15
    0.13634462496824442228E-15
   -0.41452010434514954253E-14
   -0.11679519294651122953E-14
   -0.13117253769010848315E-15
    0.25087447344196201940E-14
   -0.26413626114207628601E-14
   -0.30611139676838888344E-14
   -0.17745185003793280694E-14
    0.56149465511210077203E-14
    0.53513342623111204176E-14
   -0.35770077753319090105E-14
    0.10222796793095474973E-14
   -0.99383520877832865390E-15
   -0.57580235320821691604E-15
   -0.57311427000072592808E-15
    0.39076957766216960191E-14
    0.43330164316682863978E-14
   -0.17582960095614851632E-14
   -0.35372919906731073736E-14
   -0.78864457860176859446E-15
   -0.46052742443363518429E-14
   -0.30456054506064926651E-14
   -0.15942076815811063671E-14
    0.27701480423111043140E-14
   -0.47030141386136644419E-14
    0.19972655384346169848E-14
    0.56873665549987092146E-14
   -0.17626854752092221618E-14
    0.54690350966072128476E-16
   -0.66411680244372021333E-15
   -0.11091648174159985232E-14
   -0.63277424688042179158E-16
    0.29754992397943203666E-14
   -0.27267949368984014393E-14
    0.57455239418682462734E-14
    0.48768228708403862507E-15
   -0.11873604569203205489E-15
   -0.54483328870195523483E-15
    0.61473229490610968926E-15
   -0.39945678018239830292E-14
   -0.18077381720528862598E-14
   -0.15489125023940403031E-14
   -0.27592757243922956001E-14
   -0.45220218905211004321E-17
    0.50882019477425393991E-14
    0.23950962579944833494E-14
   -0.34973055674561519897E-14
    0.17361831128242924093E-15
    0.26239659928096135575E-14
   -0.53109578284001642672E-14
    0.17493088416052359302E-14
   -0.21323787870902628577E-14
    0.19524963711487699543E-14
   -0.57174859337917751999E-15
    0.72027459900451603885E-15
   -0.10320054610195402119E-14
   -0.44423842951477854316E-16
   -0.10919333933353444910E-14
   -0.22505867593499675154E-14
    0.91568777397936416974E-15
   -0.97338111636490454103E-15
    0.40970637595267588642E-14
    0.28260061815356075251E-14
    0.11942052764695036980E-14
   -0.62592216027671921977E-15
   -0.48715723867264421678E-15
    0.63103575989080120831E-15
    0.38258469056293195069E-14
    0.36013451322511850118E-15
    0.18650643833290312583E-14
    0.17863919750157849716E-14
    0.30256954260309957206E-14
   -0.14546139731572227580E-14
    0.77891412591330629294E-15
   -0.42953905284814842438E-15
    0.84977943929695155918E-15
   -0.14124700784817469020E-14
    0.23309947554869251528E-14
   -0.12917780176568443041E-14
    0.29678192316229952426E-14
   -0.12608404154907189304E-14
   -0.30709093511079571703E-15
   -0.21460466339197796784E-14
    0.92408985337432158028E-15
    0.54409512844814207438E-15
    0.26468910827017426035E-14
    0.17872017340931416889E-14
    0.38729493775459957827E-14
   -0.40517106686146022800E-15
    0.20513987818712600963E-14
    0.25503407414137679255E-14
   -0.11728667033813342054E-14
   -0.14344600049232543270E-14
   -0.10856000174553728825E-14
   -0.91024074165927448803E-15
    0.16493784785039263477E-14
    0.61831724060155767784E-15
    0.17777862972350325850E-14
   -0.19309645630732755646E-14
   -0.40791624340349440130E-14
    0.69898380114431874636E-14
    0.17009315972256905015E-14
   -0.22288997667911986475E-14
    0.11389686566524716000E-14
   -0.29519623738273175544E-14
    0.13547397094638124787E-14
    0.48100474443188838869E-14
   -0.25868281584288150172E-16
   -0.43185709519783296449E-15
   -0.14340324558891068887E-14
    0.15664712741127357559E-15
    0.70266730399148879175E-15
    0.39053227979616903232E-14
   -0.74618687420551320789E-15
    0.32518348126396297110E-14
   -0.45352365895003703446E-15
    0.43865021375660321878E-14
   -0.17294210000609687166E-14
    0.13404106592594531786E-14
    0.20005645166508873642E-14
    0.43755300232802133345E-14
   -0.65718351121525296526E-15
   -0.11727509250863069116E-14
   -0.20693295952515126368E-14
   -0.15816719918874946282E-14
    0.12493117197563279337E-15
    0.11765880390622990010E-14
    0.25337001562289274582E-14
    0.14751641373029821244E-14
    0.48450342559629000740E-16
    0.29785935965288689298E-15
   -0.18730928359275731366E-14
    0.19471762372416047709E-14
   -0.52660490931356077276E-15
    0.44489024070233358595E-15
    0.52058540748267062235E-14
    0.52406149251583690270E-14
   -0.35463030745253442642E-14
    0.33521386377692622123E-14
    0.23217650769896736104E-14
    0.82517461500556789188E-17
    0.19634752715914063496E-14
    0.60588553881316289449E-15
    0.10034899296898603952E-14
   -0.31859414459047063052E-14
    0.29251691782189424982E-14
    0.35009823121309550141E-14
    0.11341486898667930842E-14
   -0.28469079244868534029E-16
   -0.46185491866678975132E-14
    0.19840928091580824287E-14
    0.17787117839642663949E-14
   -0.66266823243012871679E-15
    0.59649608296774713079E-15
    0.27209243994283054438E-14
    0.67317167176904754532E-15
   -0.62087398543373430494E-15
    0.45076366933331331798E-15
   -0.73835907166518656717E-15
   -0.47114892338370101308E-16
    0.29771777177355195598E-14
    0.27104507449053855603E-14
   -0.12066397616191475233E-14
   -0.79011412364638783467E-15
    0.19299841333938164833E-15
   -0.20055274818406125971E-14
   -0.35488748907149729647E-14
   -0.19832461514610689395E-14
   -0.13450879249478248485E-14
   -0.40017239587512205145E-14
    0.50557517002204186353E-14
   -0.12588764654710877175E-14
    0.15158453857392334803E-14
   -0.28599411333737236797E-14
    0.19952718089839312262E-14
   -0.12744748455664211564E-14
    0.34807722581749307978E-14
    0.30529685959322188658E-14
    0.28545549935628742039E-14
    0.34440507518333504975E-14
   -0.30424815511034584424E-14
   -0.20857760154031178531E-14
    0.48196362641386690465E-14
   -0.46414711313837305182E-15
    0.39418344827040546308E-14
    0.29114208972164929762E-14
   -0.73947508837123724641E-16
   -0.68897213178380417105E-15
    0.46799655395242332673E-15
   -0.14024075376881177803E-14
   -0.84233455608557781096E-15
    0.14062905065259122639E-15
    0.55239051478695749714E-14
   -0.16029412771018131271E-14
   -0.36947758344166117404E-14
    0.17101203634473223560E-14
   -0.46620983632525327411E-14
    0.19971455386421677779E-14
    0.22765724670546471783E-14
   -0.17117600718474211453E-14
   -0.21523269482233958701E-14
   -0.13116900563278536795E-14
    0.75490513454769926584E-15
    0.18608765887777588319E-14
    0.63532797838276654327E-16
   -0.17062303374646149114E-14
    0.13659771577145430301E-14
    0.21387671146047388464E-14
    0.39491727559624307483E-15
   -0.52520019509345220900E-15
    0.61999065262724471705E-16
    0.42508161719984645368E-14
   -0.15695276971855901248E-14
    0.14534351165407075682E-14
   -0.18075113611777028811E-14
   -0.15294363136505606636E-14
   -0.70673285005907505949E-15
    0.37028039419271554579E-15
   -0.22704858983808281732E-14
   -0.18850647339882249919E-14
   -0.62872614843521872860E-15
    0.18449359546254447963E-14
    0.18559214296317468417E-14
    0.24605985745428420379E-15
    0.22086345598427927666E-14
    0.37297381197981479291E-14
   -0.22398731124977825910E-14
   -0.92492211919050975348E-17
   -0.34665938127833170227E-15
    0.30143061315068889769E-15
    0.53183520351723216934E-14
   -0.17052786900780704203E-14
   -0.33150933898409669981E-14
   -0.32652124445235355216E-14
   -0.39719499793690424108E-14
   -0.73424699939840540191E-15
   -0.16870934868235700462E-14
    0.10413369707137254827E-14
   -0.18286027302437549379E-14
    0.11421945633864539396E-14
    0.14872507733448734976E-14
    0.10094924676691263652E-14
    0.55119215171797111925E-15
   -0.18730900088658712727E-15
   -0.55489221009744732341E-15
   -0.23831144677898604011E-14
    0.98847097596896306503E-15
   -0.70260226577516105810E-16
    0.44246899068068318043E-16
   -0.11384268259789058017E-14
   -0.12550213010664373839E-14
    0.15251472690114977673E-14
   -0.19661372469004382382E-14
   -0.68898561100818334828E-15
    0.33071174095183263219E-14
    0.41759744100477433291E-14
    0.33210853206795789667E-14
   -0.16941562990916045571E-14
   -0.28400808828987072936E-14
    0.27426453687615670193E-14
    0.19082369657045965343E-14
    0.22590619953964748905E-14
   -0.90101072578806227151E-15
   -0.22534191868400981214E-14
    0.12782020149262483835E-14
    0.48741726356951816980E-14
    0.22706267321300630630E-14
    0.50097115132887220971E-15
   -0.10836834635582053893E-16
    0.50872923051315719978E-15
    0.99934023252598955646E-15
   -0.93512029526127077500E-15
    0.59737498046627682008E-15
    0.25011761557017659779E-14
    0.18838719886927198421E-14
    0.25006693408969824635E-16
   -0.57983131489943478592E-15
    0.19077451569007398132E-14
    0.13062711205703363955E-14
    0.18802017644170772898E-14
    0.34733318904977195936E-14
    0.93081159071445391005E-15
    0.45358109534654971810E-15
    0.46196604478866792323E-14
   -0.29677223227196169122E-14
    0.13026357282267422820E-15
    0.27790004067308155736E-14
   -0.31704577919382381988E-14
   -0.35927955818277821701E-16
    0.28377720706126495769E-15
    0.39923329530190615928E-14
   -0.55786405118295482721E-15
   -0.80257861020405028337E-15
    0.20819061761727977721E-14
    0.90321069351192691740E-15
    0.20620247026930313733E-15
   -0.19627004122048840269E-14
    0.15029446014680274305E-14
   -0.19617675187862716062E-14
    0.17545249056758622651E-15
   -0.18650441579485203479E-14
    0.27568128136206560085E-14
   -0.12371861719984690501E-14
   -0.83235423646020612129E-15
    0.22261197823861362227E-14
    0.62916178519520424817E-16
    0.37458264532527569272E-14
    0.14014951297986107965E-14
   -0.11068395772232180269E-14
    0.28224005519522983788E-14
    0.66296719410791705465E-15
   -0.16272391506709742673E-14
    0.24830786045430783184E-14
    0.16098461786290763166E-14
   -0.10940657050747901582E-14
    0.36017178513763241152E-14
   -0.10627408870101864295E-15
    0.12336598358278868830E-14
   -0.11091389715007322415E-14
   -0.13354580793975752876E-14
   -0.30549963578152854262E-15
    0.22415989638240783463E-14
    0.14273987732229424120E-14
   -0.39815087601797082442E-15
    0.35142590939693774848E-14
   -0.23000555553785745040E-14
    0.26014456338841488498E-14
    0.59710166412917523927E-15
   -0.18919574757376316295E-14
    0.12576754679389150928E-14
    0.27167155060903127770E-14
    0.11063958147961849230E-14
    0.28851912800353446336E-15
   -0.40874945724378196643E-14
    0.58556250415971328782E-15
    0.85837391131005880955E-15
    0.19025031350182875002E-16
   -0.97779505091414299866E-15
    0.10390000765311609795E-14
    0.30840072510457817563E-14
   -0.23338252396165705774E-14
    0.21973154476179879617E-14
   -0.38307890248742487193E-14
   -0.32299556286381711057E-15
   -0.18861023220593975153E-15
   -0.96333982564339189514E-16
   -0.20401871236964778101E-15
   -0.38407253955016591651E-14
    0.49132271240995001809E-15
   -0.17372603213882031978E-14
    0.48542917579028289794E-14
   -0.44848244976689098629E-14
    0.35322674762351906811E-14
   -0.16266525883838992115E-15
    0.40727401630602825022E-14
   -0.23529579613100785128E-14
   -0.18332559388422480881E-14
    0.35590893066337087898E-16
    0.13496583458491046614E-14
    0.10716915616602788468E-14
   -0.27050581540717723768E-14
    0.37551731989097777166E-14
    0.32459340022477747814E-15
   -0.65536428821941292477E-15
   -0.31477688045939339355E-14
    0.87364059715527707666E-15
    0.21107616627140851186E-14
    0.92538727937013354869E-15
   -0.62747841148958611126E-15
   -0.11115834339346240030E-15
    0.10157741751964241708E-14
   -0.20132116436845443938E-14
    0.70292988690577394324E-15
    0.87254410719629961965E-15
    0.25123004339155076924E-14
    0.16993968315976371393E-14
    0.14307486802428816624E-14
   -0.13425608983140749744E-14
   -0.42125623586378970784E-14
    0.18847878285229557750E-14
    0.11858918167807681947E-15
   -0.91398087631955165060E-15
   -0.33650027194168021877E-14
    0.13089410154294126279E-14