# vtk DataFile Version 3.0
LAPLACIEN  2D
ASCII
DATASET UNSTRUCTURED_GRID
FIELD FieldData 1
TIME 1 1 double
16.7000
 POINTS        7297  float
   1.5625000000000000E-002  0.96875000000000000        0.0000000000000000     
   3.1250000000000000E-002  0.96875000000000000        0.0000000000000000     
   3.1250000000000000E-002  0.98437500000000000        0.0000000000000000     
   9.3749999999999997E-003  0.97812500000000002        0.0000000000000000     
   2.0312500000000001E-002  0.97968750000000004        0.0000000000000000     
   2.1874999999999999E-002  0.99062499999999998        0.0000000000000000     
   1.0937499999999999E-002  0.98906249999999996        0.0000000000000000     
   4.6875000000000000E-002  0.96875000000000000        0.0000000000000000     
   6.2500000000000000E-002  0.96875000000000000        0.0000000000000000     
   6.2500000000000000E-002  0.98437500000000000        0.0000000000000000     
   4.0625000000000001E-002  0.97812500000000002        0.0000000000000000     
   5.1562499999999997E-002  0.97968750000000004        0.0000000000000000     
   5.3124999999999999E-002  0.99062499999999998        0.0000000000000000     
   4.2187500000000003E-002  0.98906249999999996        0.0000000000000000     
   1.5625000000000000E-002  0.93750000000000000        0.0000000000000000     
   3.1250000000000000E-002  0.93750000000000000        0.0000000000000000     
   3.1250000000000000E-002  0.95312500000000000        0.0000000000000000     
   9.3749999999999997E-003  0.94687500000000002        0.0000000000000000     
   2.0312500000000001E-002  0.94843750000000004        0.0000000000000000     
   2.1874999999999999E-002  0.95937499999999998        0.0000000000000000     
   1.0937499999999999E-002  0.95781249999999996        0.0000000000000000     
   4.6875000000000000E-002  0.93750000000000000        0.0000000000000000     
   6.2500000000000000E-002  0.93750000000000000        0.0000000000000000     
   6.2500000000000000E-002  0.95312500000000000        0.0000000000000000     
   4.0625000000000001E-002  0.94687500000000002        0.0000000000000000     
   5.1562499999999997E-002  0.94843750000000004        0.0000000000000000     
   5.3124999999999999E-002  0.95937499999999998        0.0000000000000000     
   4.2187500000000003E-002  0.95781249999999996        0.0000000000000000     
   7.8125000000000000E-002  0.96875000000000000        0.0000000000000000     
   9.3750000000000000E-002  0.96875000000000000        0.0000000000000000     
   9.3750000000000000E-002  0.98437500000000000        0.0000000000000000     
   7.1874999999999994E-002  0.97812500000000002        0.0000000000000000     
   8.2812499999999997E-002  0.97968750000000004        0.0000000000000000     
   8.4375000000000006E-002  0.99062499999999998        0.0000000000000000     
   7.3437500000000003E-002  0.98906249999999996        0.0000000000000000     
  0.10937500000000000       0.96875000000000000        0.0000000000000000     
  0.12500000000000000       0.96875000000000000        0.0000000000000000     
  0.12500000000000000       0.98437500000000000        0.0000000000000000     
  0.10312499999999999       0.97812500000000002        0.0000000000000000     
  0.11406250000000000       0.97968750000000004        0.0000000000000000     
  0.11562500000000001       0.99062499999999998        0.0000000000000000     
  0.10468750000000000       0.98906249999999996        0.0000000000000000     
   7.8125000000000000E-002  0.93750000000000000        0.0000000000000000     
   9.3750000000000000E-002  0.93750000000000000        0.0000000000000000     
   9.3750000000000000E-002  0.95312500000000000        0.0000000000000000     
   7.1874999999999994E-002  0.94687500000000002        0.0000000000000000     
   8.2812499999999997E-002  0.94843750000000004        0.0000000000000000     
   8.4375000000000006E-002  0.95937499999999998        0.0000000000000000     
   7.3437500000000003E-002  0.95781249999999996        0.0000000000000000     
  0.10937500000000000       0.93750000000000000        0.0000000000000000     
  0.12500000000000000       0.93750000000000000        0.0000000000000000     
  0.12500000000000000       0.95312500000000000        0.0000000000000000     
  0.10312499999999999       0.94687500000000002        0.0000000000000000     
  0.11406250000000000       0.94843750000000004        0.0000000000000000     
  0.11562500000000001       0.95937499999999998        0.0000000000000000     
  0.10468750000000000       0.95781249999999996        0.0000000000000000     
   1.5625000000000000E-002  0.90625000000000000        0.0000000000000000     
   3.1250000000000000E-002  0.90625000000000000        0.0000000000000000     
   3.1250000000000000E-002  0.92187500000000000        0.0000000000000000     
   9.3749999999999997E-003  0.91562500000000002        0.0000000000000000     
   2.0312500000000001E-002  0.91718750000000004        0.0000000000000000     
   2.1874999999999999E-002  0.92812499999999998        0.0000000000000000     
   1.0937499999999999E-002  0.92656249999999996        0.0000000000000000     
   4.6875000000000000E-002  0.90625000000000000        0.0000000000000000     
   6.2500000000000000E-002  0.90625000000000000        0.0000000000000000     
   6.2500000000000000E-002  0.92187500000000000        0.0000000000000000     
   4.0625000000000001E-002  0.91562500000000002        0.0000000000000000     
   5.1562499999999997E-002  0.91718750000000004        0.0000000000000000     
   5.3124999999999999E-002  0.92812499999999998        0.0000000000000000     
   4.2187500000000003E-002  0.92656249999999996        0.0000000000000000     
   1.5625000000000000E-002  0.87500000000000000        0.0000000000000000     
   3.1250000000000000E-002  0.87500000000000000        0.0000000000000000     
   3.1250000000000000E-002  0.89062500000000000        0.0000000000000000     
   9.3749999999999997E-003  0.88437500000000002        0.0000000000000000     
   2.0312500000000001E-002  0.88593750000000004        0.0000000000000000     
   2.1874999999999999E-002  0.89687499999999998        0.0000000000000000     
   1.0937499999999999E-002  0.89531249999999996        0.0000000000000000     
   4.6875000000000000E-002  0.87500000000000000        0.0000000000000000     
   6.2500000000000000E-002  0.87500000000000000        0.0000000000000000     
   6.2500000000000000E-002  0.89062500000000000        0.0000000000000000     
   4.0625000000000001E-002  0.88437500000000002        0.0000000000000000     
   5.1562499999999997E-002  0.88593750000000004        0.0000000000000000     
   5.3124999999999999E-002  0.89687499999999998        0.0000000000000000     
   4.2187500000000003E-002  0.89531249999999996        0.0000000000000000     
   7.8125000000000000E-002  0.90625000000000000        0.0000000000000000     
   9.3750000000000000E-002  0.90625000000000000        0.0000000000000000     
   9.3750000000000000E-002  0.92187500000000000        0.0000000000000000     
   7.1874999999999994E-002  0.91562500000000002        0.0000000000000000     
   8.2812499999999997E-002  0.91718750000000004        0.0000000000000000     
   8.4375000000000006E-002  0.92812499999999998        0.0000000000000000     
   7.3437500000000003E-002  0.92656249999999996        0.0000000000000000     
  0.10937500000000000       0.90625000000000000        0.0000000000000000     
  0.12500000000000000       0.90625000000000000        0.0000000000000000     
  0.12500000000000000       0.92187500000000000        0.0000000000000000     
  0.10312499999999999       0.91562500000000002        0.0000000000000000     
  0.11406250000000000       0.91718750000000004        0.0000000000000000     
  0.11562500000000001       0.92812499999999998        0.0000000000000000     
  0.10468750000000000       0.92656249999999996        0.0000000000000000     
   7.8125000000000000E-002  0.87500000000000000        0.0000000000000000     
   9.3750000000000000E-002  0.87500000000000000        0.0000000000000000     
   9.3750000000000000E-002  0.89062500000000000        0.0000000000000000     
   7.1874999999999994E-002  0.88437500000000002        0.0000000000000000     
   8.2812499999999997E-002  0.88593750000000004        0.0000000000000000     
   8.4375000000000006E-002  0.89687499999999998        0.0000000000000000     
   7.3437500000000003E-002  0.89531249999999996        0.0000000000000000     
  0.10937500000000000       0.87500000000000000        0.0000000000000000     
  0.12500000000000000       0.87500000000000000        0.0000000000000000     
  0.12500000000000000       0.89062500000000000        0.0000000000000000     
  0.10312499999999999       0.88437500000000002        0.0000000000000000     
  0.11406250000000000       0.88593750000000004        0.0000000000000000     
  0.11562500000000001       0.89687499999999998        0.0000000000000000     
  0.10468750000000000       0.89531249999999996        0.0000000000000000     
  0.14062500000000000       0.96875000000000000        0.0000000000000000     
  0.15625000000000000       0.96875000000000000        0.0000000000000000     
  0.15625000000000000       0.98437500000000000        0.0000000000000000     
  0.13437499999999999       0.97812500000000002        0.0000000000000000     
  0.14531250000000001       0.97968750000000004        0.0000000000000000     
  0.14687500000000001       0.99062499999999998        0.0000000000000000     
  0.13593749999999999       0.98906249999999996        0.0000000000000000     
  0.17187500000000000       0.96875000000000000        0.0000000000000000     
  0.18750000000000000       0.96875000000000000        0.0000000000000000     
  0.18750000000000000       0.98437500000000000        0.0000000000000000     
  0.16562499999999999       0.97812500000000002        0.0000000000000000     
  0.17656250000000001       0.97968750000000004        0.0000000000000000     
[...]
 CELL_DATA       14336
 SCALARS Tumor_cells float
 LOOKUP_TABLE default
    0.49824693060411241741E-01
    0.49824692695447543589E-01
    0.49824695591018049179E-01
    0.49824695591017396923E-01
    0.49824692695449930568E-01
    0.49824693060409069867E-01
    0.49824690768157611775E-01
    0.49824689409657944850E-01
    0.49824687942486421688E-01
    0.49824687942472509206E-01
    0.49824689409665133544E-01
    0.49824690768154683562E-01
    0.49824690555968220718E-01
    0.49824690555965944760E-01
    0.49824702592120954925E-01
    0.49824705131938734626E-01
    0.49824712027412572379E-01
    0.49824713938642531397E-01
    0.49824708766073512456E-01
    0.49824711240817304292E-01
    0.49824705822127397792E-01
    0.49824701318130971972E-01
    0.49824696561175968457E-01
    0.49824694866784813296E-01
    0.49824697821770416728E-01
    0.49824697459381409037E-01
    0.49824702101806103705E-01
    0.49824703117337415526E-01
    0.49824711240818053692E-01
    0.49824708766073443067E-01
    0.49824713938642996303E-01
    0.49824712027412627890E-01
    0.49824705131939490965E-01
    0.49824702592120281852E-01
    0.49824697459382970288E-01
    0.49824697821769091399E-01
    0.49824694866786797820E-01
    0.49824696561174337817E-01
    0.49824701318132137706E-01
    0.49824705822127397792E-01
    0.49824703117338109415E-01
    0.49824702101806103705E-01
    0.49824724054539415441E-01
    0.49824725168286773669E-01
    0.49824735968804628738E-01
    0.49824735968804510777E-01
    0.49824725168286815302E-01
    0.49824724054538971352E-01
    0.49824714487391119633E-01
    0.49824711761968738799E-01
    0.49824704653595286441E-01
    0.49824704653594599491E-01
    0.49824711761969273094E-01
    0.49824714487391008610E-01
    0.49824717630654026534E-01
    0.49824717630653873879E-01
    0.49824728095528701688E-01
    0.49824734976368231787E-01
    0.49824748459296901160E-01
    0.49824753485066881897E-01
    0.49824744563461587088E-01
    0.49824750601035312780E-01
    0.49824739946999700713E-01
    0.49824730064207845004E-01
    0.49824719847064581624E-01
    0.49824715533386243482E-01
    0.49824720980922249103E-01
    0.49824718361447584147E-01
    0.49824730270461470294E-01
    0.49824732986648370692E-01
    0.49824779225299417607E-01
    0.49824793124495767027E-01
    0.49824816997712843836E-01
    0.49824826709626658661E-01
    0.49824811636134128112E-01
    0.49824822820932965217E-01
    0.49824803945602048894E-01
    0.49824786004896801095E-01
    0.49824767359703717173E-01
    0.49824758891960252427E-01
    0.49824768466519848975E-01
    0.49824762139432342278E-01
    0.49824785642711963418E-01
    0.49824790920529438143E-01
    0.49824757547115960943E-01
    0.49824762930020839724E-01
    0.49824781902918703624E-01
    0.49824784434642041542E-01
    0.49824767564294270006E-01
    0.49824768530846233472E-01
    0.49824751898059023436E-01
    0.49824744558085068413E-01
    0.49824730961856945888E-01
    0.49824728914642450739E-01
    0.49824740300561179418E-01
    0.49824741575371131463E-01
    0.49824751996424450351E-01
    0.49824753297202366287E-01
    0.49824821065988719737E-01
    0.49824833475865283605E-01
    0.49824866192565799017E-01
    0.49824872970580837139E-01
    0.49824845921123905867E-01
    0.49824850243093542213E-01
    0.49824822119908240836E-01
    0.49824807318533739786E-01
    0.49824783292104712906E-01
    0.49824777853412619000E-01
    0.49824795918706310527E-01
    0.49824794900066464443E-01
    0.49824817064983761838E-01
    0.49824820552809651053E-01
    0.49824750601036457698E-01
    0.49824744563462440572E-01
    0.49824753485067860281E-01
    0.49824748459297664438E-01
    0.49824734976369015882E-01
    0.49824728095529006999E-01
    0.49824718361448312731E-01
    0.49824720980922526659E-01
    0.49824715533387027577E-01
    0.49824719847064900813E-01
    0.49824730064208740121E-01
    0.49824739947000595830E-01
    0.49824732986649175603E-01
    0.49824730270462122550E-01
    0.49824768530847142467E-01
    0.49824767564294894506E-01
    0.49824784434642707676E-01
    0.49824781902919182408E-01
    0.49824762930021235241E-01
    0.49824757547116037271E-01
    0.49824741575371360447E-01
    0.49824740300561359829E-01
    0.49824728914642957278E-01
    0.49824730961857223444E-01
    0.49824744558085720669E-01
    0.49824751898059731203E-01
    0.49824753297202907520E-01
    0.49824751996424852807E-01
    0.49824822820934970558E-01
    0.49824811636135918347E-01
    0.49824826709628546040E-01
    0.49824816997714529987E-01
    0.49824793124497258889E-01
    0.49824779225300604157E-01
    0.49824762139433473318E-01
    0.49824768466521063282E-01
    0.49824758891961487550E-01
    0.49824767359705028624E-01
    0.49824786004898397040E-01
    0.49824803945603859945E-01
    0.49824790920531027150E-01
    0.49824785642713434464E-01
    0.49824850243095339386E-01
    0.49824845921125460180E-01
    0.49824872970582433085E-01
    0.49824866192567179857E-01
    0.49824833475866484034E-01
    0.49824821065989573221E-01
    0.49824794900067269354E-01
    0.49824795918707295850E-01
    0.49824777853413659834E-01
    0.49824783292105857824E-01
    0.49824807318535134504E-01
    0.49824822119909878415E-01
    0.49824820552811018015E-01
    0.49824817064984996962E-01
    0.49824815279171853766E-01
    0.49824819465332577384E-01
    0.49824847636750588253E-01
    0.49824847636750484170E-01
    0.49824819465332410851E-01
    0.49824815279171381921E-01
    0.49824789613277457867E-01
    0.49824783667627534078E-01
    0.49824763983107062115E-01
    0.49824763983107089871E-01
    0.49824783667627749184E-01
    0.49824789613277860323E-01
    0.49824799932894320298E-01
    0.49824799932894264787E-01
    0.49824902360656703193E-01
    0.49824914782805262981E-01
    0.49824962275947244639E-01
    0.49824966713357350667E-01
    0.49824922503804144891E-01
    0.49824920165560601659E-01
    0.49824877599240778581E-01
    0.49824863846139481882E-01
    0.49824830189683290416E-01
    0.49824827184816948555E-01
    0.49824857219783566520E-01
    0.49824861759203836753E-01
    0.49824886012148163206E-01
    0.49824888112732383660E-01
    0.49824920165562044949E-01
    0.49824922503805289808E-01
    0.49824966713358502524E-01
    0.49824962275948098123E-01
    0.49824914782805901359E-01
    0.49824902360656973810E-01
    0.49824861759204044920E-01
    0.49824857219784066120E-01
    0.49824827184817531422E-01
    0.49824830189684081450E-01
    0.49824863846140488022E-01
    0.49824877599242117787E-01
    0.49824888112733278778E-01
    0.49824886012148884851E-01
    0.49825047637465598449E-01
    0.49825059428201971812E-01
    0.49825131095280882076E-01
    0.49825131095280701665E-01
    0.49825059428201645684E-01
    0.49825047637464814354E-01
    0.49824982543324604356E-01
    0.49824968536484624815E-01
    0.49824918899221727620E-01
    0.49824918899221873336E-01
    0.49824968536484944004E-01
    0.49824982543325353757E-01
    0.49825010062814624467E-01
    0.49825010062814527323E-01
    0.49824871197008610557E-01
    0.49824896238265053983E-01
    0.49824937678543679276E-01
    0.49824955097655908298E-01
    0.49824929304717525957E-01
    0.49824949085362883749E-01
    0.49824916445346277560E-01
    0.49824885025109032222E-01
    0.49824852506873511249E-01
    0.49824837473416504208E-01
    0.49824853832173679469E-01
    0.49824842030882693367E-01
    0.49824883836961389449E-01
    0.49824893245266468900E-01
    0.49825032546164008118E-01
    0.49825076381713850893E-01
    0.49825148603887071952E-01
    0.49825178702266076369E-01
    0.49825133599825384423E-01
    0.49825167300934287973E-01
    0.49825111047113283813E-01
    0.49825056884878655972E-01
    0.49825000566998838003E-01
    0.49824974509341292406E-01
    0.49825002733645255837E-01
    0.49824981901450224320E-01
    0.49825054871751095487E-01
    0.49825071186293395931E-01
    0.49824935643806259056E-01
    0.49824960004804692837E-01
    0.49825016892573556482E-01
    0.49825030873876248461E-01
    0.49824985321053012755E-01
    0.49824994666246485986E-01
    0.49824946091902459766E-01
    0.49824919197884010025E-01
    0.49824877538303551094E-01
    0.49824866829983570360E-01
    0.49824896432602773511E-01
    0.49824891726379126611E-01
    0.49824933683121845618E-01
    0.49824940720668071947E-01
    0.49825139923188280222E-01
    0.49825184975009935429E-01
    0.49825285035806791967E-01
    0.49825310826512023143E-01
    0.49825231324835024538E-01
    0.49825248043122528918E-01
    0.49825163301525393633E-01
    0.49825115929026310424E-01
    0.49825043303962764096E-01
    0.49825023888011139850E-01
    0.49825074509455981320E-01
    0.49825064190992515711E-01
    0.49825140030687116444E-01
    0.49825152876466757834E-01
    0.49825313058472646410E-01
    0.49825387655282729615E-01
    0.49825512039028165001E-01
    0.49825561536058951551E-01
    0.49825482814487412342E-01
    0.49825537901039641808E-01
    0.49825442677221040699E-01
    0.49825351324855313151E-01
    0.49825255431866166678E-01
    0.49825210995835554628E-01
    0.49825260033330466547E-01
    0.49825225006552731344E-01
    0.49825349327011624057E-01
    0.49825376631955790863E-01
    0.49825792489754702763E-01
    0.49825913921427281150E-01
    0.49826124521247509846E-01
    0.49826200916179209932E-01
    0.49826064361466256003E-01
    0.49826149426693673583E-01
    0.49825992944868800760E-01
    0.49825843765977616273E-01
    0.49825684370748066221E-01
    0.49825611084306775656E-01
    0.49825695578083500914E-01
    0.49825639961035783632E-01
    0.49825844936727932410E-01
    0.49825888670094117816E-01
    0.49825503661432735125E-01
    0.49825583443191684418E-01
    0.49825761024987688663E-01
    0.49825804880139837327E-01
    0.49825662184822989975E-01
    0.49825687331466583796E-01
    0.49825539019226365578E-01
    0.49825458821174652135E-01
    0.49825332278994730051E-01
    0.49825299035942280379E-01
    0.49825388085820640494E-01
    0.49825369840206398808E-01
    0.49825503211433808115E-01
    0.49825525102713853765E-01
    0.49826147623843547452E-01
    0.49826282281651146366E-01
    0.49826596176773325919E-01
    0.49826663264494377992E-01
    0.49826404462545173524E-01
    0.49826433437241239577E-01
    0.49826175559224326894E-01
    0.49826046533743992284E-01
    0.49825828407962048650E-01
    0.49825774963216488966E-01
    0.49825934569413615760E-01
    0.49825908376735582317E-01
    0.49826134284912199091E-01
    0.49826168573609587453E-01
    0.49825058292122983983E-01
    0.49825085275274204333E-01
    0.49825166628208406028E-01
    0.49825179160436071368E-01
    0.49825106618541795123E-01
    0.49825107616266933741E-01
    0.49825034973418308448E-01
    0.49825007576301774681E-01
    0.49824949574822294251E-01
    0.49824941508442029126E-01
    0.49824989688273015054E-01
    0.49824991929804572643E-01
    0.49825040275809202861E-01
    0.49825046010174775524E-01
    0.49825336928173591389E-01
    0.49825390994047882853E-01
    0.49825534542931884663E-01
    0.49825562240231040245E-01
    0.49825437288025485605E-01
    0.49825443397904602139E-01
    0.49825315863966261609E-01
    0.49825264697733580299E-01
    0.49825162733441043239E-01
    0.49825145792033911918E-01
    0.49825226644191235315E-01
    0.49825224330129834482E-01
    0.49825316798039621935E-01
    0.49825329144204538734E-01
    0.49825268873168834793E-01
    0.49825298796163930426E-01
    0.49825417646279707151E-01
    0.49825427466779773078E-01
    0.49825314878934615082E-01
    0.49825305747715160909E-01
    0.49825197573551853469E-01
    0.49825166562602482556E-01
    0.49825082684662534704E-01
    0.49825077037370539557E-01
    0.49825153655412277032E-01
    0.49825166529774991830E-01
    0.49825225278617164826E-01
    0.49825229520066509348E-01
    0.49825656960192817035E-01
    0.49825723630373283668E-01
    0.49825928749054775035E-01
    0.49825960475374297953E-01
    0.49825774314507131901E-01
    0.49825772539666628169E-01
    0.49825584851305788903E-01
    0.49825521195473419789E-01
    0.49825375098606107527E-01
    0.49825358355062250582E-01
    0.49825481910858275547E-01
    0.49825490139601393003E-01
    0.49825608543842263287E-01
    0.49825621711515270806E-01
    0.49825842772249676060E-01
    0.49825946253526799679E-01
    0.49826205666981891740E-01
    0.49826259084694200785E-01
    0.49826034463903441651E-01
    0.49826045407810298782E-01
    0.49825816818503530781E-01
    0.49825725353942022788E-01
    0.49825543629506120757E-01
    0.49825511892354429344E-01
    0.49825653531348434999E-01
    0.49825644142219009669E-01
    0.49825815958160921126E-01
    0.49825839383868288091E-01
    0.49826769519979420553E-01
    0.49826958494235025487E-01
    0.49827433327127600149E-01
    0.49827524974293789517E-01
    0.49827109099975674944E-01
    0.49827114964789288865E-01
    0.49826701734983075420E-01
    0.49826547000943403887E-01
    0.49826221664811952416E-01
    0.49826167842543310493E-01
    0.49826424875840324979E-01
    0.49826408387829382307E-01
    0.49826718290782529008E-01
    0.49826758227388003031E-01
    0.49826362075952944364E-01
    0.49826503113354583818E-01
    0.49826874123400761996E-01
    0.49826949331344252969E-01
    0.49826621974428858541E-01
    0.49826632388102906623E-01
    0.49826293680323832658E-01
    0.49826169868311134814E-01
    0.49825906761929168731E-01
    0.49825868798038804031E-01
    0.49826079279449632387E-01
    0.49826075262380919995E-01
    0.49826310911174169493E-01
    0.49826341583348386644E-01
    0.49827683818931052528E-01
    0.49827966555144008465E-01
    0.49828659851273181258E-01
    0.49828812269793090750E-01
    0.49828205165024057333E-01
    0.49828224994002551229E-01
    0.49827597709180805607E-01
    0.49827368962351174797E-01
    0.49826884993968340032E-01
    0.49826810526501473519E-01
    0.49827189496370355437E-01
    0.49827164529147600913E-01
    0.49827621023344571827E-01
    0.49827682269143337701E-01
    0.49824949085366221357E-01
    0.49824929304720592949E-01
    0.49824955097659114067E-01
    0.49824937678546649122E-01
    0.49824896238267669946E-01
    0.49824871197010858759E-01
    0.49824842030884754218E-01
    0.49824853832175948487E-01
    0.49824837473418669143E-01
    0.49824852506875863534E-01
    0.49824885025111766146E-01
    0.49824916445349365368E-01
    0.49824893245269195885E-01
    0.49824883836963977657E-01
    0.49824994666249691755E-01
    0.49824985321055947907E-01
    0.49825030873879308513E-01
    0.49825016892576352856E-01
    0.49824960004807093694E-01
    0.49824935643808243579E-01
    0.49824891726380909907E-01
    0.49824896432604855179E-01
    0.49824866829985554884E-01
    0.49824877538305757663E-01
    0.49824919197886577416E-01
    0.49824946091905408796E-01
    0.49824940720670653216E-01
    0.49824933683124281170E-01
    0.49825167300939561532E-01
    0.49825133599830290221E-01
    0.49825178702271238906E-01
    0.49825148603891859789E-01
    0.49825076381718125251E-01
    0.49825032546167796754E-01
    0.49824981901453672950E-01
    0.49825002733649016717E-01
    0.49824974509344872875E-01
    0.49825000567002696028E-01
    0.49825056884883027475E-01
    0.49825111047118203489E-01
    0.49825071186297802128E-01
    0.49825054871755321273E-01
    0.49825248043127712272E-01
    0.49825231324839902580E-01
    0.49825310826517199558E-01
    0.49825285035811670009E-01
    0.49825184975014195909E-01
    0.49825139923191985591E-01
    0.49825064190995811686E-01
    0.49825074509459645056E-01
    0.49825023888014623175E-01
    0.49825043303966552732E-01
    0.49825115929030598660E-01
    0.49825163301530160653E-01
    0.49825152876471108521E-01
    0.49825140030691279780E-01
    0.49825107616269952160E-01
    0.49825106618544452719E-01
    0.49825179160438819170E-01
    0.49825166628210799946E-01
    0.49825085275276209673E-01
    0.49825058292124531356E-01
    0.49824991929805918789E-01
    0.49824989688274715083E-01
    0.49824941508443673643E-01
    0.49824949574824216325E-01
    0.49825007576304078394E-01
    0.49825034973421084006E-01
    0.49825046010177037603E-01
    0.49825040275811270651E-01
    0.49825305747717665850E-01
    0.49825314878936620422E-01
    0.49825427466781778418E-01
    0.49825417646281212891E-01
    0.49825298796165075343E-01
    0.49825268873169362149E-01
    0.49825166529775366531E-01
    0.49825153655413186027E-01
    0.49825077037371559574E-01
    0.49825082684663950239E-01
    0.49825166562604238096E-01
    0.49825197573554157182E-01
    0.49825229520068091416E-01
    0.49825225278618497093E-01
    0.49825443397909979781E-01
    0.49825437288030453853E-01
    0.49825562240236348499E-01
    0.49825534542936741889E-01
    0.49825390994052053129E-01
    0.49825336928177123286E-01
    0.49825224330132873718E-01
    0.49825226644194725578E-01
    0.49825145792037249526E-01
    0.49825162733444734731E-01
    0.49825264697737875474E-01
    0.49825315863971188224E-01
    0.49825329144208889420E-01
    0.49825316798043729760E-01
    0.49825772539671984995E-01
    0.49825774314511857288E-01
    0.49825960475379217629E-01
    0.49825928749059077150E-01
    0.49825723630376871076E-01
    0.49825656960195578715E-01
    0.49825490139603703654E-01
    0.49825481910861259272E-01
    0.49825358355065151039E-01
    0.49825375098609521463E-01
    0.49825521195477479042E-01
    0.49825584851310680823E-01
    0.49825621711519246793E-01
    0.49825608543845920084E-01
    0.49825537901047815825E-01
    0.49825482814495052064E-01
    0.49825561536066903523E-01
    0.49825512039035672884E-01
    0.49825387655289460342E-01
    0.49825313058478648554E-01
    0.49825225006558213070E-01
    0.49825260033336406240E-01
    0.49825210995841230643E-01
    0.49825255431872252088E-01
    0.49825351324862168778E-01
    0.49825442677228728994E-01
    0.49825376631962702001E-01
    0.49825349327018264578E-01
    0.49825687331474868835E-01
    0.49825662184830879498E-01
    0.49825804880148351350E-01
    0.49825761024995786352E-01
    0.49825583443198762090E-01
    0.49825503661439000946E-01
    0.49825369840211929107E-01
    0.49825388085826635698E-01
    0.49825299035947887005E-01
    0.49825332279000753011E-01
    0.49825458821181493885E-01
    0.49825539019233887339E-01
    0.49825525102720896742E-01
    0.49825503211440608231E-01
    0.49826149426706101142E-01
    0.49826064361477982734E-01
    0.49826200916191609736E-01
    0.49826124521259229638E-01
    0.49825913921437731124E-01
    0.49825792489764118842E-01
    0.49825639961044256021E-01
    0.49825695578092674132E-01
    0.49825611084315504784E-01
    0.49825684370757399033E-01
    0.49825843765988114820E-01
    0.49825992944880513613E-01
    0.49825888670104727385E-01
    0.49825844936738160340E-01
    0.49826433437254256942E-01
    0.49826404462557857822E-01
    0.49826663264508366802E-01
    0.49826596176786724923E-01
    0.49826282281662720441E-01
    0.49826147623853969670E-01
    0.49825908376744665329E-01
    0.49825934569423295517E-01
    0.49825774963225426262E-01
    0.49825828407971575751E-01
    0.49826046533754830836E-01
    0.49826175559236136892E-01
    0.49826168573620890911E-01
    0.49826134284923155604E-01
    0.49826045407819492816E-01
    0.49826034463912156902E-01
    0.49826259084703707070E-01
    0.49826205666990849852E-01
    0.49825946253534467156E-01
    0.49825842772256427604E-01
    0.49825644142224782829E-01
    0.49825653531354784087E-01
    0.49825511892360306587E-01
    0.49825543629512476784E-01
    0.49825725353949405771E-01
    0.49825816818511843576E-01
    0.49825839383875920874E-01
    0.49825815958168234721E-01
    0.49826632388113106797E-01
    0.49826621974438253804E-01
    0.49826949331354487838E-01
    0.49826874123410122563E-01
    0.49826503113362438646E-01
    0.49826362075959508557E-01
    0.49826075262386415599E-01
    0.49826079279456016169E-01
    0.49825868798044799235E-01
    0.49825906761935843947E-01
    0.49826169868319038214E-01
    0.49826293680332985059E-01