# vtk DataFile Version 3.0
LAPLACIEN  2D
ASCII
DATASET UNSTRUCTURED_GRID
FIELD FieldData 1
TIME 1 1 double
13.4000
 POINTS        7297  float
   1.5625000000000000E-002  0.96875000000000000        0.0000000000000000     
   3.1250000000000000E-002  0.96875000000000000        0.0000000000000000     
   3.1250000000000000E-002  0.98437500000000000        0.0000000000000000     
   9.3749999999999997E-003  0.97812500000000002        0.0000000000000000     
   2.0312500000000001E-002  0.97968750000000004        0.0000000000000000     
   2.1874999999999999E-002  0.99062499999999998        0.0000000000000000     
   1.0937499999999999E-002  0.98906249999999996        0.0000000000000000     
   4.6875000000000000E-002  0.96875000000000000        0.0000000000000000     
   6.2500000000000000E-002  0.96875000000000000        0.0000000000000000     
   6.2500000000000000E-002  0.98437500000000000        0.0000000000000000     
   4.0625000000000001E-002  0.97812500000000002        0.0000000000000000     
   5.1562499999999997E-002  0.97968750000000004        0.0000000000000000     
   5.3124999999999999E-002  0.99062499999999998        0.0000000000000000     
   4.2187500000000003E-002  0.98906249999999996        0.0000000000000000     
   1.5625000000000000E-002  0.93750000000000000        0.0000000000000000     
   3.1250000000000000E-002  0.93750000000000000        0.0000000000000000     
   3.1250000000000000E-002  0.95312500000000000        0.0000000000000000     
   9.3749999999999997E-003  0.94687500000000002        0.0000000000000000     
   2.0312500000000001E-002  0.94843750000000004        0.0000000000000000     
   2.1874999999999999E-002  0.95937499999999998        0.0000000000000000     
   1.0937499999999999E-002  0.95781249999999996        0.0000000000000000     
   4.6875000000000000E-002  0.93750000000000000        0.0000000000000000     
   6.2500000000000000E-002  0.93750000000000000        0.0000000000000000     
   6.2500000000000000E-002  0.95312500000000000        0.0000000000000000     
   4.0625000000000001E-002  0.94687500000000002        0.0000000000000000     
   5.1562499999999997E-002  0.94843750000000004        0.0000000000000000     
   5.3124999999999999E-002  0.95937499999999998        0.0000000000000000     
   4.2187500000000003E-002  0.95781249999999996        0.0000000000000000     
   7.8125000000000000E-002  0.96875000000000000        0.0000000000000000     
   9.3750000000000000E-002  0.96875000000000000        0.0000000000000000     
   9.3750000000000000E-002  0.98437500000000000        0.0000000000000000     
   7.1874999999999994E-002  0.97812500000000002        0.0000000000000000     
   8.2812499999999997E-002  0.97968750000000004        0.0000000000000000     
   8.4375000000000006E-002  0.99062499999999998        0.0000000000000000     
   7.3437500000000003E-002  0.98906249999999996        0.0000000000000000     
  0.10937500000000000       0.96875000000000000        0.0000000000000000     
  0.12500000000000000       0.96875000000000000        0.0000000000000000     
  0.12500000000000000       0.98437500000000000        0.0000000000000000     
  0.10312499999999999       0.97812500000000002        0.0000000000000000     
  0.11406250000000000       0.97968750000000004        0.0000000000000000     
  0.11562500000000001       0.99062499999999998        0.0000000000000000     
  0.10468750000000000       0.98906249999999996        0.0000000000000000     
   7.8125000000000000E-002  0.93750000000000000        0.0000000000000000     
   9.3750000000000000E-002  0.93750000000000000        0.0000000000000000     
   9.3750000000000000E-002  0.95312500000000000        0.0000000000000000     
   7.1874999999999994E-002  0.94687500000000002        0.0000000000000000     
   8.2812499999999997E-002  0.94843750000000004        0.0000000000000000     
   8.4375000000000006E-002  0.95937499999999998        0.0000000000000000     
   7.3437500000000003E-002  0.95781249999999996        0.0000000000000000     
  0.10937500000000000       0.93750000000000000        0.0000000000000000     
  0.12500000000000000       0.93750000000000000        0.0000000000000000     
  0.12500000000000000       0.95312500000000000        0.0000000000000000     
  0.10312499999999999       0.94687500000000002        0.0000000000000000     
  0.11406250000000000       0.94843750000000004        0.0000000000000000     
  0.11562500000000001       0.95937499999999998        0.0000000000000000     
  0.10468750000000000       0.95781249999999996        0.0000000000000000     
   1.5625000000000000E-002  0.90625000000000000        0.0000000000000000     
   3.1250000000000000E-002  0.90625000000000000        0.0000000000000000     
   3.1250000000000000E-002  0.92187500000000000        0.0000000000000000     
   9.3749999999999997E-003  0.91562500000000002        0.0000000000000000     
   2.0312500000000001E-002  0.91718750000000004        0.0000000000000000     
   2.1874999999999999E-002  0.92812499999999998        0.0000000000000000     
   1.0937499999999999E-002  0.92656249999999996        0.0000000000000000     
   4.6875000000000000E-002  0.90625000000000000        0.0000000000000000     
   6.2500000000000000E-002  0.90625000000000000        0.0000000000000000     
   6.2500000000000000E-002  0.92187500000000000        0.0000000000000000     
   4.0625000000000001E-002  0.91562500000000002        0.0000000000000000     
   5.1562499999999997E-002  0.91718750000000004        0.0000000000000000     
   5.3124999999999999E-002  0.92812499999999998        0.0000000000000000     
   4.2187500000000003E-002  0.92656249999999996        0.0000000000000000     
   1.5625000000000000E-002  0.87500000000000000        0.0000000000000000     
   3.1250000000000000E-002  0.87500000000000000        0.0000000000000000     
   3.1250000000000000E-002  0.89062500000000000        0.0000000000000000     
   9.3749999999999997E-003  0.88437500000000002        0.0000000000000000     
   2.0312500000000001E-002  0.88593750000000004        0.0000000000000000     
   2.1874999999999999E-002  0.89687499999999998        0.0000000000000000     
   1.0937499999999999E-002  0.89531249999999996        0.0000000000000000     
   4.6875000000000000E-002  0.87500000000000000        0.0000000000000000     
   6.2500000000000000E-002  0.87500000000000000        0.0000000000000000     
   6.2500000000000000E-002  0.89062500000000000        0.0000000000000000     
   4.0625000000000001E-002  0.88437500000000002        0.0000000000000000     
   5.1562499999999997E-002  0.88593750000000004        0.0000000000000000     
   5.3124999999999999E-002  0.89687499999999998        0.0000000000000000     
   4.2187500000000003E-002  0.89531249999999996        0.0000000000000000     
   7.8125000000000000E-002  0.90625000000000000        0.0000000000000000     
   9.3750000000000000E-002  0.90625000000000000        0.0000000000000000     
   9.3750000000000000E-002  0.92187500000000000        0.0000000000000000     
   7.1874999999999994E-002  0.91562500000000002        0.0000000000000000     
   8.2812499999999997E-002  0.91718750000000004        0.0000000000000000     
   8.4375000000000006E-002  0.92812499999999998        0.0000000000000000     
   7.3437500000000003E-002  0.92656249999999996        0.0000000000000000     
  0.10937500000000000       0.90625000000000000        0.0000000000000000     
  0.12500000000000000       0.90625000000000000        0.0000000000000000     
  0.12500000000000000       0.92187500000000000        0.0000000000000000     
  0.10312499999999999       0.91562500000000002        0.0000000000000000     
  0.11406250000000000       0.91718750000000004        0.0000000000000000     
  0.11562500000000001       0.92812499999999998        0.0000000000000000     
  0.10468750000000000       0.92656249999999996        0.0000000000000000     
   7.8125000000000000E-002  0.87500000000000000        0.0000000000000000     
   9.3750000000000000E-002  0.87500000000000000        0.0000000000000000     
   9.3750000000000000E-002  0.89062500000000000        0.0000000000000000     
   7.1874999999999994E-002  0.88437500000000002        0.0000000000000000     
   8.2812499999999997E-002  0.88593750000000004        0.0000000000000000     
   8.4375000000000006E-002  0.89687499999999998        0.0000000000000000     
   7.3437500000000003E-002  0.89531249999999996        0.0000000000000000     
  0.10937500000000000       0.87500000000000000        0.0000000000000000     
  0.12500000000000000       0.87500000000000000        0.0000000000000000     
  0.12500000000000000       0.89062500000000000        0.0000000000000000     
  0.10312499999999999       0.88437500000000002        0.0000000000000000     
  0.11406250000000000       0.88593750000000004        0.0000000000000000     
  0.11562500000000001       0.89687499999999998        0.0000000000000000     
  0.10468750000000000       0.89531249999999996        0.0000000000000000     
  0.14062500000000000       0.96875000000000000        0.0000000000000000     
  0.15625000000000000       0.96875000000000000        0.0000000000000000     
  0.15625000000000000       0.98437500000000000        0.0000000000000000     
  0.13437499999999999       0.97812500000000002        0.0000000000000000     
  0.14531250000000001       0.97968750000000004        0.0000000000000000     
  0.14687500000000001       0.99062499999999998        0.0000000000000000     
  0.13593749999999999       0.98906249999999996        0.0000000000000000     
  0.17187500000000000       0.96875000000000000        0.0000000000000000     
  0.18750000000000000       0.96875000000000000        0.0000000000000000     
  0.18750000000000000       0.98437500000000000        0.0000000000000000     
  0.16562499999999999       0.97812500000000002        0.0000000000000000     
  0.17656250000000001       0.97968750000000004        0.0000000000000000     
[...]
 CELL_DATA       14336
 SCALARS Tumor_cells float
 LOOKUP_TABLE default
    0.36828897881980300621E-01
    0.36828897601993454414E-01
    0.36828899805423302716E-01
    0.36828899805422858627E-01
    0.36828897601994654842E-01
    0.36828897881978787943E-01
    0.36828896136438325770E-01
    0.36828895102824818486E-01
    0.36828893986903969704E-01
    0.36828893986896253654E-01
    0.36828895102828898556E-01
    0.36828896136436903297E-01
    0.36828895974535501290E-01
    0.36828895974534217594E-01
    0.36828905129847218369E-01
    0.36828907061500937292E-01
    0.36828912305297820118E-01
    0.36828913758783478338E-01
    0.36828909825753618212E-01
    0.36828911708810016523E-01
    0.36828907587921108635E-01
    0.36828904161595371614E-01
    0.36828900544261355954E-01
    0.36828899252985616841E-01
    0.36828901502644721677E-01
    0.36828901225932651753E-01
    0.36828904756719522962E-01
    0.36828905530332294027E-01
    0.36828911708811876147E-01
    0.36828909825754714558E-01
    0.36828913758784900812E-01
    0.36828912305298708296E-01
    0.36828907061501971187E-01
    0.36828905129847100408E-01
    0.36828901225933713404E-01
    0.36828901502644451060E-01
    0.36828899252987150337E-01
    0.36828900544261036765E-01
    0.36828904161596870415E-01
    0.36828907587922288247E-01
    0.36828905530333522211E-01
    0.36828904756720223790E-01
    0.36828921448472502764E-01
    0.36828922294144160465E-01
    0.36828930503607304470E-01
    0.36828930503607026914E-01
    0.36828922294143820459E-01
    0.36828921448471385602E-01
    0.36828914175115849694E-01
    0.36828912102318235589E-01
    0.36828906697176692908E-01
    0.36828906697176450047E-01
    0.36828912102318860089E-01
    0.36828914175116550522E-01
    0.36828916563784806770E-01
    0.36828916563784605542E-01
    0.36828924521418289484E-01
    0.36828929752449196533E-01
    0.36828940000727679316E-01
    0.36828943821171737649E-01
    0.36828937040475927256E-01
    0.36828941630695187504E-01
    0.36828933532413524188E-01
    0.36828926019552725435E-01
    0.36828918252371369013E-01
    0.36828914972531281991E-01
    0.36828919113805688723E-01
    0.36828917121870648199E-01
    0.36828926175870690951E-01
    0.36828928240766528601E-01
    0.36828963381809375066E-01
    0.36828973944298251664E-01
    0.36828992083375394762E-01
    0.36828999462772897544E-01
    0.36828988011131678915E-01
    0.36828996510848074908E-01
    0.36828982169249221967E-01
    0.36828968536177709991E-01
    0.36828954367323980812E-01
    0.36828947931862331122E-01
    0.36828955207450497777E-01
    0.36828950398519952336E-01
    0.36828968260100784782E-01
    0.36828972270789038512E-01
    0.36828946902676192032E-01
    0.36828950993373452127E-01
    0.36828965410316653883E-01
    0.36828967334751133711E-01
    0.36828954516677135655E-01
    0.36828955253225562072E-01
    0.36828942613507824333E-01
    0.36828937033767425446E-01
    0.36828926699738660788E-01
    0.36828925143285215493E-01
    0.36828933796415642965E-01
    0.36828934764825425885E-01
    0.36828942685370569254E-01
    0.36828943674256188479E-01
    0.36828995164950320551E-01
    0.36829004593496660058E-01
    0.36829029446608721465E-01
    0.36829034596426911408E-01
    0.36829014050986520756E-01
    0.36829017337547759192E-01
    0.36828995973402584019E-01
    0.36828984726225082180E-01
    0.36828966471057142384E-01
    0.36828962337733799071E-01
    0.36828976061981592849E-01
    0.36828975286488638274E-01
    0.36828992128124952987E-01
    0.36828994778550526445E-01
    0.36828941630699121856E-01
    0.36828937040479299558E-01
    0.36828943821175311180E-01
    0.36828940000730725490E-01
    0.36828929752451784740E-01
    0.36828924521420051963E-01
    0.36828917121872438434E-01
    0.36828919113807624675E-01
    0.36828914972533398353E-01
    0.36828918252373506192E-01
    0.36828926019555632831E-01
    0.36828933532416931185E-01
    0.36828928240769401303E-01
    0.36828926175873272220E-01
    0.36828955253228795597E-01
    0.36828954516679612841E-01
    0.36828967334753569263E-01
    0.36828965410318451057E-01
    0.36828950993374846845E-01
    0.36828946902676726327E-01
    0.36828934764825994874E-01
    0.36828933796416739310E-01
    0.36828925143286603272E-01
    0.36828926699740305306E-01
    0.36828937033769645892E-01
    0.36828942613510703974E-01
    0.36828943674258173002E-01
    0.36828942685372206833E-01
    0.36828996510855159519E-01
    0.36828988011138083514E-01
    0.36828999462779558882E-01
    0.36828992083381424660E-01
    0.36828973944303525223E-01
    0.36828963381813718814E-01
    0.36828950398523928322E-01
    0.36828955207455021936E-01
    0.36828947931866667931E-01
    0.36828954367328733954E-01
    0.36828968536183295801E-01
    0.36828982169255619628E-01
    0.36828972270794645139E-01
    0.36828968260106065280E-01
    0.36829017337554156852E-01
    0.36829014050992044116E-01
    0.36829034596432476401E-01
    0.36829029446613509302E-01
    0.36829004593500774822E-01
    0.36828995164953387542E-01
    0.36828975286491483221E-01
    0.36828976061985214951E-01
    0.36828962337737448929E-01
    0.36828966471061354293E-01
    0.36828984726230029612E-01
    0.36828995973408482079E-01
    0.36828994778555279588E-01
    0.36828992128129303674E-01
    0.36828990767120345362E-01
    0.36828993946166829754E-01
    0.36829015346590270041E-01
    0.36829015346589881463E-01
    0.36828993946166128926E-01
    0.36828990767118680028E-01
    0.36828971267990208427E-01
    0.36828966749919055113E-01
    0.36828951793307140861E-01
    0.36828951793307404539E-01
    0.36828966749919721246E-01
    0.36828971267991728045E-01
    0.36828979107199996679E-01
    0.36828979107199795451E-01
    0.36829056911322724521E-01
    0.36829066346092960427E-01
    0.36829102415206815824E-01
    0.36829105785661127304E-01
    0.36829072211868950359E-01
    0.36829070438446194491E-01
    0.36829038108928589812E-01
    0.36829027660832860946E-01
    0.36829002095130958239E-01
    0.36828999811953928856E-01
    0.36829022625979930539E-01
    0.36829026073539952724E-01
    0.36829044495496537914E-01
    0.36829046091214248659E-01
    0.36829070438451037839E-01
    0.36829072211872718179E-01
    0.36829105785664707773E-01
    0.36829102415209480359E-01
    0.36829066346095021278E-01
    0.36829056911323591883E-01
    0.36829026073540743758E-01
    0.36829022625981762407E-01
    0.36828999811956003585E-01
    0.36829002095133747674E-01
    0.36829027660836274882E-01
    0.36829038108933120910E-01
    0.36829046091217253200E-01
    0.36829044495499056733E-01
    0.36829167235299532790E-01
    0.36829176186723072695E-01
    0.36829230604759094492E-01
    0.36829230604758553258E-01
    0.36829176186722038799E-01
    0.36829167235297138872E-01
    0.36829117805116530493E-01
    0.36829107167228439246E-01
    0.36829069471616120157E-01
    0.36829069471616564246E-01
    0.36829107167229403752E-01
    0.36829117805118799511E-01
    0.36829138701180631765E-01
    0.36829138701180340332E-01
    0.36829033258432987419E-01
    0.36829052281279965608E-01
    0.36829083758266947801E-01
    0.36829096989138575269E-01
    0.36829077400167650747E-01
    0.36829092426514165037E-01
    0.36829067634653350760E-01
    0.36829043767121587283E-01
    0.36829019064264660599E-01
    0.36829007643224033475E-01
    0.36829020069362790324E-01
    0.36829011103233028068E-01
    0.36829042863070995950E-01
    0.36829050009966710078E-01
    0.36829155807661238808E-01
    0.36829189099728751322E-01
    0.36829243943919683091E-01
    0.36829266800344394317E-01
    0.36829232554182834980E-01
    0.36829258148537262485E-01
    0.36829215430255128616E-01
    0.36829174298330179249E-01
    0.36829131527679956348E-01
    0.36829111737092343204E-01
    0.36829133170637580463E-01
    0.36829117347933079674E-01
    0.36829172767444406933E-01
    0.36829185157327005984E-01
    0.36829082197866007398E-01
    0.36829100701984800181E-01
    0.36829143905124372971E-01
    0.36829154524106136326E-01
    0.36829119933958064104E-01
    0.36829127035677512725E-01
    0.36829090145484327801E-01
    0.36829069716862963824E-01
    0.36829038073904037109E-01
    0.36829029938423768487E-01
    0.36829052420734705031E-01
    0.36829048843563444438E-01
    0.36829080714197770519E-01
    0.36829086060199855979E-01
    0.36829237330872129086E-01
    0.36829271543018703150E-01
    0.36829347518987157195E-01
    0.36829367104347032758E-01
    0.36829306744460901801E-01
    0.36829319444938959927E-01
    0.36829255100899377373E-01
    0.36829219124995510315E-01
    0.36829163975360297567E-01
    0.36829149228589722065E-01
    0.36829187665565504828E-01
    0.36829179826410915477E-01
    0.36829237420575977602E-01
    0.36829247176384381779E-01
    0.36829368817539460956E-01
    0.36829425460925206692E-01
    0.36829519899235219071E-01
    0.36829557482988078965E-01
    0.36829497716532280660E-01
    0.36829539544602933610E-01
    0.36829467245221257643E-01
    0.36829397882193436187E-01
    0.36829325070234439354E-01
    0.36829291328811519790E-01
    0.36829328561156136901E-01
    0.36829301962463520392E-01
    0.36829396362741427529E-01
    0.36829417095737518317E-01
    0.36829732824467831254E-01
    0.36829825019557338450E-01
    0.36829984903674388430E-01
    0.36830042905301951794E-01
    0.36829939237322778522E-01
    0.36830003820991948082E-01
    0.36829885021848689231E-01
    0.36829771765247869275E-01
    0.36829650749901327034E-01
    0.36829595108511144208E-01
    0.36829659255399528617E-01
    0.36829617026432344418E-01
    0.36829772650620665186E-01
    0.36829805854387533126E-01
    0.36829513511007348769E-01
    0.36829574088844831137E-01
    0.36829708909133035410E-01
    0.36829742209856609902E-01
    0.36829633880015859304E-01
    0.36829652979402181801E-01
    0.36829540380123877708E-01
    0.36829479486085073270E-01
    0.36829383408323382310E-01
    0.36829358164409867205E-01
    0.36829425771440923998E-01
    0.36829411912918344485E-01
    0.36829513180525547122E-01
    0.36829529803616464778E-01
    0.36830002411179660338E-01
    0.36830104645922970286E-01
    0.36830342942047893107E-01
    0.36830393879501599486E-01
    0.36830197411964152310E-01
    0.36830219417172044283E-01
    0.36830023646896435652E-01
    0.36829925687805797896E-01
    0.36829760090619105550E-01
    0.36829719511544040111E-01
    0.36829840676488492801E-01
    0.36829820783772455883E-01
    0.36829992297122693401E-01
    0.36830018331392933018E-01
    0.36829175328681698631E-01
    0.36829195819527968392E-01
    0.36829257593184158703E-01
    0.36829267110002124330E-01
    0.36829212030878986928E-01
    0.36829212792983762048E-01
    0.36829157632338634099E-01
    0.36829136824175337517E-01
    0.36829092776300968726E-01
    0.36829086648713149632E-01
    0.36829123235437008499E-01
    0.36829124935979624944E-01
    0.36829161651859031179E-01
    0.36829166007176436515E-01
    0.36829386896429040787E-01
    0.36829427948563753237E-01
    0.36829536933654712094E-01
    0.36829557964595638353E-01
    0.36829463103319116934E-01
    0.36829467748536688643E-01
    0.36829370921300341735E-01
    0.36829332068489387120E-01
    0.36829254648459444632E-01
    0.36829241781894499208E-01
    0.36829303168324258044E-01
    0.36829301408064063494E-01
    0.36829371619653501757E-01
    0.36829380995083232930E-01
    0.36829335214225468464E-01
    0.36829357933649616019E-01
    0.36829448167840082851E-01
    0.36829455624522750012E-01
    0.36829370147504099375E-01
    0.36829363218061371421E-01
    0.36829281086550605395E-01
    0.36829257538565363106E-01
    0.36829193849716869436E-01
    0.36829189560265679360E-01
    0.36829247734963314886E-01
    0.36829257509460824882E-01
    0.36829302116868391226E-01
    0.36829305337931037001E-01
    0.36829629853196967082E-01
    0.36829680469434078471E-01
    0.36829836189493113385E-01
    0.36829860277129214396E-01
    0.36829718954171614120E-01
    0.36829717612655361869E-01
    0.36829575124466822078E-01
    0.36829526792736086427E-01
    0.36829415874838879186E-01
    0.36829403160205144430E-01
    0.36829496961666645383E-01
    0.36829503206930881698E-01
    0.36829593101733754112E-01
    0.36829603100030902652E-01
    0.36829770939874502400E-01
    0.36829849504804473836E-01
    0.36830046442607879131E-01
    0.36830087000903469208E-01
    0.36829916482193317262E-01
    0.36829924799789436063E-01
    0.36829751263330101629E-01
    0.36829681816983539377E-01
    0.36829543852303872620E-01
    0.36829519752723284542E-01
    0.36829627279594073785E-01
    0.36829620145985203505E-01
    0.36829750593436780259E-01
    0.36829768380757021973E-01
    0.36830474496974741072E-01
    0.36830617964545030174E-01
    0.36830978432279774804E-01
    0.36831048014117080680E-01
    0.36830732310388553108E-01
    0.36830736774011559043E-01
    0.36830423073019320779E-01
    0.36830305597529165718E-01
    0.36830058615867446170E-01
    0.36830017750264898435E-01
    0.36830212872475676100E-01
    0.36830200346551968116E-01
    0.36830435621425905435E-01
    0.36830465943296600284E-01
    0.36830165150329739754E-01
    0.36830272223118347419E-01
    0.36830553871271973221E-01
    0.36830610970900533319E-01
    0.36830362466633341512E-01
    0.36830370381342660002E-01
    0.36830113254371237008E-01
    0.36830019255298974967E-01
    0.36829819515363543259E-01
    0.36829790690554212174E-01
    0.36829950474783108849E-01
    0.36829947419257033636E-01
    0.36830126319622097375E-01
    0.36830149607012502289E-01
    0.36831168545432502182E-01
    0.36831383192756757261E-01
    0.36831909502143524160E-01
    0.36832025221307684859E-01
    0.36831564348108636331E-01
    0.36831579415449025583E-01
    0.36831103217644239889E-01
    0.36830929556343407205E-01
    0.36830562154687628007E-01
    0.36830505616274412939E-01
    0.36830793301264722062E-01
    0.36830774338381520872E-01
    0.36831120893440476294E-01
    0.36831167392529437499E-01
    0.36829092426525385229E-01
    0.36829077400178059087E-01
    0.36829096989149365249E-01
    0.36829083758276946747E-01
    0.36829052281288930659E-01
    0.36829033258440800613E-01
    0.36829011103240237579E-01
    0.36829020069370756174E-01
    0.36829007643231673197E-01
    0.36829019064272890127E-01
    0.36829043767130885401E-01
    0.36829067634663738284E-01
    0.36829050009976063706E-01
    0.36829042863079947123E-01
    0.36829127035688101477E-01
    0.36829119933967632838E-01
    0.36829154524115885472E-01
    0.36829143905133206183E-01
    0.36829100701992655009E-01
    0.36829082197872585469E-01
    0.36829048843569557603E-01
    0.36829052420741768825E-01
    0.36829029938430721258E-01
    0.36829038073911718465E-01
    0.36829069716871630502E-01
    0.36829090145494201847E-01
    0.36829086060208383879E-01
    0.36829080714205812697E-01
    0.36829258148553721541E-01
    0.36829232554198301774E-01
    0.36829266800360360712E-01
    0.36829243943934698857E-01
    0.36829189099742462576E-01
    0.36829155807673576162E-01
    0.36829117347944542726E-01
    0.36829133170649973328E-01
    0.36829111737104278101E-01
    0.36829131527692668402E-01
    0.36829174298344251326E-01
    0.36829215430270560716E-01
    0.36829185157341161327E-01
    0.36829172767458055737E-01
    0.36829319444954843055E-01
    0.36829306744475619195E-01
    0.36829367104362124852E-01
    0.36829347519001208455E-01
    0.36829271543031442959E-01
    0.36829237330883328461E-01
    0.36829179826421365451E-01
    0.36829187665577085842E-01
    0.36829149228601046340E-01
    0.36829163975372516959E-01
    0.36829219125008978708E-01
    0.36829255100914289056E-01
    0.36829247176397794661E-01
    0.36829237420588814556E-01
    0.36829212792992921388E-01
    0.36829212030886911144E-01
    0.36829267110009999975E-01
    0.36829257593190972697E-01
    0.36829195819533873391E-01
    0.36829175328686174218E-01
    0.36829124935983767464E-01
    0.36829123235442351447E-01
    0.36829086648718568908E-01
    0.36829092776307276180E-01
    0.36829136824182574783E-01
    0.36829157632347252205E-01
    0.36829166007183326836E-01
    0.36829161651865338634E-01
    0.36829363218068185415E-01
    0.36829370147509372935E-01
    0.36829455624527732138E-01
    0.36829448167843781281E-01
    0.36829357933652502599E-01
    0.36829335214226710526E-01
    0.36829257509461935105E-01
    0.36829247734965923911E-01
    0.36829189560268670023E-01
    0.36829193849720914811E-01
    0.36829257538570213393E-01
    0.36829281086557044689E-01
    0.36829305337935276665E-01
    0.36829302116871950878E-01
    0.36829467748551406037E-01
    0.36829463103332439611E-01
    0.36829557964609196952E-01
    0.36829536933667042509E-01
    0.36829427948574772200E-01
    0.36829386896438331966E-01
    0.36829301408072681601E-01
    0.36829303168334256990E-01
    0.36829241781904414887E-01
    0.36829254648470401146E-01
    0.36829332068501606512E-01
    0.36829370921314205645E-01
    0.36829380995095202522E-01
    0.36829371619664805215E-01
    0.36829717612668073923E-01
    0.36829718954182626145E-01
    0.36829860277140191727E-01
    0.36829836189502619670E-01
    0.36829680469442308000E-01
    0.36829629853203205148E-01
    0.36829503206936613224E-01
    0.36829496961674090816E-01
    0.36829403160212763335E-01
    0.36829415874847767909E-01
    0.36829526792746175579E-01
    0.36829575124478847181E-01
    0.36829603100040478325E-01
    0.36829593101742538752E-01
    0.36829539544625949921E-01
    0.36829497716554082665E-01
    0.36829557483010547103E-01
    0.36829519899256528415E-01
    0.36829425460944843762E-01
    0.36829368817557425753E-01
    0.36829301962480347210E-01
    0.36829328561174087819E-01
    0.36829291328828873964E-01
    0.36829325070252764973E-01
    0.36829397882213468773E-01
    0.36829467245243011075E-01
    0.36829417095757682743E-01
    0.36829396362760967454E-01
    0.36829652979424733206E-01
    0.36829633880037147831E-01
    0.36829742209878578441E-01
    0.36829708909153782703E-01
    0.36829574088863788195E-01
    0.36829513511024439265E-01
    0.36829411912934331697E-01
    0.36829425771458215721E-01
    0.36829358164426687083E-01
    0.36829383408341256900E-01
    0.36829479486104585439E-01
    0.36829540380145103784E-01
    0.36829529803636046337E-01
    0.36829513180544455608E-01
    0.36830003821023124533E-01
    0.36829939237352539438E-01
    0.36830042905332691094E-01
    0.36829984903703746890E-01
    0.36829825019584511159E-01
    0.36829732824492922294E-01
    0.36829617026455888085E-01
    0.36829659255424473940E-01
    0.36829595108535291559E-01
    0.36829650749926674813E-01
    0.36829771765275361173E-01
    0.36829885021878332185E-01
    0.36829805854415219313E-01
    0.36829772650647608911E-01
    0.36830219417203151344E-01
    0.36830197411993920165E-01
    0.36830393879532588586E-01
    0.36830342942077480550E-01
    0.36830104645950031972E-01
    0.36830002411204453006E-01
    0.36829820783795555461E-01
    0.36829840676513091180E-01
    0.36829719511567798884E-01
    0.36829760090644154957E-01
    0.36829925687833026116E-01
    0.36830023646925773295E-01
    0.36830018331420452671E-01
    0.36829992297149422020E-01
    0.36829924799811383784E-01
    0.36829916482213786999E-01
    0.36830087000924556506E-01
    0.36830046442627564773E-01
    0.36829849504822251283E-01
    0.36829770939890198178E-01
    0.36829620145999726610E-01
    0.36829627279610165080E-01
    0.36829519752738980320E-01
    0.36829543852320803521E-01
    0.36829681817002211941E-01
    0.36829751263350793411E-01
    0.36829768380775632086E-01
    0.36829750593454606278E-01
    0.36830370381363414234E-01
    0.36830362466652180609E-01
    0.36830610970919844260E-01
    0.36830553871289535561E-01
    0.36830272223133918297E-01
    0.36830165150342861202E-01
    0.36829947419269058739E-01
    0.36829950474797083781E-01
    0.36829790690568041389E-01
    0.36829819515378871275E-01
    0.36830019255316114035E-01
    0.36830113254390728361E-01