# vtk DataFile Version 3.0
LAPLACIEN  2D
ASCII
DATASET UNSTRUCTURED_GRID
 POINTS        7297  float
   1.5625000000000000E-002  0.96875000000000000        0.0000000000000000     
   3.1250000000000000E-002  0.96875000000000000        0.0000000000000000     
   3.1250000000000000E-002  0.98437500000000000        0.0000000000000000     
   9.3749999999999997E-003  0.97812500000000002        0.0000000000000000     
   2.0312500000000001E-002  0.97968750000000004        0.0000000000000000     
   2.1874999999999999E-002  0.99062499999999998        0.0000000000000000     
   1.0937499999999999E-002  0.98906249999999996        0.0000000000000000     
   4.6875000000000000E-002  0.96875000000000000        0.0000000000000000     
   6.2500000000000000E-002  0.96875000000000000        0.0000000000000000     
   6.2500000000000000E-002  0.98437500000000000        0.0000000000000000     
   4.0625000000000001E-002  0.97812500000000002        0.0000000000000000     
   5.1562499999999997E-002  0.97968750000000004        0.0000000000000000     
   5.3124999999999999E-002  0.99062499999999998        0.0000000000000000     
   4.2187500000000003E-002  0.98906249999999996        0.0000000000000000     
   1.5625000000000000E-002  0.93750000000000000        0.0000000000000000     
   3.1250000000000000E-002  0.93750000000000000        0.0000000000000000     
   3.1250000000000000E-002  0.95312500000000000        0.0000000000000000     
   9.3749999999999997E-003  0.94687500000000002        0.0000000000000000     
   2.0312500000000001E-002  0.94843750000000004        0.0000000000000000     
   2.1874999999999999E-002  0.95937499999999998        0.0000000000000000     
   1.0937499999999999E-002  0.95781249999999996        0.0000000000000000     
   4.6875000000000000E-002  0.93750000000000000        0.0000000000000000     
   6.2500000000000000E-002  0.93750000000000000        0.0000000000000000     
   6.2500000000000000E-002  0.95312500000000000        0.0000000000000000     
   4.0625000000000001E-002  0.94687500000000002        0.0000000000000000     
   5.1562499999999997E-002  0.94843750000000004        0.0000000000000000     
   5.3124999999999999E-002  0.95937499999999998        0.0000000000000000     
   4.2187500000000003E-002  0.95781249999999996        0.0000000000000000     
   7.8125000000000000E-002  0.96875000000000000        0.0000000000000000     
   9.3750000000000000E-002  0.96875000000000000        0.0000000000000000     
   9.3750000000000000E-002  0.98437500000000000        0.0000000000000000     
   7.1874999999999994E-002  0.97812500000000002        0.0000000000000000     
   8.2812499999999997E-002  0.97968750000000004        0.0000000000000000     
   8.4375000000000006E-002  0.99062499999999998        0.0000000000000000     
   7.3437500000000003E-002  0.98906249999999996        0.0000000000000000     
  0.10937500000000000       0.96875000000000000        0.0000000000000000     
  0.12500000000000000       0.96875000000000000        0.0000000000000000     
  0.12500000000000000       0.98437500000000000        0.0000000000000000     
  0.10312499999999999       0.97812500000000002        0.0000000000000000     
  0.11406250000000000       0.97968750000000004        0.0000000000000000     
  0.11562500000000001       0.99062499999999998        0.0000000000000000     
  0.10468750000000000       0.98906249999999996        0.0000000000000000     
   7.8125000000000000E-002  0.93750000000000000        0.0000000000000000     
   9.3750000000000000E-002  0.93750000000000000        0.0000000000000000     
   9.3750000000000000E-002  0.95312500000000000        0.0000000000000000     
   7.1874999999999994E-002  0.94687500000000002        0.0000000000000000     
   8.2812499999999997E-002  0.94843750000000004        0.0000000000000000     
   8.4375000000000006E-002  0.95937499999999998        0.0000000000000000     
   7.3437500000000003E-002  0.95781249999999996        0.0000000000000000     
  0.10937500000000000       0.93750000000000000        0.0000000000000000     
  0.12500000000000000       0.93750000000000000        0.0000000000000000     
  0.12500000000000000       0.95312500000000000        0.0000000000000000     
  0.10312499999999999       0.94687500000000002        0.0000000000000000     
  0.11406250000000000       0.94843750000000004        0.0000000000000000     
  0.11562500000000001       0.95937499999999998        0.0000000000000000     
  0.10468750000000000       0.95781249999999996        0.0000000000000000     
   1.5625000000000000E-002  0.90625000000000000        0.0000000000000000     
   3.1250000000000000E-002  0.90625000000000000        0.0000000000000000     
   3.1250000000000000E-002  0.92187500000000000        0.0000000000000000     
   9.3749999999999997E-003  0.91562500000000002        0.0000000000000000     
   2.0312500000000001E-002  0.91718750000000004        0.0000000000000000     
   2.1874999999999999E-002  0.92812499999999998        0.0000000000000000     
   1.0937499999999999E-002  0.92656249999999996        0.0000000000000000     
   4.6875000000000000E-002  0.90625000000000000        0.0000000000000000     
   6.2500000000000000E-002  0.90625000000000000        0.0000000000000000     
   6.2500000000000000E-002  0.92187500000000000        0.0000000000000000     
   4.0625000000000001E-002  0.91562500000000002        0.0000000000000000     
   5.1562499999999997E-002  0.91718750000000004        0.0000000000000000     
   5.3124999999999999E-002  0.92812499999999998        0.0000000000000000     
   4.2187500000000003E-002  0.92656249999999996        0.0000000000000000     
   1.5625000000000000E-002  0.87500000000000000        0.0000000000000000     
   3.1250000000000000E-002  0.87500000000000000        0.0000000000000000     
   3.1250000000000000E-002  0.89062500000000000        0.0000000000000000     
   9.3749999999999997E-003  0.88437500000000002        0.0000000000000000     
   2.0312500000000001E-002  0.88593750000000004        0.0000000000000000     
   2.1874999999999999E-002  0.89687499999999998        0.0000000000000000     
   1.0937499999999999E-002  0.89531249999999996        0.0000000000000000     
   4.6875000000000000E-002  0.87500000000000000        0.0000000000000000     
   6.2500000000000000E-002  0.87500000000000000        0.0000000000000000     
   6.2500000000000000E-002  0.89062500000000000        0.0000000000000000     
   4.0625000000000001E-002  0.88437500000000002        0.0000000000000000     
   5.1562499999999997E-002  0.88593750000000004        0.0000000000000000     
   5.3124999999999999E-002  0.89687499999999998        0.0000000000000000     
   4.2187500000000003E-002  0.89531249999999996        0.0000000000000000     
   7.8125000000000000E-002  0.90625000000000000        0.0000000000000000     
   9.3750000000000000E-002  0.90625000000000000        0.0000000000000000     
   9.3750000000000000E-002  0.92187500000000000        0.0000000000000000     
   7.1874999999999994E-002  0.91562500000000002        0.0000000000000000     
   8.2812499999999997E-002  0.91718750000000004        0.0000000000000000     
   8.4375000000000006E-002  0.92812499999999998        0.0000000000000000     
   7.3437500000000003E-002  0.92656249999999996        0.0000000000000000     
  0.10937500000000000       0.90625000000000000        0.0000000000000000     
  0.12500000000000000       0.90625000000000000        0.0000000000000000     
  0.12500000000000000       0.92187500000000000        0.0000000000000000     
  0.10312499999999999       0.91562500000000002        0.0000000000000000     
  0.11406250000000000       0.91718750000000004        0.0000000000000000     
  0.11562500000000001       0.92812499999999998        0.0000000000000000     
  0.10468750000000000       0.92656249999999996        0.0000000000000000     
   7.8125000000000000E-002  0.87500000000000000        0.0000000000000000     
   9.3750000000000000E-002  0.87500000000000000        0.0000000000000000     
   9.3750000000000000E-002  0.89062500000000000        0.0000000000000000     
   7.1874999999999994E-002  0.88437500000000002        0.0000000000000000     
   8.2812499999999997E-002  0.88593750000000004        0.0000000000000000     
   8.4375000000000006E-002  0.89687499999999998        0.0000000000000000     
   7.3437500000000003E-002  0.89531249999999996        0.0000000000000000     
  0.10937500000000000       0.87500000000000000        0.0000000000000000     
  0.12500000000000000       0.87500000000000000        0.0000000000000000     
  0.12500000000000000       0.89062500000000000        0.0000000000000000     
  0.10312499999999999       0.88437500000000002        0.0000000000000000     
  0.11406250000000000       0.88593750000000004        0.0000000000000000     
  0.11562500000000001       0.89687499999999998        0.0000000000000000     
  0.10468750000000000       0.89531249999999996        0.0000000000000000     
  0.14062500000000000       0.96875000000000000        0.0000000000000000     
  0.15625000000000000       0.96875000000000000        0.0000000000000000     
  0.15625000000000000       0.98437500000000000        0.0000000000000000     
  0.13437499999999999       0.97812500000000002        0.0000000000000000     
  0.14531250000000001       0.97968750000000004        0.0000000000000000     
  0.14687500000000001       0.99062499999999998        0.0000000000000000     
  0.13593749999999999       0.98906249999999996        0.0000000000000000     
  0.17187500000000000       0.96875000000000000        0.0000000000000000     
  0.18750000000000000       0.96875000000000000        0.0000000000000000     
  0.18750000000000000       0.98437500000000000        0.0000000000000000     
  0.16562499999999999       0.97812500000000002        0.0000000000000000     
  0.17656250000000001       0.97968750000000004        0.0000000000000000     
  0.17812500000000001       0.99062499999999998        0.0000000000000000     
[...]
 CELL_DATA       14336
 SCALARS Tumor_cells float
 LOOKUP_TABLE default
    0.23166278958057057693E-14
    0.67453770619573626047E-15
   -0.30689094448257703141E-14
    0.28181997224317595590E-14
   -0.21016031095707503157E-14
    0.53119026663109918724E-14
    0.98927086847979802303E-15
    0.30184237280485687137E-14
    0.82471778908967840002E-15
    0.94686237168570674570E-15
    0.67952515343603188523E-14
    0.16586222930545916018E-14
    0.22927869669256971146E-14
    0.18419499126225711358E-14
   -0.65976400120268408888E-15
   -0.11241780344819509177E-15
    0.13459949871149854855E-14
   -0.28182999607499592843E-15
   -0.50169850507619767265E-15
    0.31566409711840752652E-14
   -0.24463932145484719061E-14
   -0.18874814779055934119E-14
   -0.50075438350963105134E-16
    0.24170672641632325066E-14
    0.28866069325940889606E-14
   -0.87000433573875556179E-15
   -0.70193880899071552188E-15
   -0.17464882281200419398E-14
    0.32690766758328352362E-14
   -0.20560932136039355611E-14
    0.60734313873655184555E-15
    0.35673843164715427205E-14
    0.15554300774286951581E-14
    0.64159392612902816467E-17
    0.19024670312731452978E-16
   -0.14425284444066735317E-14
    0.19742658594364965271E-14
    0.72908166697166149529E-15
   -0.12196895103333625551E-14
   -0.76851616940098331482E-15
   -0.17451422645264491457E-14
    0.52057026792531065683E-15
   -0.16594484012802595877E-14
    0.32758122645211814103E-14
    0.28180071693201233134E-14
    0.11512624712329977245E-14
    0.52746404159978301393E-14
    0.30015936240836430667E-14
   -0.18316985578476537892E-14
    0.20216235784254754904E-14
    0.28872299920579419287E-16
   -0.19195876723338401307E-15
    0.12454206004583817510E-14
   -0.12758558048184828637E-14
    0.74430369673380929080E-15
    0.74576091173896788552E-15
    0.18550144423745034034E-14
   -0.11763864531597967720E-14
    0.28670118039204214568E-14
   -0.11149316383148103424E-14
   -0.21389592377160489754E-14
   -0.20059826888249737518E-14
    0.82014684309251608989E-15
   -0.97824594625385241262E-15
   -0.20506483815439662532E-14
    0.10928838814383997429E-15
   -0.25045262135319909771E-14
    0.72096033107779011041E-15
    0.11751194038849316616E-14
   -0.32659329265460199229E-14
    0.40880416710488084778E-14
   -0.22729053569353520369E-14
   -0.50306104049357778856E-15
    0.29339904886894130029E-14
   -0.30179385048242044782E-14
    0.19124538857362381987E-14
    0.91748786752829095266E-17
   -0.16598283074543390575E-14
    0.11546988789552582675E-14
   -0.29128248144870974194E-15
   -0.70824795732954677542E-15
    0.19421387566518221456E-14
   -0.21805654012857516602E-14
   -0.11332648953845471644E-15
   -0.14801914136889723789E-14
   -0.19958286661227314672E-14
    0.20951098766624705789E-14
   -0.16634658697147471020E-15
    0.11579381383779159823E-14
   -0.39384014990817548487E-15
    0.21949073575409679982E-14
    0.53208882196340532369E-15
   -0.11735786457996466341E-15
    0.19190631934540833696E-14
    0.64923165642762524439E-15
   -0.85187781465867906441E-15
   -0.96495691592078030856E-15
   -0.11366371364675881896E-15
   -0.16445455987540256300E-14
    0.51088309080632901365E-15
    0.99562432211802823021E-15
    0.18872108905129847988E-14
    0.12406725604771800243E-14
   -0.14824851790003539184E-14
   -0.48507909079018160795E-14
   -0.66675403054346787408E-15
    0.10984277311128437097E-14
   -0.31169462095998678438E-14
    0.28464396399054067300E-14
   -0.38380502009198915693E-14
   -0.79869869121313670796E-15
    0.45247832415042945816E-15
   -0.33326213752218015107E-14
    0.15289172130188410273E-14
   -0.99968993995505885618E-16
    0.23088920538520298483E-14
   -0.21681916186226065957E-14
    0.19671975093523047201E-14
   -0.10661502499438109496E-14
   -0.11699875173484621466E-14
    0.10004805233721006632E-14
   -0.13811557304253259173E-14
   -0.16393162758175697842E-14
    0.39094371444602313921E-15
   -0.70624738152326355370E-15
    0.10658154066274201169E-14
    0.17062058568437719814E-14
   -0.13923448315009350545E-14
   -0.13770606729999871548E-14
    0.87001928829578583684E-15
   -0.35479495232224775532E-14
    0.42954294678739123410E-14
   -0.41226038259643661638E-15
    0.54071461512465187727E-15
    0.13648348357609293620E-14
   -0.24458265620084122294E-14
    0.24207604851625497462E-14
    0.22065596561694765973E-14
    0.32218661885611444574E-14
    0.11452795759420372048E-14
   -0.12761024744495177898E-14
   -0.36656044294414180808E-14
    0.16450845656525781506E-14
    0.27586085369581521909E-15
   -0.13631728510261050056E-14
    0.24398954447697513202E-14
    0.38181202528244032306E-15
   -0.13989243348872149974E-15
    0.71862828198348140829E-15
    0.94720042145554501746E-15
    0.46732620099944706439E-15
   -0.85284222371608427015E-15
   -0.14233940343335209098E-14
   -0.57224622551721420630E-16
   -0.23721460051139647920E-14
    0.11578031343087141154E-14
    0.14636453672947806705E-14
    0.14682162288846006848E-14
    0.30006648581417180770E-15
    0.17022359620047014179E-14
   -0.32814466230480712912E-14
    0.47406525753481122480E-14
   -0.25466763191263527883E-14
    0.14380372383038499503E-14
   -0.76363773220677787114E-15
   -0.49239500163712957141E-14
   -0.28658244549509680348E-14
    0.19918842539324341020E-14
    0.85273855760838750785E-15
    0.68307379727654812854E-15
    0.12460453920260480735E-14
    0.10223911568242345550E-14
    0.37881862885819448282E-14
    0.52182318374487889809E-15
   -0.16611894494085010303E-14
    0.10594539862891919515E-14
    0.97635467762125398554E-16
   -0.45831261598563788867E-15
    0.39336654339949066149E-15
    0.28983509773675834580E-14
   -0.20593453244685853098E-14
    0.21517885529239169582E-14
    0.30040034043747863969E-14
    0.21105123942248909277E-14
    0.19829320127894753598E-14
   -0.98869623844478829516E-15
    0.59480658578211214523E-16
    0.12700638439416070872E-14
    0.86550046615899017964E-15
    0.10425178045162091868E-14
    0.23770200739811010472E-14
   -0.25962824544624122051E-14
    0.36905822764207315808E-15
    0.12158795388612256726E-14
   -0.24867578037362016432E-14
    0.26219016845290448707E-14
    0.63836071849573282676E-15
    0.30736055301270021482E-14
   -0.24982852484306151498E-14
    0.10995685390852995143E-14
    0.16866288015144620435E-14
    0.79082900729360524815E-15
    0.28808044275723209768E-14
    0.11504838828733550491E-14
   -0.42470619314708576616E-14
    0.11572587342102266048E-14
   -0.17154316902814178860E-14
   -0.10028602308078137302E-14
    0.15272680388836460769E-14
   -0.19205187303599680066E-14
    0.24793831866323284265E-15
    0.16438376615721896588E-14
    0.62666995952978525013E-15
    0.11135689376745846433E-14
    0.23173838328227071204E-14
    0.12246665548795174397E-15
   -0.42442004488584393221E-15
   -0.83514051330646848231E-15
   -0.32796180035704631433E-15
    0.12540696254814041444E-15
   -0.18314008242962587530E-14
   -0.27367968553043934123E-15
   -0.11746057150087075971E-14
   -0.52206981101649633936E-15
    0.42722654886134786703E-14
    0.15291425026619811262E-14
    0.25915333839064505526E-14
    0.39477763357378416179E-15
   -0.37785533508399346438E-15
   -0.18845452817753132119E-14
    0.33054960788488757141E-14
    0.23267655330537264724E-14
   -0.10939688480898369350E-14
   -0.45819989865654852872E-15
   -0.38942365188406306359E-14
    0.24949122755670111619E-15
    0.26182532000324913183E-14
    0.38681932525865246852E-14
    0.46219529511399587901E-15
   -0.73580419791897140134E-15
   -0.77726977519785799763E-15
    0.16114191275635567695E-14
   -0.34696136148188855520E-14
   -0.36783474890902074705E-14
    0.95062545215950244650E-15
   -0.15861389024753981638E-14
    0.97698333526176272714E-15
    0.33028349162266107387E-15
    0.61396116646964030186E-14
    0.11583125194143473185E-14
    0.45061424643595075033E-15
   -0.11861933999169674911E-14
   -0.58823808706960884841E-15
   -0.12247306336366227101E-14
    0.25834851862955622173E-14
    0.24468484126572391093E-14
   -0.26365613403474424919E-14
    0.10174352079235907918E-14
   -0.17163237792741619426E-14
   -0.53094691064376960762E-15
   -0.17435470205929258480E-14
    0.18272600393501206364E-14
    0.18633550116473936911E-14
    0.25614830150118950478E-14
   -0.23574469564320518738E-15
    0.11580918661576532891E-14
   -0.22609343055867758960E-14
   -0.27498300461224204322E-14
    0.37741076641275306197E-15
    0.20074118660516833986E-14
   -0.19023727995765462459E-14
    0.74372386064260114215E-15
    0.47228705839479966509E-15
   -0.85326257673258587011E-15
    0.45373310936145690619E-14
   -0.78278240967343942340E-15
    0.43924543749587384465E-14
    0.19443135824320356688E-14
   -0.23924523900604634455E-14
    0.15609386072773839778E-14
   -0.19643851320158973080E-15
   -0.70875175009833960735E-15
    0.14585539227189446849E-14
    0.13166058649210995770E-14
   -0.48399913674239044394E-15
    0.27798393088674808644E-14
   -0.48242915602822396996E-15
    0.91262251683912464459E-16
   -0.13809728770977841897E-14
    0.13766735599002707192E-14
    0.13571128824550504603E-14
   -0.37906355675163026098E-14
    0.19664581216470243771E-14
    0.14884605214066370466E-14
    0.44263692181756702340E-15
    0.25016122229221683125E-15
    0.26144297579354631600E-16
   -0.12517691383187825800E-14
   -0.24379850466845518252E-14
   -0.32241050266735433166E-15
   -0.33499184079105858323E-15
   -0.22856725491331691257E-14
    0.25604514824562388805E-14
    0.13017541176632271044E-14
   -0.16256498665226657518E-14
    0.28664468786665505814E-15
   -0.34999846248378264514E-15
   -0.11947805105360530411E-14
    0.17083230733010195770E-14
    0.59763598380119768184E-15
    0.83378883396590777731E-15
   -0.21644121847283940090E-14
   -0.93512661725082772163E-15
   -0.25657630543148233699E-14
    0.24001362848171415153E-14
    0.15746224356644061573E-14
    0.18138606942589497132E-14
   -0.14314924067865041300E-15
    0.24076464032145437413E-14
    0.62965813634775317851E-15
   -0.37920825299733994318E-15
   -0.22762091970752706915E-14
   -0.35268143241319144073E-14
   -0.16647107959883250175E-14
    0.37429740928084556683E-15
   -0.16540864139573310640E-14
    0.37102992692816203601E-14
   -0.12825800549177751714E-15
   -0.21624127715475678116E-15
   -0.20747327708485244131E-14
   -0.47730931512846716649E-15
    0.21458846389407803169E-14
   -0.40116845601475608767E-14
   -0.21740931679582303811E-14
    0.34541325330715738227E-14
   -0.11472439180941983992E-15
   -0.10891609864654672509E-14
    0.25608349513056710356E-14
    0.30489170126489085360E-14
   -0.28062780359095103520E-15
   -0.21190703360788993004E-14
   -0.33299954482108856588E-14
   -0.71520104705627459024E-15
   -0.19503802944871562974E-14
   -0.28583181246635604993E-14
   -0.41926816761437466644E-15
    0.27705972557086733888E-15
    0.34257602015136637805E-14
    0.13780497089799306999E-14
   -0.22577799464772345267E-14
    0.89721027284821778683E-15
   -0.37917791479439827619E-14
   -0.26763247373055000384E-14
    0.32680277503412552974E-14
    0.62239913437735235803E-15
   -0.18991993356371656135E-14
   -0.19086742765487662075E-14
    0.18629149521226882514E-14
    0.11874211777141541015E-14
    0.39318569509794707164E-14
    0.18123768523995044973E-14
    0.85237777660545667035E-16
   -0.17645477968849194821E-14
   -0.10756086279750869337E-14
   -0.19126300133801826755E-15
    0.40917262054244677335E-14
    0.16551775101339003251E-14
   -0.41623273605231871603E-15
   -0.46487903658052655496E-15
    0.34319874814459354385E-16
   -0.23294393146018264689E-16
    0.11810979880564397738E-15
    0.11329930170162666920E-14
   -0.21147768555718947665E-14
   -0.51889942445210229453E-15
    0.26524700647925677191E-14
   -0.10727416927932348279E-14
    0.14372773493349496705E-14
   -0.76430040386712685362E-15
    0.18961413606834058155E-14
    0.11850761592248414330E-14
    0.59860492888881497027E-15
   -0.91735867356762413296E-16
    0.85614764094722754150E-15
    0.26732775001101707175E-14
   -0.13185626165691528038E-14
   -0.36480997712596540779E-15
   -0.30199929363462328023E-14
   -0.11874152010177707401E-14
    0.37296983955579237823E-15
   -0.44538787139198708830E-15
    0.32130893531989402600E-15
   -0.15922516757766437006E-14
   -0.15468393958612945613E-16
    0.51716021897069850980E-16
   -0.22208296050814801716E-14
    0.72036670469953102663E-16
   -0.47360227832088977079E-15
    0.45800843959518469281E-15
    0.15077704858352446995E-14
    0.15915477002279678020E-14
    0.29263354288116952073E-14
   -0.46032628342622506378E-15
    0.11815814077935531940E-14
    0.25527327214070638540E-14
    0.94388139632579751379E-15
   -0.23737884032365386751E-14
    0.44466204566056307034E-15
    0.22878180732383676152E-14
   -0.49221370591397383908E-15
    0.15454403972925882046E-14
   -0.41792511651723083300E-15
   -0.11343175599952462312E-14
   -0.35045677477597041333E-14
    0.96150760002026983690E-16
    0.30565122586132042509E-14
   -0.69027198104906560127E-14
   -0.22166037723365916820E-14
    0.48435670090200875150E-15
   -0.52717563520668290442E-16
   -0.33693653880228134267E-14
    0.83416963063842066533E-15
   -0.31618250340351994981E-16
    0.22616770593252981526E-14
   -0.23894975617798129087E-14
    0.24397132323997390994E-14
   -0.36226674938152127771E-15
   -0.12926465839741578190E-14
    0.15332728952601464432E-14
    0.27927120287030669217E-14
    0.17246532891747849621E-15
   -0.91846295035238298356E-15
   -0.22923067991673894141E-14
    0.72809751241457463950E-15
    0.23848860790904953443E-14
   -0.18623057530290689505E-14
   -0.81462591162631212477E-15
   -0.12367112406063105115E-14
   -0.14881158228110198239E-14
   -0.17807381061021500781E-14
   -0.12146792944130302716E-14
   -0.17075144979321659991E-14
   -0.45783670759914269929E-14
    0.81048317926047172153E-15
   -0.40202387714068666171E-14
    0.52750788564071179470E-14
    0.15992184522258028591E-14
    0.28531053329606344031E-14
   -0.41741981407120694923E-16
   -0.64189214470068385957E-15
    0.18756966993544418824E-14
    0.29003589693844094803E-14
   -0.88192267369508971243E-15
    0.23348929357777247790E-14
   -0.29504159821665012238E-15
   -0.28572122735062036439E-14
    0.19057052088196097101E-14
   -0.72142227555996678093E-15
    0.17123359687763496003E-14
    0.44726577255653245494E-14
    0.23903031782776120733E-16
    0.22266657516930520193E-14
   -0.21233717820496118008E-14
   -0.15739199008710891653E-14
    0.41619690702713173015E-15
    0.32117531797785067857E-14
    0.71620039267337566284E-15
   -0.99218155637007014962E-15
    0.19333504996433469700E-14
    0.55773793378422309758E-15
    0.33114459405175049220E-15
   -0.30700308181680541182E-14
    0.97371443786252575167E-15
    0.15386356252774572600E-14
    0.22014599204953992211E-14
   -0.95865654529333468578E-15
    0.11250577139163234343E-14
   -0.26300182382997195848E-14
   -0.11350071849714319857E-14
    0.59050123373679930561E-15
    0.20011692577260432315E-14
   -0.66537292770936217356E-15
    0.80942268602448345767E-15
    0.19937506665441029087E-14
   -0.13877219155954323555E-15
    0.10660764398711539774E-14
   -0.10227650704334587071E-14
   -0.10264863151159894869E-14
    0.15665486071168528607E-14
    0.80562601554493797947E-15
    0.22300407904005556619E-14
   -0.34483977209981040927E-14
    0.17107688648797302631E-14
   -0.17866987230933545054E-15
   -0.44786178579198579851E-14
   -0.11449877499825747577E-14
    0.13717952439648872824E-14
    0.46018892001266434001E-14
   -0.14853167045468598031E-15
    0.29582126733343938717E-14
   -0.26958008334511311628E-15
   -0.49420371003020700897E-15
    0.16988587939426484902E-14
   -0.23859579684148185161E-14
   -0.37875609171722351875E-14
   -0.23855486623330901721E-14
   -0.11217672903245245359E-14
    0.15228892014156060897E-14
    0.36402087101116453893E-14
   -0.11438606244218399962E-14
    0.89591874763679577830E-15
    0.11014659022937786219E-14
   -0.12718994588217906005E-14
   -0.19264752266721293013E-14
   -0.17789725616900561219E-14
    0.47672760750047459329E-15
   -0.10722139412898124325E-14
   -0.16800515002869663783E-14
   -0.83264490751323468083E-15
   -0.21672811643345790370E-15
   -0.11256071357261437869E-14
    0.14199297930247351070E-14
   -0.26830038443744101398E-14
    0.57255475845144497636E-15
    0.30515776391850169611E-14
    0.51408749692110418144E-15
   -0.38499788334083852720E-14
    0.11704522018251538669E-14
    0.12909661852941940864E-14
    0.13154401770182037942E-15
    0.21378519677731571499E-14
   -0.11039027977730953034E-14
    0.16762756244678073102E-14
   -0.64822771651021079959E-15
    0.15629890206758255794E-14
   -0.14789140439703160973E-14
   -0.27864682896345262724E-14
    0.10298480394516116257E-14
   -0.96400722592840977458E-15
   -0.11672606248929102043E-14
    0.27098850704659308742E-14
   -0.12464113400747406547E-14
    0.68702474909394108889E-15
   -0.65246741951342862248E-15
   -0.37156928199672556867E-14
   -0.78634856050296529948E-15
    0.25292053998242902779E-14
   -0.70638146051557817433E-15
   -0.12205891748293162668E-14
   -0.20505409518734835876E-17
    0.29541956941909258630E-14
   -0.28667913075638511398E-14
    0.60558587220606914384E-15
    0.21295736081467548629E-14
   -0.20193195831400363003E-14
    0.80066130234239263182E-15
   -0.19545525630360945976E-14
    0.33188915781434520376E-14
   -0.10059232654085183135E-14
    0.16426573691128203854E-15
    0.34372729543177822429E-14
    0.80473631575231476425E-15
   -0.18158311322166154834E-14
   -0.35389368155592133934E-16
    0.11008237241776274237E-14
   -0.19712066001133365909E-14
   -0.37404614106846750445E-14
   -0.81158175713216317754E-15
    0.23432820628113169648E-14
    0.28081015952071005635E-14
    0.35547205018892518706E-14
   -0.64483890848569120849E-15
    0.17287690792602451478E-14
    0.26471361929091740193E-14
   -0.17015219453784131564E-14
    0.48299696128510462000E-15
   -0.56906222501194021363E-15
    0.17023526476401826135E-14
   -0.40549835845233648360E-15
   -0.58069317743001393181E-15
    0.17655093082287896343E-14
   -0.28930145363072502185E-14
   -0.13863501911614707756E-14
   -0.18810119493835681288E-14
    0.17045210225492670750E-14
    0.21566979179028153538E-14
   -0.47152084944776409899E-15
    0.11529884959394133333E-14
   -0.32608843132180336797E-14
    0.15999653157257387198E-15
   -0.17832626380691361527E-15
   -0.50857862522583403877E-15
   -0.85793236154311713385E-15
    0.21180138341649303604E-14
   -0.33648480760392786762E-14
   -0.10216191599198737969E-14
   -0.21143040881194913988E-14
    0.15086971565986177113E-14
   -0.25164252304356541745E-15
    0.10672167929914669015E-15
   -0.12808548381229512429E-14
   -0.86116710839858194365E-16
   -0.55619526023192915985E-15
    0.24858229945901907874E-14
    0.11886928394883194507E-14
    0.12357693169938712674E-14
   -0.76835821240803691494E-15
   -0.29429535587221253795E-14
   -0.21896522327085184052E-14
   -0.71695525395715831041E-15
    0.23737110148248605379E-14
    0.10184131747992484448E-14
   -0.52063723968053491979E-15
   -0.10451148798336219827E-14
    0.11314242692083368368E-14
    0.22493677231454693831E-14
   -0.28833104474206581705E-14
    0.17929693835145726833E-14
   -0.12796362047713164376E-14
    0.87219176805363693654E-15
    0.25634759846068186378E-15
   -0.15021555045075466365E-14
    0.35174381624601311224E-14
   -0.11041398269403385508E-14
    0.18561578778874278910E-14
    0.17476504333797495442E-14
    0.14905477183237275211E-14
   -0.35114711701184993613E-15
   -0.16546723739556604670E-14
    0.19282538986915769746E-14
    0.58444979039103036289E-14
   -0.43089378755186252131E-15
   -0.48169799575230352195E-16
   -0.12057241633611310529E-15
   -0.15569551111282652072E-14
   -0.27308723138079105917E-14
   -0.12230655825434784428E-14
   -0.21602954270322082975E-14
   -0.14896909098129673786E-14
    0.10852837340166204654E-14
   -0.23140235956277153813E-14
    0.10019473403572773982E-14