# vtk DataFile Version 3.0
LAPLACIEN  2D
ASCII
DATASET UNSTRUCTURED_GRID
FIELD FieldData 1
TIME 1 1 double
16.1000
 POINTS        7297  float
   1.5625000000000000E-002  0.96875000000000000        0.0000000000000000     
   3.1250000000000000E-002  0.96875000000000000        0.0000000000000000     
   3.1250000000000000E-002  0.98437500000000000        0.0000000000000000     
   9.3749999999999997E-003  0.97812500000000002        0.0000000000000000     
   2.0312500000000001E-002  0.97968750000000004        0.0000000000000000     
   2.1874999999999999E-002  0.99062499999999998        0.0000000000000000     
   1.0937499999999999E-002  0.98906249999999996        0.0000000000000000     
   4.6875000000000000E-002  0.96875000000000000        0.0000000000000000     
   6.2500000000000000E-002  0.96875000000000000        0.0000000000000000     
   6.2500000000000000E-002  0.98437500000000000        0.0000000000000000     
   4.0625000000000001E-002  0.97812500000000002        0.0000000000000000     
   5.1562499999999997E-002  0.97968750000000004        0.0000000000000000     
   5.3124999999999999E-002  0.99062499999999998        0.0000000000000000     
   4.2187500000000003E-002  0.98906249999999996        0.0000000000000000     
   1.5625000000000000E-002  0.93750000000000000        0.0000000000000000     
   3.1250000000000000E-002  0.93750000000000000        0.0000000000000000     
   3.1250000000000000E-002  0.95312500000000000        0.0000000000000000     
   9.3749999999999997E-003  0.94687500000000002        0.0000000000000000     
   2.0312500000000001E-002  0.94843750000000004        0.0000000000000000     
   2.1874999999999999E-002  0.95937499999999998        0.0000000000000000     
   1.0937499999999999E-002  0.95781249999999996        0.0000000000000000     
   4.6875000000000000E-002  0.93750000000000000        0.0000000000000000     
   6.2500000000000000E-002  0.93750000000000000        0.0000000000000000     
   6.2500000000000000E-002  0.95312500000000000        0.0000000000000000     
   4.0625000000000001E-002  0.94687500000000002        0.0000000000000000     
   5.1562499999999997E-002  0.94843750000000004        0.0000000000000000     
   5.3124999999999999E-002  0.95937499999999998        0.0000000000000000     
   4.2187500000000003E-002  0.95781249999999996        0.0000000000000000     
   7.8125000000000000E-002  0.96875000000000000        0.0000000000000000     
   9.3750000000000000E-002  0.96875000000000000        0.0000000000000000     
   9.3750000000000000E-002  0.98437500000000000        0.0000000000000000     
   7.1874999999999994E-002  0.97812500000000002        0.0000000000000000     
   8.2812499999999997E-002  0.97968750000000004        0.0000000000000000     
   8.4375000000000006E-002  0.99062499999999998        0.0000000000000000     
   7.3437500000000003E-002  0.98906249999999996        0.0000000000000000     
  0.10937500000000000       0.96875000000000000        0.0000000000000000     
  0.12500000000000000       0.96875000000000000        0.0000000000000000     
  0.12500000000000000       0.98437500000000000        0.0000000000000000     
  0.10312499999999999       0.97812500000000002        0.0000000000000000     
  0.11406250000000000       0.97968750000000004        0.0000000000000000     
  0.11562500000000001       0.99062499999999998        0.0000000000000000     
  0.10468750000000000       0.98906249999999996        0.0000000000000000     
   7.8125000000000000E-002  0.93750000000000000        0.0000000000000000     
   9.3750000000000000E-002  0.93750000000000000        0.0000000000000000     
   9.3750000000000000E-002  0.95312500000000000        0.0000000000000000     
   7.1874999999999994E-002  0.94687500000000002        0.0000000000000000     
   8.2812499999999997E-002  0.94843750000000004        0.0000000000000000     
   8.4375000000000006E-002  0.95937499999999998        0.0000000000000000     
   7.3437500000000003E-002  0.95781249999999996        0.0000000000000000     
  0.10937500000000000       0.93750000000000000        0.0000000000000000     
  0.12500000000000000       0.93750000000000000        0.0000000000000000     
  0.12500000000000000       0.95312500000000000        0.0000000000000000     
  0.10312499999999999       0.94687500000000002        0.0000000000000000     
  0.11406250000000000       0.94843750000000004        0.0000000000000000     
  0.11562500000000001       0.95937499999999998        0.0000000000000000     
  0.10468750000000000       0.95781249999999996        0.0000000000000000     
   1.5625000000000000E-002  0.90625000000000000        0.0000000000000000     
   3.1250000000000000E-002  0.90625000000000000        0.0000000000000000     
   3.1250000000000000E-002  0.92187500000000000        0.0000000000000000     
   9.3749999999999997E-003  0.91562500000000002        0.0000000000000000     
   2.0312500000000001E-002  0.91718750000000004        0.0000000000000000     
   2.1874999999999999E-002  0.92812499999999998        0.0000000000000000     
   1.0937499999999999E-002  0.92656249999999996        0.0000000000000000     
   4.6875000000000000E-002  0.90625000000000000        0.0000000000000000     
   6.2500000000000000E-002  0.90625000000000000        0.0000000000000000     
   6.2500000000000000E-002  0.92187500000000000        0.0000000000000000     
   4.0625000000000001E-002  0.91562500000000002        0.0000000000000000     
   5.1562499999999997E-002  0.91718750000000004        0.0000000000000000     
   5.3124999999999999E-002  0.92812499999999998        0.0000000000000000     
   4.2187500000000003E-002  0.92656249999999996        0.0000000000000000     
   1.5625000000000000E-002  0.87500000000000000        0.0000000000000000     
   3.1250000000000000E-002  0.87500000000000000        0.0000000000000000     
   3.1250000000000000E-002  0.89062500000000000        0.0000000000000000     
   9.3749999999999997E-003  0.88437500000000002        0.0000000000000000     
   2.0312500000000001E-002  0.88593750000000004        0.0000000000000000     
   2.1874999999999999E-002  0.89687499999999998        0.0000000000000000     
   1.0937499999999999E-002  0.89531249999999996        0.0000000000000000     
   4.6875000000000000E-002  0.87500000000000000        0.0000000000000000     
   6.2500000000000000E-002  0.87500000000000000        0.0000000000000000     
   6.2500000000000000E-002  0.89062500000000000        0.0000000000000000     
   4.0625000000000001E-002  0.88437500000000002        0.0000000000000000     
   5.1562499999999997E-002  0.88593750000000004        0.0000000000000000     
   5.3124999999999999E-002  0.89687499999999998        0.0000000000000000     
   4.2187500000000003E-002  0.89531249999999996        0.0000000000000000     
   7.8125000000000000E-002  0.90625000000000000        0.0000000000000000     
   9.3750000000000000E-002  0.90625000000000000        0.0000000000000000     
   9.3750000000000000E-002  0.92187500000000000        0.0000000000000000     
   7.1874999999999994E-002  0.91562500000000002        0.0000000000000000     
   8.2812499999999997E-002  0.91718750000000004        0.0000000000000000     
   8.4375000000000006E-002  0.92812499999999998        0.0000000000000000     
   7.3437500000000003E-002  0.92656249999999996        0.0000000000000000     
  0.10937500000000000       0.90625000000000000        0.0000000000000000     
  0.12500000000000000       0.90625000000000000        0.0000000000000000     
  0.12500000000000000       0.92187500000000000        0.0000000000000000     
  0.10312499999999999       0.91562500000000002        0.0000000000000000     
  0.11406250000000000       0.91718750000000004        0.0000000000000000     
  0.11562500000000001       0.92812499999999998        0.0000000000000000     
  0.10468750000000000       0.92656249999999996        0.0000000000000000     
   7.8125000000000000E-002  0.87500000000000000        0.0000000000000000     
   9.3750000000000000E-002  0.87500000000000000        0.0000000000000000     
   9.3750000000000000E-002  0.89062500000000000        0.0000000000000000     
   7.1874999999999994E-002  0.88437500000000002        0.0000000000000000     
   8.2812499999999997E-002  0.88593750000000004        0.0000000000000000     
   8.4375000000000006E-002  0.89687499999999998        0.0000000000000000     
   7.3437500000000003E-002  0.89531249999999996        0.0000000000000000     
  0.10937500000000000       0.87500000000000000        0.0000000000000000     
  0.12500000000000000       0.87500000000000000        0.0000000000000000     
  0.12500000000000000       0.89062500000000000        0.0000000000000000     
  0.10312499999999999       0.88437500000000002        0.0000000000000000     
  0.11406250000000000       0.88593750000000004        0.0000000000000000     
  0.11562500000000001       0.89687499999999998        0.0000000000000000     
  0.10468750000000000       0.89531249999999996        0.0000000000000000     
  0.14062500000000000       0.96875000000000000        0.0000000000000000     
  0.15625000000000000       0.96875000000000000        0.0000000000000000     
  0.15625000000000000       0.98437500000000000        0.0000000000000000     
  0.13437499999999999       0.97812500000000002        0.0000000000000000     
  0.14531250000000001       0.97968750000000004        0.0000000000000000     
  0.14687500000000001       0.99062499999999998        0.0000000000000000     
  0.13593749999999999       0.98906249999999996        0.0000000000000000     
  0.17187500000000000       0.96875000000000000        0.0000000000000000     
  0.18750000000000000       0.96875000000000000        0.0000000000000000     
  0.18750000000000000       0.98437500000000000        0.0000000000000000     
  0.16562499999999999       0.97812500000000002        0.0000000000000000     
  0.17656250000000001       0.97968750000000004        0.0000000000000000     
[...]
 CELL_DATA       14336
 SCALARS Tumor_cells float
 LOOKUP_TABLE default
    0.51235940075560974794E-01
    0.51235939660396773165E-01
    0.51235942955484892192E-01
    0.51235942955484163608E-01
    0.51235939660399548723E-01
    0.51235940075558393525E-01
    0.51235937467096329123E-01
    0.51235935921253736303E-01
    0.51235934251660245065E-01
    0.51235934251643931725E-01
    0.51235935921262187875E-01
    0.51235937467092929065E-01
    0.51235937225758254598E-01
    0.51235937225755617819E-01
    0.51235950923316807282E-01
    0.51235953814088727731E-01
    0.51235961662571216646E-01
    0.51235963838230022538E-01
    0.51235957950664448579E-01
    0.51235960767812560590E-01
    0.51235954599809729881E-01
    0.51235949473546003874E-01
    0.51235944059581470245E-01
    0.51235942131361587870E-01
    0.51235945494234297337E-01
    0.51235945081787789834E-01
    0.51235950365425081410E-01
    0.51235951521262340647E-01
    0.51235960767813629180E-01
    0.51235957950664490212E-01
    0.51235963838230771938E-01
    0.51235961662571369302E-01
    0.51235953814089713054E-01
    0.51235950923316030126E-01
    0.51235945081789663336E-01
    0.51235945494232784658E-01
    0.51235942131363974850E-01
    0.51235944059579610621E-01
    0.51235949473547461042E-01
    0.51235954599809840904E-01
    0.51235951521263221886E-01
    0.51235950365425150799E-01
    0.51235975353023148482E-01
    0.51235976620698807371E-01
    0.51235988915738710225E-01
    0.51235988915738640836E-01
    0.51235976620698793493E-01
    0.51235975353022600309E-01
    0.51235964462553906795E-01
    0.51235961360323767355E-01
    0.51235953269530759568E-01
    0.51235953269530010168E-01
    0.51235961360324405733E-01
    0.51235964462553927612E-01
    0.51235968040404540613E-01
    0.51235968040404339385E-01
    0.51235979954025970273E-01
    0.51235987788412207244E-01
    0.51236003139309267695E-01
    0.51236008862655883778E-01
    0.51235998705126684083E-01
    0.51236005580418152172E-01
    0.51235993449424442614E-01
    0.51235982197081066103E-01
    0.51235970565038625735E-01
    0.51235965654026341398E-01
    0.51235971855444061018E-01
    0.51235968872953417674E-01
    0.51235982431217061417E-01
    0.51235985524007307546E-01
    0.51236038172856879225E-01
    0.51236054003114102351E-01
    0.51236081191205082308E-01
    0.51236092254362847198E-01
    0.51236075088296764712E-01
    0.51236087828549894962E-01
    0.51236066330660419432E-01
    0.51236045897894953727E-01
    0.51236024664334099687E-01
    0.51236015021365328981E-01
    0.51236025923721811859E-01
    0.51236018717478154505E-01
    0.51236045484040045050E-01
    0.51236051495246771881E-01
    0.51236013482253907336E-01
    0.51236019611675717722E-01
    0.51236041214227867613E-01
    0.51236044098182463580E-01
    0.51236024889962636375E-01
    0.51236025992156923603E-01
    0.51236007054048987586E-01
    0.51235998696138922159E-01
    0.51235983216804323326E-01
    0.51235980885778090177E-01
    0.51235993847783552202E-01
    0.51235995298596993808E-01
    0.51236007163807509301E-01
    0.51236008645217753776E-01
    0.51236085811159480519E-01
    0.51236099946686403106E-01
    0.51236137206491165486E-01
    0.51236144929611225629E-01
    0.51236114125648019035E-01
    0.51236119052265535756E-01
    0.51236087023457409229E-01
    0.51236070164194784382E-01
    0.51236042802887467318E-01
    0.51236036608050539165E-01
    0.51236057178191053707E-01
    0.51236056015668829389E-01
    0.51236081260005297833E-01
    0.51236085233460591792E-01
    0.51236005580419789751E-01
    0.51235998705127981656E-01
    0.51236008862657292373E-01
    0.51236003139310523635E-01
    0.51235987788413317467E-01
    0.51235979954026580896E-01
    0.51235968872954402997E-01
    0.51235971855444616130E-01
    0.51235965654027479377E-01
    0.51235970565039250235E-01
    0.51235982197082349798E-01
    0.51235993449425795698E-01
    0.51235985524008535730E-01
    0.51235982431218053679E-01
    0.51236025992158311382E-01
    0.51236024889963552309E-01
    0.51236044098183539108E-01
    0.51236041214228471297E-01
    0.51236019611676369978E-01
    0.51236013482253942031E-01
    0.51235995298597417080E-01
    0.51235993847783829758E-01
    0.51235980885778888150E-01
    0.51235983216804781293E-01
    0.51235998696139949116E-01
    0.51236007054050014542E-01
    0.51236008645218572566E-01
    0.51236007163808182374E-01
    0.51236087828552830115E-01
    0.51236075088299373737E-01
    0.51236092254365622756E-01
    0.51236081191207497043E-01
    0.51236054003116288103E-01
    0.51236038172858537620E-01
    0.51236018717479868412E-01
    0.51236025923723581277E-01
    0.51236015021367133093E-01
    0.51236024664336000944E-01
    0.51236045897897285195E-01
    0.51236066330663063151E-01
    0.51236051495249068655E-01
    0.51236045484042230802E-01
    0.51236119052268082330E-01
    0.51236114125650301931E-01
    0.51236144929613473831E-01
    0.51236137206493261032E-01
    0.51236099946688047624E-01
    0.51236085811160805847E-01
    0.51236056015669918795E-01
    0.51236057178192524753E-01
    0.51236036608051954699E-01
    0.51236042802889215919E-01
    0.51236070164196768906E-01
    0.51236087023459844780E-01
    0.51236085233462548560E-01
    0.51236081260007053373E-01
    0.51236079218184689410E-01
    0.51236083983960560573E-01
    0.51236116063170904222E-01
    0.51236116063170820956E-01
    0.51236083983960234445E-01
    0.51236079218184078787E-01
    0.51236049993085300280E-01
    0.51236043222476268522E-01
    0.51236020809713338220E-01
    0.51236020809713504753E-01
    0.51236043222476532200E-01
    0.51236049993085973353E-01
    0.51236061742485093651E-01
    0.51236061742485003445E-01
    0.51236178383550663729E-01
    0.51236192532847772696E-01
    0.51236246623348052909E-01
    0.51236251680712496803E-01
    0.51236201331804551162E-01
    0.51236198673986703411E-01
    0.51236150195506660610E-01
    0.51236134528862380122E-01
    0.51236096199711034238E-01
    0.51236092776028710483E-01
    0.51236126978264712184E-01
    0.51236132145889907996E-01
    0.51236159768766859068E-01
    0.51236162162528811614E-01
    0.51236198673988889163E-01
    0.51236201331806154047E-01
    0.51236251680714189893E-01
    0.51236246623349156193E-01
    0.51236192532848730263E-01
    0.51236178383550934345E-01
    0.51236132145890317391E-01
    0.51236126978265399134E-01
    0.51236092776029661111E-01
    0.51236096199712088950E-01
    0.51236134528863885862E-01
    0.51236150195508520233E-01
    0.51236162162530116126E-01
    0.51236159768767941536E-01
    0.51236343844856070684E-01
    0.51236357271642295197E-01
    0.51236438899303821115E-01
    0.51236438899303675398E-01
    0.51236357271641781719E-01
    0.51236343844855099239E-01
    0.51236269705283110643E-01
    0.51236253750480256763E-01
    0.51236197218228106409E-01
    0.51236197218228363148E-01
    0.51236253750480645341E-01
    0.51236269705284241682E-01
    0.51236301045576658486E-01
    0.51236301045576554403E-01
    0.51236142924385670583E-01
    0.51236171451613993222E-01
    0.51236218656619085532E-01
    0.51236238503350101103E-01
    0.51236209123345081984E-01
    0.51236231659568906571E-01
    0.51236194476572502476E-01
    0.51236158683632709865E-01
    0.51236121642189880188E-01
    0.51236104517896050026E-01
    0.51236123149883398831E-01
    0.51236109705329033193E-01
    0.51236157327824362329E-01
    0.51236168045975319374E-01
    0.51236326732268432094E-01
    0.51236376677839819138E-01
    0.51236458959658150170E-01
    0.51236493256527529394E-01
    0.51236441873743682196E-01
    0.51236480274284679215E-01
    0.51236416182188063151E-01
    0.51236354472960779494E-01
    0.51236290310609951260E-01
    0.51236260623429945305E-01
    0.51236292775922148701E-01
    0.51236269038923865082E-01
    0.51236352175811135379E-01
    0.51236370764480364259E-01
    0.51236216312515389659E-01
    0.51236244067501442168E-01
    0.51236308868033181296E-01
    0.51236324801526594852E-01
    0.51236272916093825169E-01
    0.51236283569460715215E-01
    0.51236228238151507175E-01
    0.51236197597991924024E-01
    0.51236150145210691831E-01
    0.51236137945035876984E-01
    0.51236171659144298662E-01
    0.51236166292872357964E-01
    0.51236214090487612605E-01
    0.51236222109635333466E-01
    0.51236449027197233930E-01
    0.51236500362959451482E-01
    0.51236614358550508497E-01
    0.51236643752323791923E-01
    0.51236553185274535949E-01
    0.51236572244355245431E-01
    0.51236475700914149711E-01
    0.51236421722614326757E-01
    0.51236338984468790536E-01
    0.51236316860013821073E-01
    0.51236374522498670525E-01
    0.51236362757420599034E-01
    0.51236449168840021706E-01
    0.51236463808051364854E-01
    0.51236646333148588850E-01
    0.51236731334360699486E-01
    0.51236873055914879116E-01
    0.51236929459512456364E-01
    0.51236839768214706425E-01
    0.51236902539463259620E-01
    0.51236794039733392359E-01
    0.51236689950158419149E-01
    0.51236580689883508277E-01
    0.51236530059053576880E-01
    0.51236585928273056800E-01
    0.51236546014049713649E-01
    0.51236687668918888539E-01
    0.51236718782234562386E-01
    0.51237192609696648182E-01
    0.51237330981233071558E-01
    0.51237570945197936922E-01
    0.51237657999550746679E-01
    0.51237502409335208831E-01
    0.51237599341613232484E-01
    0.51237421039402444856E-01
    0.51237251055961753610E-01
    0.51237069434291647452E-01
    0.51236985927343089986E-01
    0.51237082198619804396E-01
    0.51237018819703369910E-01
    0.51237252384207676581E-01
    0.51237302218228676642E-01
    0.51236863450315695001E-01
    0.51236954365577437598E-01
    0.51237156696058425154E-01
    0.51237206677982233272E-01
    0.51237044105579540587E-01
    0.51237072773262698488E-01
    0.51236903791713396539E-01
    0.51236812405018303251E-01
    0.51236668227387816010E-01
    0.51236630344209041499E-01
    0.51236731793381576350E-01
    0.51236710990483262662E-01
    0.51236862965415540250E-01
    0.51236887913885177659E-01
    0.51237597193696499120E-01
    0.51237750643915565274E-01
    0.51238108299569061488E-01
    0.51238184757562560412E-01
    0.51237889888199855681E-01
    0.51237922921080640559E-01
    0.51237629093209044462E-01
    0.51237482065863385050E-01
    0.51237233529483325323E-01
    0.51237172624038533619E-01
    0.51237354468729942591E-01
    0.51237324605289825963E-01
    0.51237582030867236116E-01
    0.51237621107686155686E-01
    0.51236355988816956186E-01
    0.51236386731962124674E-01
    0.51236479400953771624E-01
    0.51236493685598932801E-01
    0.51236411058461259205E-01
    0.51236412206665624125E-01
    0.51236329459925539220E-01
    0.51236298243977060340E-01
    0.51236232176869046795E-01
    0.51236222984276699743E-01
    0.51236277857197108643E-01
    0.51236280403180699261E-01
    0.51236335480749385651E-01
    0.51236342016492630869E-01
    0.51236673408944860553E-01
    0.51236735017363477240E-01
    0.51236898555094077812E-01
    0.51236930125471667752E-01
    0.51236787784196727302E-01
    0.51236794764746247666E-01
    0.51236649473067143179E-01
    0.51236591167756417864E-01
    0.51236475006724201131E-01
    0.51236455697948761479E-01
    0.51236547795067886868E-01
    0.51236545144116338313E-01
    0.51236650503670766454E-01
    0.51236664575948900890E-01
    0.51236595835292816914E-01
    0.51236629924718578299E-01
    0.51236765308650351891E-01
    0.51236776503002318117E-01
    0.51236648257164681131E-01
    0.51236637867757846287E-01
    0.51236514646306394183E-01
    0.51236479312882457493E-01
    0.51236383769492799267E-01
    0.51236377332676892593E-01
    0.51236464600689181348E-01
    0.51236479260910870737E-01
    0.51236546186202297504E-01
    0.51236551020927945110E-01
    0.51237037934514957638E-01
    0.51237113902232685192E-01
    0.51237347580054444507E-01
    0.51237383742764375238E-01
    0.51237171674633749663E-01
    0.51237169678237784454E-01
    0.51236955858997082491E-01
    0.51236883321372932165E-01
    0.51236716884663816018E-01
    0.51236697799355426786E-01
    0.51236838542239475369E-01
    0.51236847900444686121E-01
    0.51236982807769858306E-01
    0.51236997817110864484E-01
    0.51237249731488077042E-01
    0.51237367655322815785E-01
    0.51237663216037711289E-01
    0.51237724100977127817E-01
    0.51237468197276432591E-01
    0.51237480694477470500E-01
    0.51237220254806710440E-01
    0.51237116024287300553E-01
    0.51236908977895088968E-01
    0.51236872804911591517E-01
    0.51237034161861108594E-01
    0.51237023440669444974E-01
    0.51237219225302409187E-01
    0.51237245925809991876E-01
    0.51238305669314740398E-01
    0.51238521017503826926E-01
    0.51239062037033641928E-01
    0.51239166489699089491E-01
    0.51238692669215622766E-01
    0.51238699387026305498E-01
    0.51238228560331063044E-01
    0.51238052230465784553E-01
    0.51237681543413793328E-01
    0.51237620199875939797E-01
    0.51237913038769414276E-01
    0.51237894219203751478E-01
    0.51238247360012673104E-01
    0.51238292877611432696E-01
    0.51237841272821008087E-01
    0.51238001988818532295E-01
    0.51238424686891020920E-01
    0.51238510405118814495E-01
    0.51238137464448475777E-01
    0.51238149370386350256E-01
    0.51237763477280130753E-01
    0.51237622384474615367E-01
    0.51237322621996608807E-01
    0.51237279349675077245E-01
    0.51237519130180507465E-01
    0.51237514522527942418E-01
    0.51237783037528149277E-01
    0.51237817997619769517E-01
    0.51239347230270480826E-01
    0.51239669416581243300E-01
    0.51240459332860525954E-01
    0.51240633039750724254E-01
    0.51239941361073765291E-01
    0.51239964011009775380E-01
    0.51239249309522928721E-01
    0.51238988638348165194E-01
    0.51238437217398465073E-01
    0.51238352342185662647E-01
    0.51238784093946623810E-01
    0.51238755598703576710E-01
    0.51239275771426714967E-01
    0.51239345574509952141E-01
    0.51236231659573631958E-01
    0.51236209123349432670E-01
    0.51236238503354583629E-01
    0.51236218656623269685E-01
    0.51236171451617705530E-01
    0.51236142924388945741E-01
    0.51236109705331954467E-01
    0.51236123149886694805E-01
    0.51236104517899207222E-01
    0.51236121642193287185E-01
    0.51236158683636595645E-01
    0.51236194476576894796E-01
    0.51236168045979225971E-01
    0.51236157327828074637E-01
    0.51236283569465239374E-01
    0.51236272916097891361E-01
    0.51236324801530869211E-01
    0.51236308868036976871E-01
    0.51236244067504849165E-01
    0.51236216312518130522E-01
    0.51236166292874973927E-01
    0.51236171659147206059E-01
    0.51236137945038763564E-01
    0.51236150145213828211E-01
    0.51236197597995566944E-01
    0.51236228238155615000E-01
    0.51236222109638934752E-01
    0.51236214090491026540E-01
    0.51236480274292062198E-01
    0.51236441873750530884E-01
    0.51236493256534711149E-01
    0.51236458959664797630E-01
    0.51236376677845828220E-01
    0.51236326732273712592E-01
    0.51236269038928715369E-01
    0.51236292775927450016E-01
    0.51236260623435017636E-01
    0.51236290310615405230E-01
    0.51236354472966927354E-01
    0.51236416182194953473E-01
    0.51236370764486574569E-01
    0.51236352175817082011E-01
    0.51236572244362454942E-01
    0.51236553185281343004E-01
    0.51236643752330876533E-01
    0.51236614358557211468E-01
    0.51236500362965273214E-01
    0.51236449027202389528E-01
    0.51236362757425102377E-01
    0.51236374522503805307E-01
    0.51236316860018671360E-01
    0.51236338984474084912E-01
    0.51236421722620294206E-01
    0.51236475700920838805E-01
    0.51236463808057429448E-01
    0.51236449168845836499E-01
    0.51236412206669704195E-01
    0.51236411058464943757E-01
    0.51236493685602610415E-01
    0.51236479400957136987E-01
    0.51236386731964851660E-01
    0.51236355988819134999E-01
    0.51236280403182461740E-01
    0.51236277857199551133E-01
    0.51236222984279003456E-01
    0.51236232176871863986E-01
    0.51236298243980224476E-01
    0.51236329459929425001E-01
    0.51236342016495753371E-01
    0.51236335480752258353E-01
    0.51236637867761308796E-01
    0.51236648257167262399E-01
    0.51236776503005038164E-01
    0.51236765308652197637E-01
    0.51236629924720132612E-01
    0.51236595835293385903E-01
    0.51236479260911474420E-01
    0.51236464600690374838E-01
    0.51236377332678349761E-01
    0.51236383769494603380E-01
    0.51236479312884851411E-01
    0.51236514646309468113E-01
    0.51236551020930040656E-01
    0.51236546186204066922E-01
    0.51236794764753554321E-01
    0.51236787784203381702E-01
    0.51236930125478849507E-01
    0.51236898555100447716E-01
    0.51236735017369111622E-01
    0.51236673408949495734E-01
    0.51236545144120577977E-01
    0.51236547795072619194E-01
    0.51236455697953396660E-01
    0.51236475006729190196E-01
    0.51236591167762281229E-01
    0.51236649473073790639E-01
    0.51236664575954757317E-01
    0.51236650503676324508E-01
    0.51237169678244667836E-01
    0.51237171674639987728E-01
    0.51237383742770654937E-01
    0.51237347580060224606E-01
    0.51237113902237292618E-01
    0.51237037934518635252E-01
    0.51236847900447572701E-01
    0.51236838542243472172E-01
    0.51236697799359201544E-01
    0.51236716884668485894E-01
    0.51236883321378254297E-01
    0.51236955859003639746E-01
    0.51236997817116124165E-01
    0.51236982807774660020E-01
    0.51236902539474320217E-01
    0.51236839768225121705E-01
    0.51236929459523294916E-01
    0.51236873055925162557E-01
    0.51236731334369914337E-01
    0.51236646333156957156E-01
    0.51236546014057277043E-01
    0.51236585928281265512E-01
    0.51236530059061438647E-01
    0.51236580689891897400E-01
    0.51236689950167800534E-01
    0.51236794039743828455E-01
    0.51236718782243992343E-01
    0.51236687668927999306E-01
    0.51237072773273939497E-01
    0.51237044105590198728E-01
    0.51237206677993703263E-01
    0.51237156696069201256E-01
    0.51236954365587006333E-01
    0.51236863450324146574E-01
    0.51236710990490923201E-01
    0.51236731793389805878E-01
    0.51236630344216882449E-01
    0.51236668227396135744E-01
    0.51236812405027712392E-01
    0.51236903791723693857E-01
    0.51236887913894794966E-01
    0.51236862965424796734E-01
    0.51237599341629712357E-01
    0.51237502409350821342E-01
    0.51237657999567205735E-01
    0.51237570945213507800E-01
    0.51237330981247095063E-01
    0.51237192609709311664E-01
    0.51237018819714902351E-01
    0.51237082198632162566E-01
    0.51236985927354879167E-01
    0.51237069434304213789E-01
    0.51237251055975804870E-01
    0.51237421039418008795E-01
    0.51237302218242866680E-01
    0.51237252384221401713E-01
    0.51237922921097800444E-01
    0.51237889888216536782E-01
    0.51238184757580601536E-01
    0.51238108299586519745E-01
    0.51237750643930719818E-01
    0.51237597193710300580E-01
    0.51237324605301878822E-01
    0.51237354468742883629E-01
    0.51237172624050551784E-01
    0.51237233529496148399E-01
    0.51237482065877797133E-01
    0.51237629093224788812E-01
    0.51237621107701115941E-01
    0.51237582030881724526E-01
    0.51237480694489509481E-01
    0.51237468197287958094E-01
    0.51237724100989409659E-01
    0.51237663216049486592E-01
    0.51237367655332814731E-01
    0.51237249731497014338E-01
    0.51237023440677029185E-01
    0.51237034161869601800E-01
    0.51236872804919446345E-01
    0.51236908977903672380E-01
    0.51237116024297105210E-01
    0.51237220254817826548E-01
    0.51237245925820094905E-01
    0.51237219225312116699E-01
    0.51238149370399506399E-01
    0.51238137464460362103E-01
    0.51238510405131942882E-01
    0.51238424686902615812E-01
    0.51238001988828642264E-01
    0.51237841272829202921E-01
    0.51237514522535249073E-01
    0.51237519130188716177E-01
    0.51237279349683008400E-01
    0.51237322622005206096E-01
    0.51237622384484926563E-01
    0.51237763477291801972E-01