# vtk DataFile Version 3.0
LAPLACIEN  2D
ASCII
DATASET UNSTRUCTURED_GRID
 POINTS        7297  float
   1.5625000000000000E-002  0.96875000000000000        0.0000000000000000     
   3.1250000000000000E-002  0.96875000000000000        0.0000000000000000     
   3.1250000000000000E-002  0.98437500000000000        0.0000000000000000     
   9.3749999999999997E-003  0.97812500000000002        0.0000000000000000     
   2.0312500000000001E-002  0.97968750000000004        0.0000000000000000     
   2.1874999999999999E-002  0.99062499999999998        0.0000000000000000     
   1.0937499999999999E-002  0.98906249999999996        0.0000000000000000     
   4.6875000000000000E-002  0.96875000000000000        0.0000000000000000     
   6.2500000000000000E-002  0.96875000000000000        0.0000000000000000     
   6.2500000000000000E-002  0.98437500000000000        0.0000000000000000     
   4.0625000000000001E-002  0.97812500000000002        0.0000000000000000     
   5.1562499999999997E-002  0.97968750000000004        0.0000000000000000     
   5.3124999999999999E-002  0.99062499999999998        0.0000000000000000     
   4.2187500000000003E-002  0.98906249999999996        0.0000000000000000     
   1.5625000000000000E-002  0.93750000000000000        0.0000000000000000     
   3.1250000000000000E-002  0.93750000000000000        0.0000000000000000     
   3.1250000000000000E-002  0.95312500000000000        0.0000000000000000     
   9.3749999999999997E-003  0.94687500000000002        0.0000000000000000     
   2.0312500000000001E-002  0.94843750000000004        0.0000000000000000     
   2.1874999999999999E-002  0.95937499999999998        0.0000000000000000     
   1.0937499999999999E-002  0.95781249999999996        0.0000000000000000     
   4.6875000000000000E-002  0.93750000000000000        0.0000000000000000     
   6.2500000000000000E-002  0.93750000000000000        0.0000000000000000     
   6.2500000000000000E-002  0.95312500000000000        0.0000000000000000     
   4.0625000000000001E-002  0.94687500000000002        0.0000000000000000     
   5.1562499999999997E-002  0.94843750000000004        0.0000000000000000     
   5.3124999999999999E-002  0.95937499999999998        0.0000000000000000     
   4.2187500000000003E-002  0.95781249999999996        0.0000000000000000     
   7.8125000000000000E-002  0.96875000000000000        0.0000000000000000     
   9.3750000000000000E-002  0.96875000000000000        0.0000000000000000     
   9.3750000000000000E-002  0.98437500000000000        0.0000000000000000     
   7.1874999999999994E-002  0.97812500000000002        0.0000000000000000     
   8.2812499999999997E-002  0.97968750000000004        0.0000000000000000     
   8.4375000000000006E-002  0.99062499999999998        0.0000000000000000     
   7.3437500000000003E-002  0.98906249999999996        0.0000000000000000     
  0.10937500000000000       0.96875000000000000        0.0000000000000000     
  0.12500000000000000       0.96875000000000000        0.0000000000000000     
  0.12500000000000000       0.98437500000000000        0.0000000000000000     
  0.10312499999999999       0.97812500000000002        0.0000000000000000     
  0.11406250000000000       0.97968750000000004        0.0000000000000000     
  0.11562500000000001       0.99062499999999998        0.0000000000000000     
  0.10468750000000000       0.98906249999999996        0.0000000000000000     
   7.8125000000000000E-002  0.93750000000000000        0.0000000000000000     
   9.3750000000000000E-002  0.93750000000000000        0.0000000000000000     
   9.3750000000000000E-002  0.95312500000000000        0.0000000000000000     
   7.1874999999999994E-002  0.94687500000000002        0.0000000000000000     
   8.2812499999999997E-002  0.94843750000000004        0.0000000000000000     
   8.4375000000000006E-002  0.95937499999999998        0.0000000000000000     
   7.3437500000000003E-002  0.95781249999999996        0.0000000000000000     
  0.10937500000000000       0.93750000000000000        0.0000000000000000     
  0.12500000000000000       0.93750000000000000        0.0000000000000000     
  0.12500000000000000       0.95312500000000000        0.0000000000000000     
  0.10312499999999999       0.94687500000000002        0.0000000000000000     
  0.11406250000000000       0.94843750000000004        0.0000000000000000     
  0.11562500000000001       0.95937499999999998        0.0000000000000000     
  0.10468750000000000       0.95781249999999996        0.0000000000000000     
   1.5625000000000000E-002  0.90625000000000000        0.0000000000000000     
   3.1250000000000000E-002  0.90625000000000000        0.0000000000000000     
   3.1250000000000000E-002  0.92187500000000000        0.0000000000000000     
   9.3749999999999997E-003  0.91562500000000002        0.0000000000000000     
   2.0312500000000001E-002  0.91718750000000004        0.0000000000000000     
   2.1874999999999999E-002  0.92812499999999998        0.0000000000000000     
   1.0937499999999999E-002  0.92656249999999996        0.0000000000000000     
   4.6875000000000000E-002  0.90625000000000000        0.0000000000000000     
   6.2500000000000000E-002  0.90625000000000000        0.0000000000000000     
   6.2500000000000000E-002  0.92187500000000000        0.0000000000000000     
   4.0625000000000001E-002  0.91562500000000002        0.0000000000000000     
   5.1562499999999997E-002  0.91718750000000004        0.0000000000000000     
   5.3124999999999999E-002  0.92812499999999998        0.0000000000000000     
   4.2187500000000003E-002  0.92656249999999996        0.0000000000000000     
   1.5625000000000000E-002  0.87500000000000000        0.0000000000000000     
   3.1250000000000000E-002  0.87500000000000000        0.0000000000000000     
   3.1250000000000000E-002  0.89062500000000000        0.0000000000000000     
   9.3749999999999997E-003  0.88437500000000002        0.0000000000000000     
   2.0312500000000001E-002  0.88593750000000004        0.0000000000000000     
   2.1874999999999999E-002  0.89687499999999998        0.0000000000000000     
   1.0937499999999999E-002  0.89531249999999996        0.0000000000000000     
   4.6875000000000000E-002  0.87500000000000000        0.0000000000000000     
   6.2500000000000000E-002  0.87500000000000000        0.0000000000000000     
   6.2500000000000000E-002  0.89062500000000000        0.0000000000000000     
   4.0625000000000001E-002  0.88437500000000002        0.0000000000000000     
   5.1562499999999997E-002  0.88593750000000004        0.0000000000000000     
   5.3124999999999999E-002  0.89687499999999998        0.0000000000000000     
   4.2187500000000003E-002  0.89531249999999996        0.0000000000000000     
   7.8125000000000000E-002  0.90625000000000000        0.0000000000000000     
   9.3750000000000000E-002  0.90625000000000000        0.0000000000000000     
   9.3750000000000000E-002  0.92187500000000000        0.0000000000000000     
   7.1874999999999994E-002  0.91562500000000002        0.0000000000000000     
   8.2812499999999997E-002  0.91718750000000004        0.0000000000000000     
   8.4375000000000006E-002  0.92812499999999998        0.0000000000000000     
   7.3437500000000003E-002  0.92656249999999996        0.0000000000000000     
  0.10937500000000000       0.90625000000000000        0.0000000000000000     
  0.12500000000000000       0.90625000000000000        0.0000000000000000     
  0.12500000000000000       0.92187500000000000        0.0000000000000000     
  0.10312499999999999       0.91562500000000002        0.0000000000000000     
  0.11406250000000000       0.91718750000000004        0.0000000000000000     
  0.11562500000000001       0.92812499999999998        0.0000000000000000     
  0.10468750000000000       0.92656249999999996        0.0000000000000000     
   7.8125000000000000E-002  0.87500000000000000        0.0000000000000000     
   9.3750000000000000E-002  0.87500000000000000        0.0000000000000000     
   9.3750000000000000E-002  0.89062500000000000        0.0000000000000000     
   7.1874999999999994E-002  0.88437500000000002        0.0000000000000000     
   8.2812499999999997E-002  0.88593750000000004        0.0000000000000000     
   8.4375000000000006E-002  0.89687499999999998        0.0000000000000000     
   7.3437500000000003E-002  0.89531249999999996        0.0000000000000000     
  0.10937500000000000       0.87500000000000000        0.0000000000000000     
  0.12500000000000000       0.87500000000000000        0.0000000000000000     
  0.12500000000000000       0.89062500000000000        0.0000000000000000     
  0.10312499999999999       0.88437500000000002        0.0000000000000000     
  0.11406250000000000       0.88593750000000004        0.0000000000000000     
  0.11562500000000001       0.89687499999999998        0.0000000000000000     
  0.10468750000000000       0.89531249999999996        0.0000000000000000     
  0.14062500000000000       0.96875000000000000        0.0000000000000000     
  0.15625000000000000       0.96875000000000000        0.0000000000000000     
  0.15625000000000000       0.98437500000000000        0.0000000000000000     
  0.13437499999999999       0.97812500000000002        0.0000000000000000     
  0.14531250000000001       0.97968750000000004        0.0000000000000000     
  0.14687500000000001       0.99062499999999998        0.0000000000000000     
  0.13593749999999999       0.98906249999999996        0.0000000000000000     
  0.17187500000000000       0.96875000000000000        0.0000000000000000     
  0.18750000000000000       0.96875000000000000        0.0000000000000000     
  0.18750000000000000       0.98437500000000000        0.0000000000000000     
  0.16562499999999999       0.97812500000000002        0.0000000000000000     
  0.17656250000000001       0.97968750000000004        0.0000000000000000     
  0.17812500000000001       0.99062499999999998        0.0000000000000000     
[...]
 CELL_DATA       14336
 SCALARS Tumor_cells float
 LOOKUP_TABLE default
    0.30309487186596601524E-14
    0.19564018009771433768E-13
    0.15278710352712538519E-13
   -0.30824120167466787380E-13
   -0.64283647249553790029E-14
    0.31995428071253449965E-13
    0.63182650045908414823E-13
    0.28627732233165471468E-13
    0.90584072407658207529E-14
    0.58299111580270532477E-14
    0.21019708865972480450E-14
    0.69442256226862174343E-13
    0.48181270937513457865E-13
    0.32354320718633295915E-13
    0.65962851281406363813E-13
    0.15913081559951004575E-13
    0.67875647627104842270E-13
   -0.40129529244313558924E-13
   -0.20193399043615927466E-13
    0.27053406196389596073E-13
    0.10457748626974890628E-13
    0.12118036728557302367E-15
    0.18175590689276994635E-14
    0.43455043410402766701E-13
    0.34590399674501596721E-14
   -0.76953101361142904625E-14
    0.28598818047284938668E-13
   -0.24238060041673740432E-13
    0.19737988852060460996E-13
   -0.28143368833229904025E-13
    0.99839176909755783185E-14
    0.81969717817304513059E-13
    0.69999616813752784363E-13
    0.58847568873950805195E-13
   -0.14803214463145080532E-13
   -0.83697883340083870255E-14
    0.45364388265389589858E-13
    0.67791306860227534786E-14
    0.14251584903341154737E-14
    0.19157395944922443920E-13
    0.73431003357220519639E-14
    0.31596856894722104231E-13
    0.15361914720373130733E-13
    0.54157343206605982732E-13
    0.39064249685909872700E-13
    0.40428153233109409473E-13
    0.99679768328194789742E-13
    0.43930371098100222330E-13
    0.32675960651454728186E-13
    0.21036823329878408453E-13
    0.54832795095699748805E-14
    0.61811471156080090943E-13
    0.25362546935730382719E-13
    0.14760891274448813118E-13
    0.12192518513143742288E-13
    0.25478010286939795525E-14
    0.13259321063533278878E-13
    0.52847666802381533709E-13
    0.62419218968122606508E-13
    0.44411761086922982049E-13
   -0.17494831650906911607E-13
   -0.26506381291605264465E-13
    0.15275314261665026758E-13
    0.29956118280290746562E-13
    0.16689940141552245509E-13
    0.17407095039020803617E-13
    0.56699752748618214960E-14
   -0.58807885109133945567E-14
   -0.24041561336882674804E-13
    0.34302164516472231009E-13
    0.55746110073288827901E-13
   -0.23593475719713510298E-13
    0.28652301380560572767E-13
    0.16379053683198637212E-13
   -0.13501043913051360389E-13
    0.89288401444929921208E-14
    0.14527685956904435993E-14
    0.22069713864274504673E-13
   -0.17603739313844601274E-13
    0.51163989670289577632E-13
   -0.91093955457177838330E-14
   -0.14565901354732899627E-13
    0.23170245366558037970E-13
    0.42726881819698378508E-13
    0.15507186746347744836E-14
    0.48076096232018603021E-14
    0.87449231445866908631E-14
    0.20170245230008341418E-14
    0.14655349739445402621E-14
   -0.14110122695273820043E-13
    0.50963188407417810563E-14
    0.29470629765015167276E-14
    0.38839564163782732810E-14
    0.73374488531530319472E-13
   -0.70785344871270248368E-14
   -0.13871272066911888716E-13
    0.21265778301320285058E-13
    0.27070412594959345213E-14
    0.67398957338861123329E-14
    0.67559731485948788189E-14
    0.54164428771213926644E-13
    0.19634994960753040981E-13
    0.41938554342123753062E-13
    0.62118086200940358774E-14
   -0.68314270595514406658E-13
   -0.24163580662556215764E-13
    0.43804257477686451245E-13
    0.27394393213085739898E-13
   -0.22593118839078031446E-13
    0.25415792428507149293E-13
    0.25544598465210735183E-13
    0.72654667507320825406E-14
   -0.81378810186170746779E-13
    0.17694070909934015561E-13
    0.19918850832630922587E-13
    0.37676452047644230909E-13
    0.10929243728814456637E-13
    0.13588741121728984112E-13
    0.11646622643366369475E-13
   -0.14283395361523322929E-13
    0.19983408495080176382E-13
    0.17883616484903519087E-13
   -0.39815612856202881541E-14
    0.26448730331208576012E-13
    0.36759736257688454054E-13
   -0.33193576641145738321E-14
   -0.22002985447932034111E-13
    0.80420815347061631530E-14
   -0.70017368104239518352E-14
    0.45260159639482088246E-13
    0.20137754208620763805E-13
   -0.12521864986407920486E-13
    0.68545418419799399124E-14
    0.28837047190530704580E-13
    0.71713794893608333016E-13
    0.12547640164669025988E-13
    0.23917699772209911545E-13
    0.12841788513151089341E-13
    0.79325732245877149118E-14
    0.35999383484249478723E-14
    0.20732141984767187144E-14
    0.64223135976720424472E-14
   -0.24038005941110754250E-13
    0.15334099761828755959E-13
   -0.95551559296693729968E-14
    0.39089771036980925936E-13
    0.82869794011063724113E-14
    0.17337687920877592266E-14
    0.20386460336683554884E-13
   -0.10421235498191850072E-13
    0.47049219821582048491E-13
    0.90403478998394453562E-14
   -0.80352077427103030961E-14
    0.43888150673456411127E-14
   -0.23716672554039112211E-14
    0.41991555780028285678E-13
   -0.94130459603200390188E-15
    0.72924496985464485008E-13
   -0.30050838732317737286E-13
   -0.15535112142335528933E-13
   -0.68081411011978427109E-14
    0.85835798372710782538E-14
    0.44000643029944547477E-13
    0.33036670966931616928E-13
   -0.35906529708859809016E-13
   -0.35823892689109404762E-13
   -0.12002055469069255411E-14
    0.38284238576964247990E-13
    0.98952012952924773835E-14
    0.20104531455248175498E-13
    0.94980441687808652195E-14
   -0.15893290447439250085E-14
    0.60338709508863004081E-13
    0.38560298335460146660E-14
   -0.15198151139481159131E-13
    0.17324642655097190958E-13
    0.30019953696612713263E-13
    0.55247172269981317359E-13
   -0.35353191032807484467E-14
    0.90985976597586988888E-14
   -0.28643184231086830398E-13
    0.15750571402049140367E-14
    0.65355614111788399190E-13
   -0.37343008829857700099E-13
    0.13830168566662074633E-13
   -0.10055403024080964728E-13
   -0.61799874911764094567E-14
    0.78394193909656477931E-14
    0.14200832007514758886E-13
    0.14508868777027365082E-13
    0.19826310775834335548E-13
    0.14902374661549953868E-13
   -0.27247135936574023215E-13
    0.54987955861533502800E-14
    0.21202706760213231411E-13
    0.42589104165453315169E-13
    0.23001562093767177841E-13
    0.75347094874245993046E-14
    0.61123290204722414882E-13
    0.22108434255835219328E-13
   -0.38566699230256638002E-14
    0.44828871319893905725E-13
   -0.30789143356155410836E-13
   -0.35555547373886339582E-13
    0.59074752288806793166E-14
   -0.19283147920908078844E-13
    0.99824194905455559869E-14
    0.24136041282093458358E-13
    0.63849426020802201895E-14
    0.13206347073866331394E-13
    0.36103911134986964050E-13
    0.31364032431757581821E-13
    0.10162937155565939807E-13
   -0.17690135820087001015E-13
    0.53475866751963175765E-13
    0.39191854274245810758E-13
   -0.26368169801169827386E-13
    0.82097000780991789573E-14
   -0.11888474311229610607E-13
    0.60211799194151012201E-14
   -0.13270758517617735302E-13
    0.13805831936811191696E-13
    0.27411120607850466327E-13
    0.39631091074534036274E-13
   -0.29728246199376370084E-14
    0.18164919078547387893E-13
    0.39384093264848260211E-13
    0.30359708785932866544E-13
    0.15807603190148301263E-13
    0.42834748808251537858E-13
    0.63945581613808835163E-13
    0.29495205132624866020E-13
   -0.93978959314346696450E-14
    0.32113565007037716291E-14
    0.14436360505564099510E-13
    0.38073594711109694001E-13
    0.54502173832316369736E-13
    0.45115325531129208834E-13
    0.32418677805891617585E-13
   -0.70798963723476480730E-14
   -0.16165628871296967948E-13
    0.16386031571973423766E-13
    0.11114512198294067413E-13
    0.13404058209604149453E-13
    0.62921521793377981866E-13
    0.33739676311813976082E-13
    0.30349898588733953038E-13
   -0.97836155912414992500E-14
    0.66089487151915510395E-13
    0.39200771024202132268E-13
    0.12844625231536749062E-13
   -0.14049308019398498955E-13
   -0.36066194073178386941E-13
    0.17103710156851367772E-13
    0.23762346596610483881E-13
    0.29910486367468830605E-13
    0.11530982691928874346E-13
    0.70163552684795727122E-14
    0.33994624049976486659E-13
   -0.61409038340883191262E-14
   -0.75782571907902594745E-14
    0.15087911221281658410E-13
    0.15035926236759933340E-13
    0.39671178122294972101E-13
    0.28565907412576118410E-13
    0.14464408862822286064E-13
    0.10359223197571459115E-13
    0.20428391747879739400E-13
    0.67086349507947128809E-14
    0.13192034936367363185E-13
    0.30269475558781872315E-13
    0.20246058320115519392E-13
    0.49329898202920926995E-13
    0.30450554775869615104E-14
    0.30888762517606378459E-13
    0.14789138114000245698E-13
    0.24806671726636822606E-13
    0.38785395048343630730E-13
   -0.27920523416825333141E-13
    0.27101211763343626911E-13
    0.35925477322744148752E-13
    0.53960286050002915796E-14
    0.18680440555521272370E-14
   -0.45132182360768095745E-13
    0.28830853637000504342E-13
    0.62099359176037395811E-14
    0.44277154712874790167E-13
    0.22539813232022823889E-13
    0.19247262977587269465E-13
    0.20028450883336277869E-13
    0.34764199145556350966E-13
    0.11156513884142359901E-14
    0.14852223554277465658E-13
   -0.37388234528448032613E-14
   -0.86266025774567973673E-14
    0.21596487897724378068E-13
   -0.26956010181166133578E-13
   -0.48806762279752958627E-13
   -0.15309657974842040798E-13
    0.15620876489773788383E-13
    0.11664772428072492507E-13
    0.14613786687399089474E-13
    0.11519542383583886393E-13
    0.30453100103160643153E-13
    0.19894729545265026327E-13
    0.13290327755492061023E-13
   -0.97936522748196727891E-15
   -0.35897662523278879817E-13
    0.17446543624067066107E-14
    0.13501940973450348300E-13
   -0.17896988093641939758E-13
    0.28990792868938725462E-13
   -0.18074534478954538272E-13
    0.89316431608322959237E-14
    0.40612150405570968230E-13
    0.70195396839243433949E-13
    0.38969881574444743096E-13
    0.27893009846174180059E-13
    0.86079501936677982712E-14
   -0.21873004702680957377E-13
    0.60392103371866961127E-14
    0.11145935991884796725E-13
   -0.27508650729833805236E-13
   -0.77982024877786457195E-14
    0.41726710872718963531E-14
   -0.17073319897570913009E-13
    0.26844180947125765293E-13
    0.18702467557588602903E-13
   -0.42780513031755326835E-14
    0.35758531575174872114E-13
    0.12652504215529520939E-13
    0.18632402793773970416E-13
   -0.90628088327492406537E-14
    0.16970070474575409795E-13
    0.32588494609861357206E-13
    0.20951362697342405732E-13
    0.21893149498195467736E-13
    0.35532161321643255711E-14
    0.22528963423508496869E-13
    0.51585446588942552782E-13
    0.48107833889478069007E-14
   -0.85607269845844244494E-14
   -0.19992121372977126429E-13
    0.33944806843992530000E-13
    0.11071594906388934396E-14
   -0.27701677222088634508E-13
    0.51798943712789450088E-13
    0.38070747141048550890E-13
    0.57997168424127035448E-14
    0.50323000296346045007E-14
    0.18296143987472461267E-13
   -0.21929603310299872663E-13
   -0.16200070265009043233E-14
    0.25741187423534201144E-13
    0.46530609201576039100E-13
    0.94308998176618852064E-14
    0.49708962848772290377E-14
    0.65283829978627794249E-13
   -0.30807541568659481742E-13
    0.37292315090847952304E-13
   -0.62397838608431115514E-14
    0.49164398467085550832E-13
   -0.23528297988860011293E-13
    0.38641331726209098932E-13
    0.18275521462981875822E-13
    0.30512168316757953719E-13
   -0.11185229811340938658E-13
   -0.20760702708833908370E-13
    0.43263027365780732607E-14
    0.53355463962684230492E-13
    0.39223166444526875306E-13
    0.37889759566421266910E-13
    0.76875678214248972052E-13
    0.26446136528989122151E-13
    0.16855907318917402288E-14
    0.26242805365437716227E-13
    0.32930210118481680089E-14
    0.48138669418973269361E-13
   -0.32379618411288917521E-13
    0.15514847459721187881E-13
    0.39437231890519622812E-14
    0.13556851895960539762E-13
    0.34638659904825906588E-13
    0.44219574463119544917E-13
   -0.35708135027613408390E-14
   -0.16226362162512136290E-13
    0.67281180619615347017E-14
   -0.19164586870409926685E-13
    0.34885029913339819743E-13
   -0.98483628047504257493E-14
   -0.68442187180029292443E-14
   -0.10591670951037529804E-13
    0.50157972830753638172E-13
    0.34812468704266506167E-13
    0.33238108566648196573E-13
    0.37378809718847834434E-13
   -0.16356310025995192328E-13
    0.13907257943450724390E-13
    0.36359237181424522703E-13
    0.49658995678221949437E-13
    0.10951542604774140434E-13
    0.77576498561274172996E-14
    0.21564448656720880966E-13
   -0.29439976894325401411E-13
    0.44153442754944744385E-13
    0.86201164048563334345E-14
    0.64372810329101411719E-14
   -0.15227982058728891675E-13
    0.37229491505439577306E-13
    0.19668819668601393049E-13
    0.21972526651665318024E-13
   -0.19087218724367575335E-13
   -0.13474104107686336664E-13
    0.29848840121797802236E-13
    0.16061046851674940153E-13
    0.20932683125873112243E-13
   -0.44592255810937916288E-13
   -0.21462995003175882610E-13
    0.78769420580185330473E-14
   -0.12476682053838094126E-13
   -0.86364523199989047897E-14
    0.28589770231713879086E-13
    0.69088655395483382826E-14
    0.10514894268111178249E-13
    0.28868305326546930166E-13
    0.15042126042954265612E-13
    0.22826613003017544248E-13
   -0.44338023802396069835E-14
    0.18145070696062950923E-13
    0.26575667985673622685E-13
    0.21418775544418174595E-13
   -0.26749331563412798501E-13
   -0.51258637569056615306E-13
    0.54997028299303443036E-13
   -0.95851142037162851672E-14
   -0.44365218993430751835E-13
   -0.90707013565136507317E-14
   -0.31235128102993460033E-13
    0.16186624711617730138E-15
   -0.78027119808938375563E-14
    0.17875085040323678338E-14
   -0.65560664633485929600E-14
    0.27348341118718544743E-14
    0.35077191389439939998E-14
   -0.44717321026719381970E-13
   -0.83377596879279748667E-14
   -0.53487408949363358222E-14
    0.28073570508952184304E-13
    0.30654355239608806126E-13
    0.27834519521794396870E-13
    0.41528826008047262310E-13
    0.16395257695165158403E-14
   -0.92017301574424314030E-14
    0.24240541533862258034E-13
    0.45318753395351703408E-13
    0.25321513977406185916E-13
    0.29280630411374518535E-13
   -0.37612889580847574815E-13
    0.10923925642653034372E-15
    0.59613170251314115918E-13
   -0.23489569551164699169E-13
    0.52674479230014642151E-13
   -0.65339044856888973111E-13
   -0.36991923277593786876E-15
    0.48389430477865397013E-13
    0.56990469972097304373E-13
    0.43318311856048567019E-13
   -0.32532108240542042426E-13
    0.32779592467182144062E-13
    0.91587291137452991667E-14
    0.23521724512815129731E-13
   -0.12936665684595970320E-14
    0.97243006608516547700E-14
    0.54378358375224778668E-13
    0.34878081850158670105E-13
   -0.14016590300290744141E-13
    0.30940743006971729230E-13
    0.91617703655783404613E-14
    0.14360917018460629849E-13
   -0.59915394497186671843E-15
    0.14874741302574579064E-13
    0.40671447752369111663E-13
    0.26666648203570951523E-13
    0.69226311623372536826E-14
   -0.16241543320260079780E-13
    0.36599244582939804007E-13
    0.72760480379332159122E-13
    0.32360200905074185833E-13
   -0.80140004256552061580E-14
   -0.22944260060531573336E-14
   -0.10663178208155918689E-13
    0.36311488663214373641E-13
    0.26781994890462578044E-14
    0.21176173644345073132E-13
    0.52927770700253718628E-14
    0.29584932464572146749E-13
   -0.42583121237575637740E-14
    0.17856679537894073269E-13
    0.98566647065284829379E-14
    0.36194001838601318552E-13
   -0.16203816730494586289E-13
    0.25887363762188333648E-13
    0.84458088304743901083E-13
   -0.86227141876842649715E-14
   -0.12795695883820735766E-13
    0.42498215167378166971E-13
    0.27529952606353643025E-13
    0.33905921014337748856E-13
    0.20176468187634706867E-13
    0.46497592536617167447E-13
    0.46160294726841260172E-13
    0.51158177135315071717E-13
   -0.99032524492170481524E-14
    0.52167539272712215601E-14
    0.23209325940757661008E-13
   -0.47788607950815693701E-14
    0.23743276474380718331E-13
   -0.28304585935265144270E-14
    0.56598747643778938534E-13
    0.27391200378299397903E-13
    0.78816040828429753966E-15
   -0.91953592497220359158E-14
   -0.10698366321704922679E-13
    0.24217173526670091096E-13
    0.24025252651558556409E-13
    0.46784102708504995177E-14
    0.23401693768263044594E-13
    0.48769558682117934398E-13
    0.68088291037821098406E-13
    0.34294543482338581993E-13
    0.94573837625706841965E-13
    0.98320854088204486565E-14
   -0.57974659057129557830E-14
    0.32453203697821106812E-13
    0.32571112457673837332E-13
   -0.12951850259307343023E-13
   -0.56044977170643187013E-14
    0.21317340853307774284E-13
    0.39788486333248566740E-13
    0.96323177972893787721E-16
    0.23381902589080554505E-13
   -0.38174250539621313355E-13
    0.58721328255408765158E-13
    0.40525829959242130350E-13
    0.32336047157604150000E-13
   -0.48911789393163992965E-14
    0.17914706298500013571E-13
    0.27142094199646137576E-14
    0.28562483712486258782E-13
    0.13025943456319169273E-13
    0.10701108166020583659E-13
   -0.31457944539516813344E-13
    0.18804443653742093507E-13
    0.36600183124507306754E-13
   -0.18638591087634701361E-15
    0.65495011035015611424E-13
    0.12505473026955673650E-14
    0.35434411758775613258E-13
   -0.87577585602098480491E-14
    0.19239318415005063598E-13
    0.37319011047839617986E-13
    0.15356220518380010219E-13
   -0.77876599685430100584E-13
   -0.36072503398496465934E-14
    0.29098717421788048803E-13
    0.42508857834556011584E-13
   -0.35713652238108154190E-14
   -0.10796035691062148541E-13
    0.37199501180735508751E-13
    0.28524823934602109213E-13
    0.29616787493192886365E-13
    0.29321089136830550449E-13
    0.15565985647236069949E-13
    0.37229345784277258019E-13
   -0.41079514872798474127E-15
    0.63606501878362303576E-15
    0.83724556148420325490E-13
    0.92069670659386122777E-14
    0.31636661222252068310E-13
   -0.16191201610047273079E-13
   -0.42766273409493577343E-14
    0.74044955661168151607E-14
    0.18043797820360278158E-13
    0.60157386150910261679E-13
    0.57068178899585601652E-13
    0.53080216414275761773E-13
    0.61005804910921689034E-13
    0.35693627623538562385E-13
    0.37833643197825705487E-13
    0.20058490118122424906E-13
   -0.38994724110090311522E-13
   -0.16120621221196519188E-13
    0.60301747067840040747E-15
    0.89974459414906223353E-14
   -0.71121121059850442312E-14
    0.57698364746774785376E-13
    0.10680476109430378789E-13
   -0.16413652275101543726E-14
    0.16958574209378775790E-13
   -0.41257454572732148619E-13
   -0.43517870348173962523E-14
   -0.13890804843874646471E-13
    0.48293246215480793619E-13
    0.31779691999621835792E-13
    0.12695959426722449213E-13
    0.27066489669334186614E-13
    0.14032906832160079499E-13
   -0.55952816627020933173E-14
    0.12650765882696548461E-13
   -0.23412793878026834891E-13
    0.24709636068029233409E-13
    0.46041326845086663099E-14
    0.37071893084532277292E-13
    0.17031981019577414443E-13
    0.16542592784792857314E-14
    0.12045793285101031631E-13
    0.17065787736477071426E-13
   -0.10896650805382607722E-13
    0.25404927577029267043E-13
    0.36827243412624005603E-13
    0.42284922235224256200E-13
    0.23332672804963120004E-13
   -0.45567733754717106904E-14
   -0.99260037914543093305E-14
    0.67043207515091326328E-14
    0.22992489405846745076E-13
    0.12544234882431100715E-14
    0.22731736037151231963E-13
    0.20848236836703321392E-13
    0.45833991761608562716E-13
    0.23011163031615762288E-13
   -0.21263580497174803333E-13
    0.16306178809247641716E-13
    0.48108494918166613890E-13
   -0.55645270325609409452E-14
    0.94919749254249571954E-14
   -0.42070120153483776726E-13
    0.15172935660997102810E-13
   -0.88312951934607507649E-14
    0.34471083728110202600E-14
   -0.47271865762736137520E-13
    0.22812092501910329062E-13