# vtk DataFile Version 3.0
LAPLACIEN  2D
ASCII
DATASET UNSTRUCTURED_GRID
FIELD FieldData 1
TIME 1 1 double
9.8000
 POINTS        7297  float
   1.5625000000000000E-002  0.96875000000000000        0.0000000000000000     
   3.1250000000000000E-002  0.96875000000000000        0.0000000000000000     
   3.1250000000000000E-002  0.98437500000000000        0.0000000000000000     
   9.3749999999999997E-003  0.97812500000000002        0.0000000000000000     
   2.0312500000000001E-002  0.97968750000000004        0.0000000000000000     
   2.1874999999999999E-002  0.99062499999999998        0.0000000000000000     
   1.0937499999999999E-002  0.98906249999999996        0.0000000000000000     
   4.6875000000000000E-002  0.96875000000000000        0.0000000000000000     
   6.2500000000000000E-002  0.96875000000000000        0.0000000000000000     
   6.2500000000000000E-002  0.98437500000000000        0.0000000000000000     
   4.0625000000000001E-002  0.97812500000000002        0.0000000000000000     
   5.1562499999999997E-002  0.97968750000000004        0.0000000000000000     
   5.3124999999999999E-002  0.99062499999999998        0.0000000000000000     
   4.2187500000000003E-002  0.98906249999999996        0.0000000000000000     
   1.5625000000000000E-002  0.93750000000000000        0.0000000000000000     
   3.1250000000000000E-002  0.93750000000000000        0.0000000000000000     
   3.1250000000000000E-002  0.95312500000000000        0.0000000000000000     
   9.3749999999999997E-003  0.94687500000000002        0.0000000000000000     
   2.0312500000000001E-002  0.94843750000000004        0.0000000000000000     
   2.1874999999999999E-002  0.95937499999999998        0.0000000000000000     
   1.0937499999999999E-002  0.95781249999999996        0.0000000000000000     
   4.6875000000000000E-002  0.93750000000000000        0.0000000000000000     
   6.2500000000000000E-002  0.93750000000000000        0.0000000000000000     
   6.2500000000000000E-002  0.95312500000000000        0.0000000000000000     
   4.0625000000000001E-002  0.94687500000000002        0.0000000000000000     
   5.1562499999999997E-002  0.94843750000000004        0.0000000000000000     
   5.3124999999999999E-002  0.95937499999999998        0.0000000000000000     
   4.2187500000000003E-002  0.95781249999999996        0.0000000000000000     
   7.8125000000000000E-002  0.96875000000000000        0.0000000000000000     
   9.3750000000000000E-002  0.96875000000000000        0.0000000000000000     
   9.3750000000000000E-002  0.98437500000000000        0.0000000000000000     
   7.1874999999999994E-002  0.97812500000000002        0.0000000000000000     
   8.2812499999999997E-002  0.97968750000000004        0.0000000000000000     
   8.4375000000000006E-002  0.99062499999999998        0.0000000000000000     
   7.3437500000000003E-002  0.98906249999999996        0.0000000000000000     
  0.10937500000000000       0.96875000000000000        0.0000000000000000     
  0.12500000000000000       0.96875000000000000        0.0000000000000000     
  0.12500000000000000       0.98437500000000000        0.0000000000000000     
  0.10312499999999999       0.97812500000000002        0.0000000000000000     
  0.11406250000000000       0.97968750000000004        0.0000000000000000     
  0.11562500000000001       0.99062499999999998        0.0000000000000000     
  0.10468750000000000       0.98906249999999996        0.0000000000000000     
   7.8125000000000000E-002  0.93750000000000000        0.0000000000000000     
   9.3750000000000000E-002  0.93750000000000000        0.0000000000000000     
   9.3750000000000000E-002  0.95312500000000000        0.0000000000000000     
   7.1874999999999994E-002  0.94687500000000002        0.0000000000000000     
   8.2812499999999997E-002  0.94843750000000004        0.0000000000000000     
   8.4375000000000006E-002  0.95937499999999998        0.0000000000000000     
   7.3437500000000003E-002  0.95781249999999996        0.0000000000000000     
  0.10937500000000000       0.93750000000000000        0.0000000000000000     
  0.12500000000000000       0.93750000000000000        0.0000000000000000     
  0.12500000000000000       0.95312500000000000        0.0000000000000000     
  0.10312499999999999       0.94687500000000002        0.0000000000000000     
  0.11406250000000000       0.94843750000000004        0.0000000000000000     
  0.11562500000000001       0.95937499999999998        0.0000000000000000     
  0.10468750000000000       0.95781249999999996        0.0000000000000000     
   1.5625000000000000E-002  0.90625000000000000        0.0000000000000000     
   3.1250000000000000E-002  0.90625000000000000        0.0000000000000000     
   3.1250000000000000E-002  0.92187500000000000        0.0000000000000000     
   9.3749999999999997E-003  0.91562500000000002        0.0000000000000000     
   2.0312500000000001E-002  0.91718750000000004        0.0000000000000000     
   2.1874999999999999E-002  0.92812499999999998        0.0000000000000000     
   1.0937499999999999E-002  0.92656249999999996        0.0000000000000000     
   4.6875000000000000E-002  0.90625000000000000        0.0000000000000000     
   6.2500000000000000E-002  0.90625000000000000        0.0000000000000000     
   6.2500000000000000E-002  0.92187500000000000        0.0000000000000000     
   4.0625000000000001E-002  0.91562500000000002        0.0000000000000000     
   5.1562499999999997E-002  0.91718750000000004        0.0000000000000000     
   5.3124999999999999E-002  0.92812499999999998        0.0000000000000000     
   4.2187500000000003E-002  0.92656249999999996        0.0000000000000000     
   1.5625000000000000E-002  0.87500000000000000        0.0000000000000000     
   3.1250000000000000E-002  0.87500000000000000        0.0000000000000000     
   3.1250000000000000E-002  0.89062500000000000        0.0000000000000000     
   9.3749999999999997E-003  0.88437500000000002        0.0000000000000000     
   2.0312500000000001E-002  0.88593750000000004        0.0000000000000000     
   2.1874999999999999E-002  0.89687499999999998        0.0000000000000000     
   1.0937499999999999E-002  0.89531249999999996        0.0000000000000000     
   4.6875000000000000E-002  0.87500000000000000        0.0000000000000000     
   6.2500000000000000E-002  0.87500000000000000        0.0000000000000000     
   6.2500000000000000E-002  0.89062500000000000        0.0000000000000000     
   4.0625000000000001E-002  0.88437500000000002        0.0000000000000000     
   5.1562499999999997E-002  0.88593750000000004        0.0000000000000000     
   5.3124999999999999E-002  0.89687499999999998        0.0000000000000000     
   4.2187500000000003E-002  0.89531249999999996        0.0000000000000000     
   7.8125000000000000E-002  0.90625000000000000        0.0000000000000000     
   9.3750000000000000E-002  0.90625000000000000        0.0000000000000000     
   9.3750000000000000E-002  0.92187500000000000        0.0000000000000000     
   7.1874999999999994E-002  0.91562500000000002        0.0000000000000000     
   8.2812499999999997E-002  0.91718750000000004        0.0000000000000000     
   8.4375000000000006E-002  0.92812499999999998        0.0000000000000000     
   7.3437500000000003E-002  0.92656249999999996        0.0000000000000000     
  0.10937500000000000       0.90625000000000000        0.0000000000000000     
  0.12500000000000000       0.90625000000000000        0.0000000000000000     
  0.12500000000000000       0.92187500000000000        0.0000000000000000     
  0.10312499999999999       0.91562500000000002        0.0000000000000000     
  0.11406250000000000       0.91718750000000004        0.0000000000000000     
  0.11562500000000001       0.92812499999999998        0.0000000000000000     
  0.10468750000000000       0.92656249999999996        0.0000000000000000     
   7.8125000000000000E-002  0.87500000000000000        0.0000000000000000     
   9.3750000000000000E-002  0.87500000000000000        0.0000000000000000     
   9.3750000000000000E-002  0.89062500000000000        0.0000000000000000     
   7.1874999999999994E-002  0.88437500000000002        0.0000000000000000     
   8.2812499999999997E-002  0.88593750000000004        0.0000000000000000     
   8.4375000000000006E-002  0.89687499999999998        0.0000000000000000     
   7.3437500000000003E-002  0.89531249999999996        0.0000000000000000     
  0.10937500000000000       0.87500000000000000        0.0000000000000000     
  0.12500000000000000       0.87500000000000000        0.0000000000000000     
  0.12500000000000000       0.89062500000000000        0.0000000000000000     
  0.10312499999999999       0.88437500000000002        0.0000000000000000     
  0.11406250000000000       0.88593750000000004        0.0000000000000000     
  0.11562500000000001       0.89687499999999998        0.0000000000000000     
  0.10468750000000000       0.89531249999999996        0.0000000000000000     
  0.14062500000000000       0.96875000000000000        0.0000000000000000     
  0.15625000000000000       0.96875000000000000        0.0000000000000000     
  0.15625000000000000       0.98437500000000000        0.0000000000000000     
  0.13437499999999999       0.97812500000000002        0.0000000000000000     
  0.14531250000000001       0.97968750000000004        0.0000000000000000     
  0.14687500000000001       0.99062499999999998        0.0000000000000000     
  0.13593749999999999       0.98906249999999996        0.0000000000000000     
  0.17187500000000000       0.96875000000000000        0.0000000000000000     
  0.18750000000000000       0.96875000000000000        0.0000000000000000     
  0.18750000000000000       0.98437500000000000        0.0000000000000000     
  0.16562499999999999       0.97812500000000002        0.0000000000000000     
  0.17656250000000001       0.97968750000000004        0.0000000000000000     
[...]
 CELL_DATA       14336
 SCALARS Tumor_cells float
 LOOKUP_TABLE default
    0.26270041192282812120E-01
    0.26270040983701451603E-01
    0.26270042595287198400E-01
    0.26270042595286539205E-01
    0.26270040983701409970E-01
    0.26270041192280570858E-01
    0.26270039913096947248E-01
    0.26270039157995739992E-01
    0.26270038342450986735E-01
    0.26270038342447104424E-01
    0.26270039157998224116E-01
    0.26270039913097193579E-01
    0.26270039794913008918E-01
    0.26270039794912186659E-01
    0.26270046485182479284E-01
    0.26270047896146623417E-01
    0.26270051727354023358E-01
    0.26270052788196721766E-01
    0.26270049915682554265E-01
    0.26270051293663110314E-01
    0.26270048281795924106E-01
    0.26270045777808389426E-01
    0.26270043136348140977E-01
    0.26270042187772166264E-01
    0.26270043836186290215E-01
    0.26270043631827277864E-01
    0.26270046211386590546E-01
    0.26270046779186012609E-01
    0.26270051293670507175E-01
    0.26270049915688195585E-01
    0.26270052788202692684E-01
    0.26270051727358356697E-01
    0.26270047896149915923E-01
    0.26270046485183537466E-01
    0.26270043631828759317E-01
    0.26270043836188212288E-01
    0.26270042187774927944E-01
    0.26270043136350645918E-01
    0.26270045777813007259E-01
    0.26270048281801787471E-01
    0.26270046779190366765E-01
    0.26270046211390077340E-01
    0.26270058402926909497E-01
    0.26270059019588478527E-01
    0.26270065012757307793E-01
    0.26270065012756228795E-01
    0.26270059019586643190E-01
    0.26270058402922492891E-01
    0.26270053091293352893E-01
    0.26270051577654451175E-01
    0.26270047629326678806E-01
    0.26270047629327154121E-01
    0.26270051577656165082E-01
    0.26270053091297075609E-01
    0.26270054835308850882E-01
    0.26270054835308306179E-01
    0.26270060647727595110E-01
    0.26270064467262491809E-01
    0.26270071948716298971E-01
    0.26270074737722883679E-01
    0.26270069788303988118E-01
    0.26270073140164964393E-01
    0.26270067228130449671E-01
    0.26270061742540543742E-01
    0.26270056071930412978E-01
    0.26270053674348762401E-01
    0.26270056700336715666E-01
    0.26270055244948079670E-01
    0.26270061856012265344E-01
    0.26270063364749178525E-01
    0.26270089013148454488E-01
    0.26270096721499953257E-01
    0.26270109956391098083E-01
    0.26270115340896047634E-01
    0.26270106986609222804E-01
    0.26270113189049426605E-01
    0.26270102725287760442E-01
    0.26270092776638446358E-01
    0.26270082436530551445E-01
    0.26270077739190152849E-01
    0.26270083048845357943E-01
    0.26270079538571491223E-01
    0.26270092574496889393E-01
    0.26270095501408938926E-01
    0.26270076982121848969E-01
    0.26270079967712835212E-01
    0.26270090488254790179E-01
    0.26270091893203440653E-01
    0.26270082540442229319E-01
    0.26270083079552614125E-01
    0.26270073854938433972E-01
    0.26270069781366200967E-01
    0.26270062237184033105E-01
    0.26270061100985425684E-01
    0.26270067416774393887E-01
    0.26270068123307305924E-01
    0.26270073905240300810E-01
    0.26270074627033183218E-01
    0.26270112197140430693E-01
    0.26270119076008412867E-01
    0.26270137204813439474E-01
    0.26270140961971891885E-01
    0.26270125977551989083E-01
    0.26270128377488780047E-01
    0.26270112793284613323E-01
    0.26270104586164876037E-01
    0.26270091266528884655E-01
    0.26270088249897252664E-01
    0.26270098262283304857E-01
    0.26270097695158721451E-01
    0.26270109984057685854E-01
    0.26270111918151574371E-01
    0.26270073140181766924E-01
    0.26270069788318615306E-01
    0.26270074737738135368E-01
    0.26270071948729416950E-01
    0.26270064467273403219E-01
    0.26270060647735644227E-01
    0.26270055244955268364E-01
    0.26270056700345652961E-01
    0.26270053674357321527E-01
    0.26270056071940172532E-01
    0.26270061742552759665E-01
    0.26270067228145146249E-01
    0.26270063364761390978E-01
    0.26270061856023433494E-01
    0.26270083079566481504E-01
    0.26270082540452984604E-01
    0.26270091893213810830E-01
    0.26270090488262457656E-01
    0.26270079967718695108E-01
    0.26270076982124267173E-01
    0.26270068123309554126E-01
    0.26270067416779421116E-01
    0.26270061100991028841E-01
    0.26270062237191495885E-01
    0.26270069781375617046E-01
    0.26270073854950958675E-01
    0.26270074627041645199E-01
    0.26270073905247385421E-01
    0.26270113189079520588E-01
    0.26270106986636562046E-01
    0.26270115340924406894E-01
    0.26270109956416775460E-01
    0.26270096721522407518E-01
    0.26270089013167186032E-01
    0.26270079538588484575E-01
    0.26270083048864842357E-01
    0.26270077739208690104E-01
    0.26270082436551017713E-01
    0.26270092776662267581E-01
    0.26270102725315026826E-01
    0.26270095501432909335E-01
    0.26270092574519496309E-01
    0.26270128377515952756E-01
    0.26270125977575463361E-01
    0.26270140961995404327E-01
    0.26270137204833676758E-01
    0.26270119076025846838E-01
    0.26270112197153527855E-01
    0.26270097695170826352E-01
    0.26270098262298868796E-01
    0.26270088249912879053E-01
    0.26270091266547026393E-01
    0.26270104586185911294E-01
    0.26270112793309704363E-01
    0.26270111918171801246E-01
    0.26270109984076219639E-01
    0.26270108987571379189E-01
    0.26270111305882467428E-01
    0.26270126916543061479E-01
    0.26270126916541416962E-01
    0.26270111305879438601E-01
    0.26270108987564322334E-01
    0.26270094761830169172E-01
    0.26270091464700214695E-01
    0.26270080551162016541E-01
    0.26270080551163265542E-01
    0.26270091464702976375E-01
    0.26270094761836677855E-01
    0.26270100480372298585E-01
    0.26270100480371445101E-01
    0.26270157230268428167E-01
    0.26270164110775096056E-01
    0.26270190412728152557E-01
    0.26270192870699246579E-01
    0.26270168389666788411E-01
    0.26270167098200080530E-01
    0.26270143521218560639E-01
    0.26270135899590558309E-01
    0.26270117251971723815E-01
    0.26270115585984885748E-01
    0.26270132226103918432E-01
    0.26270134740301952225E-01
    0.26270148176449629324E-01
    0.26270149340444196723E-01
    0.26270167098220470470E-01
    0.26270168389682543170E-01
    0.26270192870714043770E-01
    0.26270190412739098662E-01
    0.26270164110783665590E-01
    0.26270157230272050269E-01
    0.26270134740305327997E-01
    0.26270132226111686524E-01
    0.26270115585993694673E-01
    0.26270117251983644835E-01
    0.26270135899604959984E-01
    0.26270143521237653006E-01
    0.26270149340456842857E-01
    0.26270148176460238892E-01
    0.26270237672336847756E-01
    0.26270244197240864154E-01
    0.26270283869449594094E-01
    0.26270283869447380587E-01
    0.26270244197236686939E-01
    0.26270237672327102080E-01
    0.26270201633257547064E-01
    0.26270193876022470553E-01
    0.26270166389510286181E-01
    0.26270166389512138866E-01
    0.26270193876026363272E-01
    0.26270201633266768854E-01
    0.26270216867719669435E-01
    0.26270216867718486353E-01
    0.26270139993370873049E-01
    0.26270153869298370347E-01
    0.26270176826282222449E-01
    0.26270186475778511265E-01
    0.26270172191395605582E-01
    0.26270183151298656665E-01
    0.26270165070800235302E-01
    0.26270147662113149667E-01
    0.26270129642765819439E-01
    0.26270121311342237158E-01
    0.26270130374610903973E-01
    0.26270123833243935046E-01
    0.26270147001599880587E-01
    0.26270152214463403373E-01
    0.26270229364636889235E-01
    0.26270253640709274184E-01
    0.26270293626136254073E-01
    0.26270310290411512388E-01
    0.26270285325763639145E-01
    0.26270303987422166658E-01
    0.26270272842955539466E-01
    0.26270242852684255741E-01
    0.26270211665890875335E-01
    0.26270197234421383686E-01
    0.26270212861873396687E-01
    0.26270201322897996504E-01
    0.26270241734880774020E-01
    0.26270250768814586845E-01
    0.26270175676558565891E-01
    0.26270189171957815388E-01
    0.26270220674425394380E-01
    0.26270228418078866300E-01
    0.26270203199840667235E-01
    0.26270208381703470668E-01
    0.26270181482067746920E-01
    0.26270166582332835775E-01
    0.26270143504578749583E-01
    0.26270137569509747349E-01
    0.26270153964474036307E-01
    0.26270151353524829468E-01
    0.26270174598864756699E-01
    0.26270178498236915199E-01
    0.26270288788335063174E-01
    0.26270313731618047393E-01
    0.26270369115937153986E-01
    0.26270383394792127391E-01
    0.26270339398804250231E-01
    0.26270348661938270479E-01
    0.26270301757161811790E-01
    0.26270275526363184859E-01
    0.26270235318366492311E-01
    0.26270224564404164036E-01
    0.26270252585215442959E-01
    0.26270246867036606275E-01
    0.26270288859889429772E-01
    0.26270295973355187180E-01
    0.26270384658180899462E-01
    0.26270425950579635865E-01
    0.26270494786658105113E-01
    0.26270522183891118623E-01
    0.26270478622923396778E-01
    0.26270509113959006342E-01
    0.26270456414812185658E-01
    0.26270405852679347414E-01
    0.26270352775001965667E-01
    0.26270328177647107870E-01
    0.26270355317289943026E-01
    0.26270335925147825229E-01
    0.26270404743028906436E-01
    0.26270419856774647471E-01
    0.26270649979823389175E-01
    0.26270717177632383482E-01
    0.26270833702104961355E-01
    0.26270875977155307146E-01
    0.26270800425881542239E-01
    0.26270847497579796759E-01
    0.26270760915940966074E-01
    0.26270678371205002932E-01
    0.26270590169450897672E-01
    0.26270549614150338902E-01
    0.26270596365743303924E-01
    0.26270565583869663617E-01
    0.26270679013558461551E-01
    0.26270703214494692257E-01
    0.26270490108620349334E-01
    0.26270534265896330894E-01
    0.26270632527888231750E-01
    0.26270656802800267104E-01
    0.26270577852152369319E-01
    0.26270591778782464987E-01
    0.26270509712035351735E-01
    0.26270465323379760259E-01
    0.26270395291647798131E-01
    0.26270376887671510746E-01
    0.26270426163784731804E-01
    0.26270416057904096008E-01
    0.26270489876241576860E-01
    0.26270501994450135008E-01
    0.26270846435767967325E-01
    0.26270920947725338868E-01
    0.26271094610323713486E-01
    0.26271131737201146999E-01
    0.26270988562035142710E-01
    0.26271004605994022901E-01
    0.26270861934846120173E-01
    0.26270790537589971264E-01
    0.26270669849694394671E-01
    0.26270640271195303678E-01
    0.26270728572937433742E-01
    0.26270714068904070515E-01
    0.26270839074516799672E-01
    0.26270858050657874827E-01
    0.26270243574721564156E-01
    0.26270258514416049145E-01
    0.26270303549071009203E-01
    0.26270310487297457436E-01
    0.26270270336308087361E-01
    0.26270270895068531525E-01
    0.26270230680562348113E-01
    0.26270215506895081004E-01
    0.26270183389166423815E-01
    0.26270178919771736137E-01
    0.26270205595706828949E-01
    0.26270206834462309087E-01
    0.26270233606100337059E-01
    0.26270236782060533282E-01
    0.26270397803679703536E-01
    0.26270427728515833438E-01
    0.26270507164933114275E-01
    0.26270522495093859283E-01
    0.26270453356918077592E-01
    0.26270456747112171797E-01
    0.26270386171263086783E-01
    0.26270357847193608059E-01
    0.26270301410971051703E-01
    0.26270292029279489199E-01
    0.26270336775562667941E-01
    0.26270335490324085714E-01
    0.26270386672677139422E-01
    0.26270393507630367819E-01
    0.26270360124808191105E-01
    0.26270376685744504380E-01
    0.26270442457390071750E-01
    0.26270447892660562378E-01
    0.26270385590422929561E-01
    0.26270380541401600061E-01
    0.26270320673030547742E-01
    0.26270303506029255014E-01
    0.26270257076708391358E-01
    0.26270253948733741228E-01
    0.26270296357332037496E-01
    0.26270303482314873861E-01
    0.26270336000020037825E-01
    0.26270338348378038940E-01
    0.26270574878282517556E-01
    0.26270611768982238265E-01
    0.26270725259321673489E-01
    0.26270742814879503857E-01
    0.26270639820589643254E-01
    0.26270638846003033923E-01
    0.26270534998099080715E-01
    0.26270499769081120944E-01
    0.26270418924930930699E-01
    0.26270409655935293702E-01
    0.26270478023167006393E-01
    0.26270482574319097002E-01
    0.26270548095184684256E-01
    0.26270555383053700860E-01
    0.26270677716075451630E-01
    0.26270734976909109609E-01
    0.26270878502831395557E-01
    0.26270908064169620072E-01
    0.26270783796572386853E-01
    0.26270789864707499300E-01
    0.26270663393629836713E-01
    0.26270612774331462275E-01
    0.26270512220937056180E-01
    0.26270494652685934950E-01
    0.26270573018972204205E-01
    0.26270567816337919015E-01
    0.26270662893723144282E-01
    0.26270675859283811049E-01
    0.26271190455299325839E-01
    0.26271295012176766603E-01
    0.26271557701437787263E-01
    0.26271608413627672157E-01
    0.26271378350552959668E-01
    0.26271381611276713175E-01
    0.26271153003339424437E-01
    0.26271067385603290995E-01
    0.26270887393221059591E-01
    0.26270857607132238470E-01
    0.26270999801913771238E-01
    0.26270990667646407918E-01
    0.26271162133951069667E-01
    0.26271184233834784377E-01
    0.26270964997823841730E-01
    0.26271043030162890414E-01
    0.26271248281625976528E-01
    0.26271289895551320354E-01
    0.26271108800945193462E-01
    0.26271114573611170639E-01
    0.26270927190942192087E-01
    0.26270858683154582613E-01
    0.26270713115834669338E-01
    0.26270692106355665596E-01
    0.26270808552583495982E-01
    0.26270806323021356904E-01
    0.26270936704184847527E-01
    0.26270953676483341233E-01
    0.26271696220320394505E-01
    0.26271852646350481869E-01
    0.26272236184913744933E-01
    0.26272320518914680371E-01
    0.26271984668564705295E-01
    0.26271995656473926678E-01
    0.26271648634907263792E-01
    0.26271522075400528112E-01
    0.26271254333755628130E-01
    0.26271213127596223375E-01
    0.26271422772939014012E-01
    0.26271408949597271909E-01
    0.26271661503398945764E-01
    0.26271695391508087525E-01
    0.26270183151345764816E-01
    0.26270172191439365716E-01
    0.26270186475823700811E-01
    0.26270176826324171532E-01
    0.26270153869336131808E-01
    0.26270139993404030554E-01
    0.26270123833274587610E-01
    0.26270130374644682508E-01
    0.26270121311374652201E-01
    0.26270129642800725545E-01
    0.26270147662152354417E-01
    0.26270165070843790739E-01
    0.26270152214502882210E-01
    0.26270147001637673273E-01
    0.26270208381747688769E-01
    0.26270203199880600570E-01
    0.26270228418119254132E-01
    0.26270220674461969290E-01
    0.26270189171990608601E-01
    0.26270175676586116770E-01
    0.26270151353550624806E-01
    0.26270153964503894367E-01
    0.26270137569539230710E-01
    0.26270143504611317281E-01
    0.26270166582369264968E-01
    0.26270181482109127014E-01
    0.26270178498272681727E-01
    0.26270174598898517887E-01
    0.26270303987489980468E-01
    0.26270285325827508194E-01
    0.26270310290477213305E-01
    0.26270293626198190640E-01
    0.26270253640766069031E-01
    0.26270229364688188478E-01
    0.26270201322946024058E-01
    0.26270212861925157366E-01
    0.26270197234471364539E-01
    0.26270211665943916240E-01
    0.26270242852742556328E-01
    0.26270272843019089326E-01
    0.26270250768873286418E-01
    0.26270241734937468253E-01
    0.26270348662003218526E-01
    0.26270339398864375746E-01
    0.26270383394853168840E-01
    0.26270369115993858627E-01
    0.26270313731669960727E-01
    0.26270288788380852935E-01
    0.26270246867079852932E-01
    0.26270252585263335204E-01
    0.26270224564451261778E-01
    0.26270235318417219095E-01
    0.26270275526418744583E-01
    0.26270301757223189776E-01
    0.26270295973410223017E-01
    0.26270288859942127202E-01
    0.26270270895106039716E-01
    0.26270270336340387912E-01
    0.26270310487329258387E-01
    0.26270303549098414364E-01
    0.26270258514440040370E-01
    0.26270243574739688547E-01
    0.26270206834479403052E-01
    0.26270205595728925857E-01
    0.26270178919794454075E-01
    0.26270183389192812429E-01
    0.26270215506924932125E-01
    0.26270230680597788514E-01
    0.26270236782088771110E-01
    0.26270233606126212195E-01
    0.26270380541428578480E-01
    0.26270385590443732365E-01
    0.26270447892679866381E-01
    0.26270442457404372810E-01
    0.26270376685755821716E-01
    0.26270360124812989350E-01
    0.26270303482319391081E-01
    0.26270296357342518695E-01
    0.26270253948745825312E-01
    0.26270257076724760209E-01
    0.26270303506048683917E-01
    0.26270320673056238997E-01
    0.26270338348394890043E-01
    0.26270336000034193169E-01
    0.26270456747170635448E-01
    0.26270453356970771552E-01
    0.26270522495146539366E-01
    0.26270507164980846926E-01
    0.26270427728559135605E-01
    0.26270397803716229873E-01
    0.26270335490358759367E-01
    0.26270336775602937812E-01
    0.26270292029319915195E-01
    0.26270301411015700016E-01
    0.26270357847242718080E-01
    0.26270386171318695079E-01
    0.26270393507678051898E-01
    0.26270386672722145088E-01
    0.26270638846051207194E-01
    0.26270639820631061512E-01
    0.26270742814919922914E-01
    0.26270725259356524084E-01
    0.26270611769013015729E-01
    0.26270574878305842648E-01
    0.26270482574341294524E-01
    0.26270478023195785455E-01
    0.26270409655965203805E-01
    0.26270418924965711904E-01
    0.26270499769119996097E-01
    0.26270534998145148031E-01
    0.26270555383090195972E-01
    0.26270548095218126256E-01
    0.26270509114051151384E-01
    0.26270478623011035008E-01
    0.26270522183981022402E-01
    0.26270494786743699839E-01
    0.26270425950659120895E-01
    0.26270384658254028465E-01
    0.26270335925216915796E-01
    0.26270355317363359993E-01
    0.26270328177718332147E-01
    0.26270352775076801638E-01
    0.26270405852760393695E-01
    0.26270456414899376330E-01
    0.26270419856856203761E-01
    0.26270404743108134726E-01
    0.26270591778871862226E-01
    0.26270577852236427080E-01
    0.26270656802885764686E-01
    0.26270632527968889453E-01
    0.26270534265971170335E-01
    0.26270490108688173553E-01
    0.26270416057968540985E-01
    0.26270426163854387891E-01
    0.26270376887739903954E-01
    0.26270395291720365083E-01
    0.26270465323458135065E-01
    0.26270509712120412166E-01
    0.26270501994528187156E-01
    0.26270489876316995698E-01
    0.26270847497699988810E-01
    0.26270800425996682775E-01
    0.26270875977273216301E-01
    0.26270833702218013284E-01
    0.26270717177738302228E-01
    0.26270649979922063716E-01
    0.26270565583963491341E-01
    0.26270596365842033976E-01
    0.26270549614246452991E-01
    0.26270590169551185505E-01
    0.26270678371312472521E-01
    0.26270760916055513334E-01
    0.26270703214602817571E-01
    0.26270679013663953555E-01
    0.26271004606111744706E-01
    0.26270988562147091355E-01
    0.26271131737315215476E-01
    0.26271094610432425137E-01
    0.26270920947827035297E-01
    0.26270846435861736068E-01
    0.26270714068993526735E-01
    0.26270728573032663122E-01
    0.26270640271288722006E-01
    0.26270669849792538386E-01
    0.26270790537694970607E-01
    0.26270861934958665562E-01
    0.26270858050762794372E-01
    0.26270839074618780595E-01
    0.26270789864790828477E-01
    0.26270783796649446740E-01
    0.26270908064247269764E-01
    0.26270878502903560053E-01
    0.26270734976975712582E-01
    0.26270677716134373247E-01
    0.26270567816394051197E-01
    0.26270573019034518941E-01
    0.26270494652747878456E-01
    0.26270512221003784054E-01
    0.26270612774403713507E-01
    0.26270663393709495215E-01
    0.26270675859354861853E-01
    0.26270662893791197484E-01
    0.26271114573684781895E-01
    0.26271108801011477246E-01
    0.26271289895617257193E-01
    0.26271248281685741222E-01
    0.26271043030217378078E-01
    0.26270964997869867413E-01
    0.26270806323065283572E-01
    0.26270808552634635630E-01
    0.26270692106407422806E-01
    0.26270713115891870110E-01
    0.26270858683217001434E-01
    0.26270927191012784924E-01