# vtk DataFile Version 3.0
LAPLACIEN  2D
ASCII
DATASET UNSTRUCTURED_GRID
 POINTS        7297  float
   1.5625000000000000E-002  0.96875000000000000        0.0000000000000000     
   3.1250000000000000E-002  0.96875000000000000        0.0000000000000000     
   3.1250000000000000E-002  0.98437500000000000        0.0000000000000000     
   9.3749999999999997E-003  0.97812500000000002        0.0000000000000000     
   2.0312500000000001E-002  0.97968750000000004        0.0000000000000000     
   2.1874999999999999E-002  0.99062499999999998        0.0000000000000000     
   1.0937499999999999E-002  0.98906249999999996        0.0000000000000000     
   4.6875000000000000E-002  0.96875000000000000        0.0000000000000000     
   6.2500000000000000E-002  0.96875000000000000        0.0000000000000000     
   6.2500000000000000E-002  0.98437500000000000        0.0000000000000000     
   4.0625000000000001E-002  0.97812500000000002        0.0000000000000000     
   5.1562499999999997E-002  0.97968750000000004        0.0000000000000000     
   5.3124999999999999E-002  0.99062499999999998        0.0000000000000000     
   4.2187500000000003E-002  0.98906249999999996        0.0000000000000000     
   1.5625000000000000E-002  0.93750000000000000        0.0000000000000000     
   3.1250000000000000E-002  0.93750000000000000        0.0000000000000000     
   3.1250000000000000E-002  0.95312500000000000        0.0000000000000000     
   9.3749999999999997E-003  0.94687500000000002        0.0000000000000000     
   2.0312500000000001E-002  0.94843750000000004        0.0000000000000000     
   2.1874999999999999E-002  0.95937499999999998        0.0000000000000000     
   1.0937499999999999E-002  0.95781249999999996        0.0000000000000000     
   4.6875000000000000E-002  0.93750000000000000        0.0000000000000000     
   6.2500000000000000E-002  0.93750000000000000        0.0000000000000000     
   6.2500000000000000E-002  0.95312500000000000        0.0000000000000000     
   4.0625000000000001E-002  0.94687500000000002        0.0000000000000000     
   5.1562499999999997E-002  0.94843750000000004        0.0000000000000000     
   5.3124999999999999E-002  0.95937499999999998        0.0000000000000000     
   4.2187500000000003E-002  0.95781249999999996        0.0000000000000000     
   7.8125000000000000E-002  0.96875000000000000        0.0000000000000000     
   9.3750000000000000E-002  0.96875000000000000        0.0000000000000000     
   9.3750000000000000E-002  0.98437500000000000        0.0000000000000000     
   7.1874999999999994E-002  0.97812500000000002        0.0000000000000000     
   8.2812499999999997E-002  0.97968750000000004        0.0000000000000000     
   8.4375000000000006E-002  0.99062499999999998        0.0000000000000000     
   7.3437500000000003E-002  0.98906249999999996        0.0000000000000000     
  0.10937500000000000       0.96875000000000000        0.0000000000000000     
  0.12500000000000000       0.96875000000000000        0.0000000000000000     
  0.12500000000000000       0.98437500000000000        0.0000000000000000     
  0.10312499999999999       0.97812500000000002        0.0000000000000000     
  0.11406250000000000       0.97968750000000004        0.0000000000000000     
  0.11562500000000001       0.99062499999999998        0.0000000000000000     
  0.10468750000000000       0.98906249999999996        0.0000000000000000     
   7.8125000000000000E-002  0.93750000000000000        0.0000000000000000     
   9.3750000000000000E-002  0.93750000000000000        0.0000000000000000     
   9.3750000000000000E-002  0.95312500000000000        0.0000000000000000     
   7.1874999999999994E-002  0.94687500000000002        0.0000000000000000     
   8.2812499999999997E-002  0.94843750000000004        0.0000000000000000     
   8.4375000000000006E-002  0.95937499999999998        0.0000000000000000     
   7.3437500000000003E-002  0.95781249999999996        0.0000000000000000     
  0.10937500000000000       0.93750000000000000        0.0000000000000000     
  0.12500000000000000       0.93750000000000000        0.0000000000000000     
  0.12500000000000000       0.95312500000000000        0.0000000000000000     
  0.10312499999999999       0.94687500000000002        0.0000000000000000     
  0.11406250000000000       0.94843750000000004        0.0000000000000000     
  0.11562500000000001       0.95937499999999998        0.0000000000000000     
  0.10468750000000000       0.95781249999999996        0.0000000000000000     
   1.5625000000000000E-002  0.90625000000000000        0.0000000000000000     
   3.1250000000000000E-002  0.90625000000000000        0.0000000000000000     
   3.1250000000000000E-002  0.92187500000000000        0.0000000000000000     
   9.3749999999999997E-003  0.91562500000000002        0.0000000000000000     
   2.0312500000000001E-002  0.91718750000000004        0.0000000000000000     
   2.1874999999999999E-002  0.92812499999999998        0.0000000000000000     
   1.0937499999999999E-002  0.92656249999999996        0.0000000000000000     
   4.6875000000000000E-002  0.90625000000000000        0.0000000000000000     
   6.2500000000000000E-002  0.90625000000000000        0.0000000000000000     
   6.2500000000000000E-002  0.92187500000000000        0.0000000000000000     
   4.0625000000000001E-002  0.91562500000000002        0.0000000000000000     
   5.1562499999999997E-002  0.91718750000000004        0.0000000000000000     
   5.3124999999999999E-002  0.92812499999999998        0.0000000000000000     
   4.2187500000000003E-002  0.92656249999999996        0.0000000000000000     
   1.5625000000000000E-002  0.87500000000000000        0.0000000000000000     
   3.1250000000000000E-002  0.87500000000000000        0.0000000000000000     
   3.1250000000000000E-002  0.89062500000000000        0.0000000000000000     
   9.3749999999999997E-003  0.88437500000000002        0.0000000000000000     
   2.0312500000000001E-002  0.88593750000000004        0.0000000000000000     
   2.1874999999999999E-002  0.89687499999999998        0.0000000000000000     
   1.0937499999999999E-002  0.89531249999999996        0.0000000000000000     
   4.6875000000000000E-002  0.87500000000000000        0.0000000000000000     
   6.2500000000000000E-002  0.87500000000000000        0.0000000000000000     
   6.2500000000000000E-002  0.89062500000000000        0.0000000000000000     
   4.0625000000000001E-002  0.88437500000000002        0.0000000000000000     
   5.1562499999999997E-002  0.88593750000000004        0.0000000000000000     
   5.3124999999999999E-002  0.89687499999999998        0.0000000000000000     
   4.2187500000000003E-002  0.89531249999999996        0.0000000000000000     
   7.8125000000000000E-002  0.90625000000000000        0.0000000000000000     
   9.3750000000000000E-002  0.90625000000000000        0.0000000000000000     
   9.3750000000000000E-002  0.92187500000000000        0.0000000000000000     
   7.1874999999999994E-002  0.91562500000000002        0.0000000000000000     
   8.2812499999999997E-002  0.91718750000000004        0.0000000000000000     
   8.4375000000000006E-002  0.92812499999999998        0.0000000000000000     
   7.3437500000000003E-002  0.92656249999999996        0.0000000000000000     
  0.10937500000000000       0.90625000000000000        0.0000000000000000     
  0.12500000000000000       0.90625000000000000        0.0000000000000000     
  0.12500000000000000       0.92187500000000000        0.0000000000000000     
  0.10312499999999999       0.91562500000000002        0.0000000000000000     
  0.11406250000000000       0.91718750000000004        0.0000000000000000     
  0.11562500000000001       0.92812499999999998        0.0000000000000000     
  0.10468750000000000       0.92656249999999996        0.0000000000000000     
   7.8125000000000000E-002  0.87500000000000000        0.0000000000000000     
   9.3750000000000000E-002  0.87500000000000000        0.0000000000000000     
   9.3750000000000000E-002  0.89062500000000000        0.0000000000000000     
   7.1874999999999994E-002  0.88437500000000002        0.0000000000000000     
   8.2812499999999997E-002  0.88593750000000004        0.0000000000000000     
   8.4375000000000006E-002  0.89687499999999998        0.0000000000000000     
   7.3437500000000003E-002  0.89531249999999996        0.0000000000000000     
  0.10937500000000000       0.87500000000000000        0.0000000000000000     
  0.12500000000000000       0.87500000000000000        0.0000000000000000     
  0.12500000000000000       0.89062500000000000        0.0000000000000000     
  0.10312499999999999       0.88437500000000002        0.0000000000000000     
  0.11406250000000000       0.88593750000000004        0.0000000000000000     
  0.11562500000000001       0.89687499999999998        0.0000000000000000     
  0.10468750000000000       0.89531249999999996        0.0000000000000000     
  0.14062500000000000       0.96875000000000000        0.0000000000000000     
  0.15625000000000000       0.96875000000000000        0.0000000000000000     
  0.15625000000000000       0.98437500000000000        0.0000000000000000     
  0.13437499999999999       0.97812500000000002        0.0000000000000000     
  0.14531250000000001       0.97968750000000004        0.0000000000000000     
  0.14687500000000001       0.99062499999999998        0.0000000000000000     
  0.13593749999999999       0.98906249999999996        0.0000000000000000     
  0.17187500000000000       0.96875000000000000        0.0000000000000000     
  0.18750000000000000       0.96875000000000000        0.0000000000000000     
  0.18750000000000000       0.98437500000000000        0.0000000000000000     
  0.16562499999999999       0.97812500000000002        0.0000000000000000     
  0.17656250000000001       0.97968750000000004        0.0000000000000000     
  0.17812500000000001       0.99062499999999998        0.0000000000000000     
[...]
 CELL_DATA       14336
 SCALARS Tumor_cells float
 LOOKUP_TABLE default
   -0.50748669559098302813E-15
   -0.65333011958101377290E-15
    0.31896865255843184457E-15
   -0.89745719877351584944E-15
   -0.40982654328609786743E-14
    0.10038115464723299082E-13
    0.20608927576472284077E-14
   -0.20522523327980369183E-14
    0.10105596464644852270E-14
    0.41619473097178719881E-16
    0.30581211642318773304E-14
    0.69549371306280940988E-14
    0.79174408906208833918E-14
    0.62303862238853101012E-14
    0.86310895171769465539E-15
   -0.31914649084931982630E-14
    0.42089361384060418732E-14
   -0.47325487315420788942E-14
   -0.51522217174683879935E-14
    0.64515068608632263893E-14
   -0.32463190526685961775E-14
   -0.39020590058841453698E-14
   -0.33830853662985269377E-14
    0.41874031916478826861E-14
   -0.12986260948788166421E-14
   -0.69984324587564530388E-14
    0.23426774472391529877E-14
    0.34494256098512508356E-15
    0.30168739901037913403E-14
   -0.61490735267486392774E-14
   -0.36180136347174883312E-14
    0.57656815980968138536E-14
    0.63618478707607697800E-14
    0.41894013979373174093E-15
   -0.52193251938153056803E-14
   -0.79588302854023174267E-14
    0.50853505402964298599E-14
    0.12854156019180146063E-14
   -0.43408727567204261243E-14
    0.12187327401205217105E-15
    0.27890193179398958911E-14
    0.57909657164152845906E-14
    0.43347291318025608670E-14
    0.87223102665595869620E-14
    0.73114584402240871547E-14
    0.79783723769014197189E-14
    0.13274544016700581977E-13
    0.98781088268652222738E-14
   -0.15936227556747018321E-14
    0.66178379314435719193E-14
    0.37736825432880090868E-14
    0.38895653887428103763E-14
    0.21777217117278052620E-14
   -0.44744644372099564813E-14
    0.16203772277303527290E-14
    0.40355758893754574842E-15
   -0.19534313180379116607E-14
   -0.96276414790146978571E-15
    0.45888987633728981643E-14
    0.58856754703741968094E-14
   -0.50769773762680019968E-14
   -0.44460477706061293059E-14
    0.36154412596156183574E-15
    0.34364752103914669543E-14
    0.45948094551845543149E-14
    0.91826662977483318879E-14
   -0.35257185151151566318E-14
   -0.57809411134121865044E-14
   -0.25166745214368063094E-14
   -0.55603274087051243090E-15
    0.34403619529469186940E-14
   -0.17024437245354009911E-14
    0.29175128681347208641E-14
   -0.40243358812618336870E-14
   -0.16363282550765893470E-14
    0.57050459722353334367E-14
   -0.43084605121974058829E-15
   -0.33345628419107936511E-14
    0.11148589807989355679E-14
    0.25801512605814008387E-14
    0.38144689936594883871E-15
   -0.34123424454424330340E-15
    0.70912492462680989767E-15
    0.79487000723476014919E-15
   -0.49433022054337457784E-14
    0.17103563976843241608E-14
    0.19262364372416600527E-14
    0.12541905321520144001E-14
   -0.38135885423778823356E-14
    0.26696704984989706154E-14
   -0.11255835345823322638E-14
   -0.45121726144259644927E-14
   -0.11121632744744846423E-14
    0.35522323194112649367E-14
    0.25214823038416012290E-14
   -0.49619001117018163422E-14
    0.39700865379997765359E-15
   -0.11392830546906096288E-14
   -0.26133606764999553165E-14
    0.58452093119168762884E-14
    0.38620931214989680898E-14
    0.32081644322565469158E-14
    0.22995794126377555195E-14
    0.73504402152700384703E-15
   -0.76616051813187075642E-14
   -0.62189376417364481854E-14
    0.63651481015089213529E-14
   -0.14129030651177094691E-14
    0.19988167976723832565E-14
   -0.52549032418356119409E-14
   -0.80251372378665877895E-15
    0.30435730123504660140E-14
   -0.79815895102641284618E-14
    0.70958820903731091812E-15
   -0.17155030212338039143E-15
    0.39119951324984366293E-14
    0.58678446800752468350E-16
   -0.28595303265589606119E-15
   -0.78115001168414814015E-14
    0.35866400887682341484E-14
    0.85272974650603155185E-14
    0.48286551576370231066E-14
   -0.24318494037192894210E-14
    0.19577633164578984540E-14
    0.23509966593375007589E-14
    0.28196835116622875576E-14
    0.55265851828065965270E-14
   -0.29201840838000255230E-14
    0.32913946483730248456E-14
    0.49100588725071626221E-14
    0.26129676459387491774E-14
   -0.31618496380263472833E-14
   -0.18606968107062480628E-14
    0.37520049195831415713E-14
    0.18880393506115895887E-14
   -0.77605030692612688616E-14
   -0.18071107561724740585E-15
    0.40204868938738708304E-14
   -0.17907990171371571253E-14
    0.50605187814428501255E-14
    0.81561391206035977106E-15
   -0.23640249945999603442E-14
   -0.34141013220255673753E-14
    0.67817896780101072020E-14
   -0.84831944998623383261E-15
   -0.16175459159736071704E-14
    0.31952176895324672895E-14
   -0.23993928781317653693E-15
    0.19477888538818214701E-14
    0.60407835493497650977E-15
    0.12776580966086125051E-14
   -0.67555129929438370580E-15
    0.24244147521409801503E-14
   -0.30254823663494057198E-14
   -0.30535966627379831329E-14
   -0.46102272529142277796E-14
    0.29639439890745800438E-14
    0.39328656042071927682E-14
    0.10047147193618632460E-14
   -0.36725456448604119349E-14
   -0.40349954374317784461E-14
    0.82425200959311742303E-14
   -0.28155500906994464310E-14
    0.45039535824610459456E-14
   -0.76231291701878670605E-14
   -0.10295603311416001080E-13
    0.65163951795477304852E-15
    0.25741016027823402851E-14
    0.70953887608367981443E-15
    0.29756451253947241408E-14
   -0.72172051928389980475E-16
   -0.21901075794990721875E-14
    0.10739169688627134109E-13
    0.38419292192017432041E-15
   -0.26437171893214861478E-14
    0.24401721155433484420E-14
    0.36325507723219458984E-14
    0.49649686056423640605E-14
    0.21082299414009013543E-14
    0.30457451256676866740E-14
   -0.78936172080195524453E-14
   -0.28118854631544197302E-14
    0.83500581516181014119E-14
   -0.31051652630987043989E-14
    0.49912301169528177068E-14
   -0.19038258991501960039E-14
   -0.12518120567753613918E-14
    0.30065612240134342470E-14
    0.29845524140464619263E-14
    0.58243732036646026828E-14
    0.31688567986373269649E-14
   -0.28302538804605502895E-14
   -0.55123703873416933701E-14
    0.39027530827219708646E-14
    0.48734051544861597970E-15
    0.13956766745257467222E-14
    0.23240101552624587983E-14
    0.92386687775428971944E-14
    0.35778333641497319787E-14
    0.22247960698448780954E-14
    0.12940500463581048930E-14
    0.81453692277946519776E-14
    0.32392964605904452753E-14
   -0.28305654148873338990E-14
   -0.53376603440422960193E-14
    0.62414358834950090536E-15
   -0.14516378575656029040E-14
   -0.81422139638505001932E-15
    0.15637277103430516347E-14
    0.10740743076846570842E-14
    0.16828829387462723436E-14
    0.14386184953066305982E-15
    0.33296545996456688645E-14
    0.83943437653807229661E-16
    0.51654736268570363913E-15
   -0.18065218585417753105E-14
   -0.40446551990076027374E-15
    0.27827849058586058070E-14
   -0.11429021260134039552E-14
    0.26667961619715655150E-14
    0.12581900880931896015E-15
    0.28377871930817380021E-14
   -0.28519766482240414484E-14
    0.76318924914638497346E-15
    0.52827041690749955778E-14
    0.17921874078533415600E-14
    0.43105296446896703232E-14
    0.16288081941671958588E-14
   -0.31180196486643052445E-14
    0.33033199926658960719E-14
    0.77060249469065549596E-14
    0.90100559718099295800E-14
   -0.48533643177500918364E-14
    0.17568553870320920422E-14
   -0.26815583651383938439E-14
    0.10209392538903759651E-15
    0.10995438742455685815E-13
    0.19780303406691124662E-14
   -0.15953670459715361109E-14
   -0.18732761998597163083E-14
    0.85504601563170846099E-15
    0.38972955305470786458E-14
   -0.18701651556624139083E-15
    0.29872140308925530660E-14
    0.48266495198866246494E-14
    0.29012204707686981636E-14
   -0.30781756054970851778E-14
   -0.25979735467360091592E-14
    0.85976244384849368746E-14
   -0.77150591855801337605E-15
   -0.15777705286299366533E-14
   -0.29938418074262780108E-14
   -0.57047142733209020496E-14
   -0.13613231973964847028E-14
   -0.74989802342119940063E-15
    0.43176831315254280344E-14
   -0.26335953201868946509E-14
    0.34807461916200416384E-15
    0.26351072750360549222E-14
   -0.79546815090614171800E-16
   -0.25864978353020312909E-14
   -0.11998385503910908619E-15
   -0.40906537006021168642E-15
    0.53483243956216587790E-14
    0.25126662084628250048E-14
   -0.23272058911773091831E-14
    0.15544736904585336054E-14
   -0.72338516222175230097E-14
   -0.44940176015540268371E-15
   -0.42012442725029503667E-14
   -0.16562794042350620651E-15
    0.34436541078450208472E-14
    0.12160415349389818601E-14
    0.18323300243060078347E-14
    0.64781880716603810337E-14
   -0.60454379430540831334E-14
    0.59733100642845299952E-14
    0.43792184484991263322E-14
   -0.73629812292642035596E-14
    0.34956503402071168625E-14
   -0.37544115850128891123E-14
   -0.36120330766554726142E-14
    0.71971612165589092160E-15
    0.11945901571064997353E-14
    0.40677713778503816217E-14
    0.19154544384945129832E-14
    0.46188880953203255964E-14
    0.21165059409935053206E-14
    0.79468334496390292467E-15
   -0.11074110852685179818E-14
    0.41903333279642637589E-14
    0.17647678358544068397E-14
    0.23778794009839221529E-14
   -0.22614143826909461479E-15
   -0.12540332960345107961E-14
    0.17827518245494145769E-14
   -0.39136956044885393456E-14
   -0.67385640861550127075E-14
    0.18181275118203216613E-14
   -0.16205722412806754616E-14
   -0.24492484387681812675E-15
    0.18527028655674337502E-14
    0.35238255479989122430E-14
   -0.71192531487256944972E-15
   -0.62300322792170709039E-14
   -0.13369461832205116873E-14
    0.32371453178148321285E-15
   -0.80494399072377965565E-14
    0.75616171685543115266E-15
   -0.11992113347324848147E-14
   -0.87906135495493324665E-15
    0.45558417472359433780E-14
    0.46768070198259294659E-15
    0.13405233181386806549E-14
    0.68837996361557124093E-14
    0.45849966431964280696E-14
    0.20067464579906742595E-15
    0.33907481828923230672E-14
    0.42011469772305281635E-15
   -0.55639533584098080773E-14
    0.29254085601913463025E-14
    0.56488644437140826099E-15
   -0.39227287396220511926E-14
   -0.92955254135901862850E-14
    0.58384224399937059477E-15
   -0.33677466287304212237E-14
    0.52874449287116068170E-14
   -0.36792527875689928584E-14
   -0.18988216509203778794E-14
    0.43325679700663752340E-14
   -0.38590637998937279552E-14
    0.25017800675572793738E-14
   -0.81954203281416599523E-14
    0.19140265287093678423E-14
    0.67532963554487531617E-14
   -0.16305157213162859094E-14
   -0.30027406416344900563E-14
   -0.87087679064054070680E-15
    0.44901139631831294661E-14
    0.67744883821849337436E-14
   -0.67948833490609392604E-15
   -0.53557605407263420829E-14
    0.42091476938826059334E-14
   -0.28899674705589221145E-14
   -0.17753152987040625405E-14
   -0.45550735519374457674E-14
    0.28063035108037084740E-14
    0.10242195352527025889E-13
    0.57733630085207799499E-14
   -0.44597896829289426202E-14
    0.20043198973227948375E-14
   -0.21437291363347719650E-14
   -0.89386396201986273894E-15
    0.30832227310820891194E-14
    0.44685252169362607994E-14
    0.82604190742976974480E-15
   -0.35094991582004166665E-14
    0.28602753787739958173E-14
   -0.15149197327935945252E-14
    0.43388250803926362270E-14
    0.81234427720290397985E-14
    0.33391473142056816815E-14
   -0.67023446087631401755E-14
    0.22679120720520692257E-14
   -0.80698801038571648558E-15
    0.37367694723818150994E-14
   -0.11743932142135872768E-14
   -0.18600499701359900816E-14
    0.22274887741952659867E-15
   -0.13220603472242369236E-15
   -0.73808888969354979555E-14
    0.35255089595834638505E-14
    0.64895071594040587091E-14
   -0.23459023735881587602E-14
   -0.40381120513639792411E-14
    0.62303387876451409461E-14
    0.62997319106231322388E-14
    0.57092311736979563503E-14
   -0.36953224799851842156E-14
   -0.85258263960344175235E-15
   -0.53707371492888122128E-15
    0.24667229359635362462E-14
    0.31200415315247086134E-14
   -0.24692327817787858737E-14
    0.80118104483027588962E-14
   -0.64059318411382647631E-14
    0.32768605547816338956E-14
   -0.49844102186345804112E-14
    0.34231512959371629422E-16
   -0.64998462416798773120E-15
    0.19856318833558946950E-14
   -0.11685653908318317526E-14
    0.54950929346721046228E-14
   -0.21689024072953447911E-14
    0.49395239723241407373E-14
   -0.55740827261412067612E-14
   -0.73082402542619241460E-14
    0.20508639924073869712E-14
   -0.29547452016234960730E-14
    0.33620620036987227404E-14
    0.70224601056993560631E-14
    0.35296719242419394502E-14
    0.54230045544207180719E-14
   -0.56767846263024423625E-14
   -0.11380876598963828712E-14
    0.65453523543270796776E-14
   -0.20732842416223043466E-14
   -0.30089580732202972963E-14
    0.61086900067784883594E-17
    0.35317776998416562808E-14
   -0.40567328593504367745E-15
   -0.33082182708750098994E-14
   -0.20680710440058758173E-14
   -0.51005761064150228525E-14
   -0.47685246793235016545E-14
    0.16806576932381010592E-14
   -0.12131448122074913115E-13
   -0.24663369858157519003E-14
    0.81994426979275104279E-16
   -0.40008210343542061273E-15
   -0.32102814811011728144E-14
   -0.10499853579559588188E-14
   -0.91309468949935924418E-15
    0.31115526676188037910E-14
   -0.16784112741428503244E-14
    0.24317163705842641720E-14
    0.58143681179921993050E-14
   -0.23844536561762875110E-14
    0.39226886831958389083E-14
    0.27472848304210161123E-14
   -0.19173747614150789703E-14
    0.12077928753923495598E-14
   -0.60466941190974237066E-14
    0.21016076083440013781E-14
   -0.43386419462007727881E-14
   -0.55542383692682096322E-14
   -0.20510072568648773103E-14
   -0.10030689547748000694E-14
   -0.41151825005723243935E-14
   -0.25090320440598033230E-14
    0.13128664973273475476E-14
   -0.42292385986781479107E-14
   -0.81353194536325127051E-14
   -0.24819148097130278887E-16
   -0.75202483859679837739E-14
    0.28166545035618269959E-14
   -0.11924939811310851842E-14
    0.30183532711136049945E-14
    0.13111159632861050501E-14
   -0.60317999286719596964E-14
    0.27321785573649233654E-14
    0.11704666143872271311E-14
   -0.31859687794601858369E-14
    0.80373676391296595403E-14
   -0.21047798480495144758E-14
    0.14467785635247447872E-14
    0.43027101756088026399E-14
   -0.32806514781620048747E-14
    0.51792448431461011806E-14
    0.77749968254771867957E-14
   -0.45273981908786211442E-14
    0.32646951740291982462E-14
   -0.94436257680248429204E-14
   -0.31701075600847264214E-15
    0.36240087127385611307E-14
    0.41038992157165661723E-14
    0.93905263818950945822E-15
   -0.54525616410116029764E-14
    0.38953172669658445880E-14
   -0.54183330413986054934E-15
    0.18505876167729250440E-14
   -0.10100211970084258365E-14
   -0.17884360296465716305E-14
    0.52656686791720033808E-14
   -0.37264100670255673453E-14
   -0.24306007856480440568E-14
    0.34578801776007289206E-14
   -0.33206534875913964321E-14
    0.33421259409731921373E-14
    0.75627473529116971964E-14
    0.13938611743033755898E-14
    0.14266926721279832829E-14
    0.24518553843865190559E-14
   -0.10163657303868072619E-14
    0.22272918866486274931E-15
    0.43771762995927739654E-15
    0.59485196985469859829E-14
   -0.19598261403325826162E-14
   -0.89995981926054482921E-15
   -0.30604041480622320480E-14
    0.22486744017991545834E-14
    0.12973127982930433090E-14
   -0.67703260502713642368E-17
    0.41160122859362327280E-14
   -0.25723324925296533562E-14
    0.33880130826237243937E-14
   -0.67791041403634993107E-15
    0.36311006711167470493E-14
   -0.73991506437883974314E-14
    0.51557428290930765148E-14
    0.16083366220079072718E-15
   -0.28986518418785964563E-14
    0.47397443287846516923E-14
   -0.33343501814184435985E-15
   -0.62040413055576969442E-15
    0.17370452468233531408E-14
    0.64650525763566561005E-14
   -0.25824344375361306451E-14
    0.26344249030771316490E-14
    0.49567717322368957221E-15
    0.38862660799565344098E-14
    0.77348239304603774602E-14
    0.56176315918996903042E-15
   -0.15245023631791346828E-14
   -0.24805304897822207562E-14
   -0.14736488712941959323E-14
   -0.20433091791002829518E-15
    0.17117631604131085635E-14
    0.53496435927730520102E-14
    0.28751863939846558903E-14
   -0.16933406400424149834E-14
   -0.13647028707620245915E-14
   -0.60114771216514157564E-14
    0.52782602124287477802E-15
    0.62043096620521363451E-15
    0.75162529903389714236E-15
   -0.33684308187688247260E-15
    0.11867720357892219895E-14
    0.73788890276823208016E-14
   -0.51507227632253663797E-15
    0.64037721098729688796E-14
    0.38720888692924181749E-14
    0.14033707876793739734E-14
    0.18114617907489829293E-14
   -0.26328782953264343995E-14
   -0.24712097281426796806E-14
   -0.12647991628594215110E-14
    0.18057829468682172665E-14
    0.33982026547938018110E-14
    0.17826457731412735671E-14
    0.94174785819308664388E-15
   -0.60228135330138303662E-14
   -0.10923255750572383177E-14
   -0.69061572273805756250E-15
   -0.65810905477595282510E-14
   -0.54161962715602578238E-14
   -0.24434967978762284247E-14
   -0.27809996309032438581E-14
    0.39481538445947055214E-15
   -0.14443707024910305640E-14
   -0.22609728414299330759E-14
   -0.62838625666832562595E-14
    0.47076365844480252838E-14
    0.14840774514573186740E-14
   -0.90563892597905749420E-15
    0.79978645138503639479E-14
   -0.14066597264628840885E-14
    0.97862952197309003752E-14
   -0.15416045284421431040E-14
    0.85669013875951770335E-15
    0.55651397859370566917E-14
    0.25250710910789988473E-14
   -0.22501445088124956242E-14
    0.27869160531041371472E-14
    0.26797208361289975466E-14
   -0.33163138202473238143E-14
   -0.11640668932477096486E-15
    0.13164803610459709680E-14
    0.58187857665350886175E-14
   -0.22306353632688640120E-14
    0.62279421989880338315E-14
    0.55447709296174042353E-14
    0.29125803566729475996E-14
    0.15736517784846012745E-14
    0.15657174973914452316E-14
    0.13135813567139506842E-14
    0.55410701604195445288E-14
    0.64944858809763379391E-14
   -0.52272038365297895547E-15
    0.11408161001817521518E-14
   -0.50953271017253062832E-14
   -0.44155030374573264782E-14
    0.39748698325741847455E-14
   -0.51085913330234547734E-14
    0.42734988885987707546E-14
    0.32597759103978787964E-14
    0.22169397460775509976E-14
    0.79962518769381296549E-14
   -0.36877639591722899344E-14
    0.29280669617014258738E-14
   -0.26918724394348699588E-14
   -0.42615258085890919116E-14
    0.10556107759056149497E-14
    0.44262784383204182968E-15
   -0.53646689891843066278E-14
    0.18120675104726601452E-14
   -0.76698362008525313476E-14
    0.16938643872838890659E-14
    0.99860712719867658567E-14
   -0.37945467892041701849E-14
   -0.62489495703135635163E-14
   -0.24679208558849429016E-14
    0.61004996681347632281E-16
    0.45491107054946987651E-14
    0.74708975837294777960E-15
    0.34332147492545788663E-14
   -0.36556564867562794574E-14
   -0.18612200694858830639E-14
   -0.38416090344923537048E-14
   -0.63515709784776781213E-14
    0.41880921341057127562E-14
   -0.65912390928888365980E-14
    0.74216626994726357278E-14
    0.12094850508242876237E-14
    0.17462970060388500818E-14
    0.71278423530327826972E-14
    0.15819810345193300230E-14
   -0.18059044780714113982E-14
   -0.79785942981876908342E-15
    0.70642854810923328184E-14
    0.78846279461464153315E-15
    0.28308741420027953987E-14
   -0.22801870920423068586E-15
   -0.85410733541194067516E-15
   -0.20727673875133388804E-14
    0.39270861844509602808E-14
   -0.37390719809227817505E-14
   -0.97543174824915717777E-15
    0.59715616701784545789E-14
    0.48399313659300751809E-14
    0.97547003688671299276E-14
   -0.53274968918730394423E-14
    0.68581975021984557012E-14
    0.63563021653571046794E-14
    0.41719456547028671309E-14
   -0.37278939562567279923E-15
   -0.15469057907484259600E-14
   -0.13763440335734458888E-14
   -0.32682896397084722806E-14
    0.36857869926499187084E-15
   -0.74631735692844072042E-14
    0.46130426450004149709E-14