# vtk DataFile Version 3.0
LAPLACIEN  2D
ASCII
DATASET UNSTRUCTURED_GRID
FIELD FieldData 1
TIME 1 1 double
18.2000
 POINTS        7297  float
   1.5625000000000000E-002  0.96875000000000000        0.0000000000000000     
   3.1250000000000000E-002  0.96875000000000000        0.0000000000000000     
   3.1250000000000000E-002  0.98437500000000000        0.0000000000000000     
   9.3749999999999997E-003  0.97812500000000002        0.0000000000000000     
   2.0312500000000001E-002  0.97968750000000004        0.0000000000000000     
   2.1874999999999999E-002  0.99062499999999998        0.0000000000000000     
   1.0937499999999999E-002  0.98906249999999996        0.0000000000000000     
   4.6875000000000000E-002  0.96875000000000000        0.0000000000000000     
   6.2500000000000000E-002  0.96875000000000000        0.0000000000000000     
   6.2500000000000000E-002  0.98437500000000000        0.0000000000000000     
   4.0625000000000001E-002  0.97812500000000002        0.0000000000000000     
   5.1562499999999997E-002  0.97968750000000004        0.0000000000000000     
   5.3124999999999999E-002  0.99062499999999998        0.0000000000000000     
   4.2187500000000003E-002  0.98906249999999996        0.0000000000000000     
   1.5625000000000000E-002  0.93750000000000000        0.0000000000000000     
   3.1250000000000000E-002  0.93750000000000000        0.0000000000000000     
   3.1250000000000000E-002  0.95312500000000000        0.0000000000000000     
   9.3749999999999997E-003  0.94687500000000002        0.0000000000000000     
   2.0312500000000001E-002  0.94843750000000004        0.0000000000000000     
   2.1874999999999999E-002  0.95937499999999998        0.0000000000000000     
   1.0937499999999999E-002  0.95781249999999996        0.0000000000000000     
   4.6875000000000000E-002  0.93750000000000000        0.0000000000000000     
   6.2500000000000000E-002  0.93750000000000000        0.0000000000000000     
   6.2500000000000000E-002  0.95312500000000000        0.0000000000000000     
   4.0625000000000001E-002  0.94687500000000002        0.0000000000000000     
   5.1562499999999997E-002  0.94843750000000004        0.0000000000000000     
   5.3124999999999999E-002  0.95937499999999998        0.0000000000000000     
   4.2187500000000003E-002  0.95781249999999996        0.0000000000000000     
   7.8125000000000000E-002  0.96875000000000000        0.0000000000000000     
   9.3750000000000000E-002  0.96875000000000000        0.0000000000000000     
   9.3750000000000000E-002  0.98437500000000000        0.0000000000000000     
   7.1874999999999994E-002  0.97812500000000002        0.0000000000000000     
   8.2812499999999997E-002  0.97968750000000004        0.0000000000000000     
   8.4375000000000006E-002  0.99062499999999998        0.0000000000000000     
   7.3437500000000003E-002  0.98906249999999996        0.0000000000000000     
  0.10937500000000000       0.96875000000000000        0.0000000000000000     
  0.12500000000000000       0.96875000000000000        0.0000000000000000     
  0.12500000000000000       0.98437500000000000        0.0000000000000000     
  0.10312499999999999       0.97812500000000002        0.0000000000000000     
  0.11406250000000000       0.97968750000000004        0.0000000000000000     
  0.11562500000000001       0.99062499999999998        0.0000000000000000     
  0.10468750000000000       0.98906249999999996        0.0000000000000000     
   7.8125000000000000E-002  0.93750000000000000        0.0000000000000000     
   9.3750000000000000E-002  0.93750000000000000        0.0000000000000000     
   9.3750000000000000E-002  0.95312500000000000        0.0000000000000000     
   7.1874999999999994E-002  0.94687500000000002        0.0000000000000000     
   8.2812499999999997E-002  0.94843750000000004        0.0000000000000000     
   8.4375000000000006E-002  0.95937499999999998        0.0000000000000000     
   7.3437500000000003E-002  0.95781249999999996        0.0000000000000000     
  0.10937500000000000       0.93750000000000000        0.0000000000000000     
  0.12500000000000000       0.93750000000000000        0.0000000000000000     
  0.12500000000000000       0.95312500000000000        0.0000000000000000     
  0.10312499999999999       0.94687500000000002        0.0000000000000000     
  0.11406250000000000       0.94843750000000004        0.0000000000000000     
  0.11562500000000001       0.95937499999999998        0.0000000000000000     
  0.10468750000000000       0.95781249999999996        0.0000000000000000     
   1.5625000000000000E-002  0.90625000000000000        0.0000000000000000     
   3.1250000000000000E-002  0.90625000000000000        0.0000000000000000     
   3.1250000000000000E-002  0.92187500000000000        0.0000000000000000     
   9.3749999999999997E-003  0.91562500000000002        0.0000000000000000     
   2.0312500000000001E-002  0.91718750000000004        0.0000000000000000     
   2.1874999999999999E-002  0.92812499999999998        0.0000000000000000     
   1.0937499999999999E-002  0.92656249999999996        0.0000000000000000     
   4.6875000000000000E-002  0.90625000000000000        0.0000000000000000     
   6.2500000000000000E-002  0.90625000000000000        0.0000000000000000     
   6.2500000000000000E-002  0.92187500000000000        0.0000000000000000     
   4.0625000000000001E-002  0.91562500000000002        0.0000000000000000     
   5.1562499999999997E-002  0.91718750000000004        0.0000000000000000     
   5.3124999999999999E-002  0.92812499999999998        0.0000000000000000     
   4.2187500000000003E-002  0.92656249999999996        0.0000000000000000     
   1.5625000000000000E-002  0.87500000000000000        0.0000000000000000     
   3.1250000000000000E-002  0.87500000000000000        0.0000000000000000     
   3.1250000000000000E-002  0.89062500000000000        0.0000000000000000     
   9.3749999999999997E-003  0.88437500000000002        0.0000000000000000     
   2.0312500000000001E-002  0.88593750000000004        0.0000000000000000     
   2.1874999999999999E-002  0.89687499999999998        0.0000000000000000     
   1.0937499999999999E-002  0.89531249999999996        0.0000000000000000     
   4.6875000000000000E-002  0.87500000000000000        0.0000000000000000     
   6.2500000000000000E-002  0.87500000000000000        0.0000000000000000     
   6.2500000000000000E-002  0.89062500000000000        0.0000000000000000     
   4.0625000000000001E-002  0.88437500000000002        0.0000000000000000     
   5.1562499999999997E-002  0.88593750000000004        0.0000000000000000     
   5.3124999999999999E-002  0.89687499999999998        0.0000000000000000     
   4.2187500000000003E-002  0.89531249999999996        0.0000000000000000     
   7.8125000000000000E-002  0.90625000000000000        0.0000000000000000     
   9.3750000000000000E-002  0.90625000000000000        0.0000000000000000     
   9.3750000000000000E-002  0.92187500000000000        0.0000000000000000     
   7.1874999999999994E-002  0.91562500000000002        0.0000000000000000     
   8.2812499999999997E-002  0.91718750000000004        0.0000000000000000     
   8.4375000000000006E-002  0.92812499999999998        0.0000000000000000     
   7.3437500000000003E-002  0.92656249999999996        0.0000000000000000     
  0.10937500000000000       0.90625000000000000        0.0000000000000000     
  0.12500000000000000       0.90625000000000000        0.0000000000000000     
  0.12500000000000000       0.92187500000000000        0.0000000000000000     
  0.10312499999999999       0.91562500000000002        0.0000000000000000     
  0.11406250000000000       0.91718750000000004        0.0000000000000000     
  0.11562500000000001       0.92812499999999998        0.0000000000000000     
  0.10468750000000000       0.92656249999999996        0.0000000000000000     
   7.8125000000000000E-002  0.87500000000000000        0.0000000000000000     
   9.3750000000000000E-002  0.87500000000000000        0.0000000000000000     
   9.3750000000000000E-002  0.89062500000000000        0.0000000000000000     
   7.1874999999999994E-002  0.88437500000000002        0.0000000000000000     
   8.2812499999999997E-002  0.88593750000000004        0.0000000000000000     
   8.4375000000000006E-002  0.89687499999999998        0.0000000000000000     
   7.3437500000000003E-002  0.89531249999999996        0.0000000000000000     
  0.10937500000000000       0.87500000000000000        0.0000000000000000     
  0.12500000000000000       0.87500000000000000        0.0000000000000000     
  0.12500000000000000       0.89062500000000000        0.0000000000000000     
  0.10312499999999999       0.88437500000000002        0.0000000000000000     
  0.11406250000000000       0.88593750000000004        0.0000000000000000     
  0.11562500000000001       0.89687499999999998        0.0000000000000000     
  0.10468750000000000       0.89531249999999996        0.0000000000000000     
  0.14062500000000000       0.96875000000000000        0.0000000000000000     
  0.15625000000000000       0.96875000000000000        0.0000000000000000     
  0.15625000000000000       0.98437500000000000        0.0000000000000000     
  0.13437499999999999       0.97812500000000002        0.0000000000000000     
  0.14531250000000001       0.97968750000000004        0.0000000000000000     
  0.14687500000000001       0.99062499999999998        0.0000000000000000     
  0.13593749999999999       0.98906249999999996        0.0000000000000000     
  0.17187500000000000       0.96875000000000000        0.0000000000000000     
  0.18750000000000000       0.96875000000000000        0.0000000000000000     
  0.18750000000000000       0.98437500000000000        0.0000000000000000     
  0.16562499999999999       0.97812500000000002        0.0000000000000000     
  0.17656250000000001       0.97968750000000004        0.0000000000000000     
[...]
 CELL_DATA       14336
 SCALARS Tumor_cells float
 LOOKUP_TABLE default
    0.59864266315021237574E-01
    0.59864265859723000962E-01
    0.59864269476072255738E-01
    0.59864269476071339804E-01
    0.59864265859726671637E-01
    0.59864266315018059561E-01
    0.59864263452042279501E-01
    0.59864261756050904384E-01
    0.59864259923384635642E-01
    0.59864259923363610794E-01
    0.59864261756061729058E-01
    0.59864263452037783098E-01
    0.59864263188116682846E-01
    0.59864263188113275849E-01
    0.59864278222106388772E-01
    0.59864281394738289022E-01
    0.59864290010518676766E-01
    0.59864292397556716219E-01
    0.59864285934270851375E-01
    0.59864289026703959573E-01
    0.59864282255140628675E-01
    0.59864276629354055970E-01
    0.59864270687302337248E-01
    0.59864268570581323503E-01
    0.59864272262363564525E-01
    0.59864271809570213101E-01
    0.59864277608833345312E-01
    0.59864278877698795522E-01
    0.59864289026704702035E-01
    0.59864285934270428102E-01
    0.59864292397557077041E-01
    0.59864290010518531049E-01
    0.59864281394739246589E-01
    0.59864278222105306304E-01
    0.59864271809572468241E-01
    0.59864272262361392651E-01
    0.59864268570584230900E-01
    0.59864270687299700469E-01
    0.59864276629355547832E-01
    0.59864282255140274791E-01
    0.59864278877699551862E-01
    0.59864277608833074695E-01
    0.59864305040997857488E-01
    0.59864306434051460515E-01
    0.59864319934244090982E-01
    0.59864319934243979959E-01
    0.59864306434051668682E-01
    0.59864305040997482787E-01
    0.59864293083993429245E-01
    0.59864289679623663987E-01
    0.59864280797453504890E-01
    0.59864280797452429361E-01
    0.59864289679624378693E-01
    0.59864293083993047606E-01
    0.59864297013764146416E-01
    0.59864297013763945188E-01
    0.59864310091008385295E-01
    0.59864318691376892934E-01
    0.59864335546101626884E-01
    0.59864341828767389520E-01
    0.59864330675399889115E-01
    0.59864338222463252259E-01
    0.59864324903718117710E-01
    0.59864312550438517069E-01
    0.59864299780981330978E-01
    0.59864294388005924452E-01
    0.59864301198389938130E-01
    0.59864297924600635981E-01
    0.59864312808133188226E-01
    0.59864316204242901120E-01
    0.59864374014001138502E-01
    0.59864391395160816700E-01
    0.59864421251760335796E-01
    0.59864433399121452783E-01
    0.59864414546339131395E-01
    0.59864428533908047025E-01
    0.59864404926924866257E-01
    0.59864382491125939234E-01
    0.59864359175933870572E-01
    0.59864348588174874644E-01
    0.59864360560536698797E-01
    0.59864352649373883675E-01
    0.59864382038491877058E-01
    0.59864388638687392186E-01
    0.59864346911005242302E-01
    0.59864353641517785432E-01
    0.59864377365072544979E-01
    0.59864380530782503043E-01
    0.59864359434968171525E-01
    0.59864360641947424180E-01
    0.59864339845526935713E-01
    0.59864330670469978468E-01
    0.59864313673664446003E-01
    0.59864311115362840721E-01
    0.59864325348985406028E-01
    0.59864326943008625004E-01
    0.59864339970990922135E-01
    0.59864341596821649127E-01
    0.59864426343451487833E-01
    0.59864441865862684511E-01
    0.59864482789549658404E-01
    0.59864491268868537388E-01
    0.59864457432062492814E-01
    0.59864462836724426087E-01
    0.59864427659342182853E-01
    0.59864409147897860997E-01
    0.59864379099908972270E-01
    0.59864372298992704624E-01
    0.59864394891978048308E-01
    0.59864393618432473754E-01
    0.59864421339060905347E-01
    0.59864425701341983377E-01
    0.59864338222463980843E-01
    0.59864330675400333204E-01
    0.59864341828767993203E-01
    0.59864335546102043217E-01
    0.59864318691377448045E-01
    0.59864310091008406112E-01
    0.59864297924601315992E-01
    0.59864301198389847924E-01
    0.59864294388006653036E-01
    0.59864299780981282406E-01
    0.59864312550439148508E-01
    0.59864324903718596493E-01
    0.59864316204243442354E-01
    0.59864312808133528232E-01
    0.59864360641947986230E-01
    0.59864359434968539286E-01
    0.59864380530782933254E-01
    0.59864377365072836412E-01
    0.59864353641518069926E-01
    0.59864346911005207608E-01
    0.59864326943008860926E-01
    0.59864325348985392150E-01
    0.59864311115363284810E-01
    0.59864313673664487636E-01
    0.59864330670470443374E-01
    0.59864339845527275719E-01
    0.59864341596822023828E-01
    0.59864339970991158058E-01
    0.59864428533909330721E-01
    0.59864414546340269374E-01
    0.59864433399122701784E-01
    0.59864421251761446019E-01
    0.59864391395161788145E-01
    0.59864374014001839330E-01
    0.59864352649374612259E-01
    0.59864360560537420441E-01
    0.59864348588175658739E-01
    0.59864359175934640789E-01
    0.59864382491126966190E-01
    0.59864404926926025052E-01
    0.59864388638688419142E-01
    0.59864382038492820748E-01
    0.59864462836725619577E-01
    0.59864457432063512832E-01
    0.59864491268869654550E-01
    0.59864482789550588215E-01
    0.59864441865863482484E-01
    0.59864426343452008250E-01
    0.59864393618432987232E-01
    0.59864394891978631175E-01
    0.59864372298993363819E-01
    0.59864379099909645343E-01
    0.59864409147898763053E-01
    0.59864427659343244503E-01
    0.59864425701342864616E-01
    0.59864421339061689442E-01
    0.59864419105887994865E-01
    0.59864424342294636494E-01
    0.59864459577739038976E-01
    0.59864459577738955709E-01
    0.59864424342294532411E-01
    0.59864419105887696493E-01
    0.59864387007553435116E-01
    0.59864379572773351867E-01
    0.59864354958048461575E-01
    0.59864354958048413002E-01
    0.59864379572773525340E-01
    0.59864387007553671038E-01
    0.59864399913838982348E-01
    0.59864399913838926837E-01
    0.59864528034920698463E-01
    0.59864543576619723420E-01
    0.59864602996014926184E-01
    0.59864608549198942977E-01
    0.59864553237297481181E-01
    0.59864550312033769364E-01
    0.59864497059778629118E-01
    0.59864479855358532223E-01
    0.59864437755232667582E-01
    0.59864433996417609762E-01
    0.59864471565831918476E-01
    0.59864477243641536774E-01
    0.59864507583796126855E-01
    0.59864510212134874889E-01
    0.59864550312034796320E-01
    0.59864553237298279154E-01
    0.59864608549199754828E-01
    0.59864602996015557623E-01
    0.59864543576620181387E-01
    0.59864528034920920507E-01
    0.59864477243641696369E-01
    0.59864471565832258482E-01
    0.59864433996418012218E-01
    0.59864437755233153304E-01
    0.59864479855359205296E-01
    0.59864497059779551991E-01
    0.59864510212135485512E-01
    0.59864507583796619516E-01
    0.59864709805175747581E-01
    0.59864724559429788320E-01
    0.59864814239535095453E-01
    0.59864814239534949736E-01
    0.59864724559429538520E-01
    0.59864709805175171653E-01
    0.59864628355094665069E-01
    0.59864610829860588626E-01
    0.59864548725769871351E-01
    0.59864548725769975435E-01
    0.59864610829860817609E-01
    0.59864628355095227119E-01
    0.59864662788739905763E-01
    0.59864662788739836374E-01
    0.59864489047915463160E-01
    0.59864520375450473721E-01
    0.59864572221306984467E-01
    0.59864594016886298056E-01
    0.59864561744881562844E-01
    0.59864586492592866684E-01
    0.59864545654743472891E-01
    0.59864506346052503982E-01
    0.59864465666441858682E-01
    0.59864446861542429390E-01
    0.59864467325350743943E-01
    0.59864452562917024048E-01
    0.59864504860203067438E-01
    0.59864516630443578848E-01
    0.59864690928409673709E-01
    0.59864745783871853302E-01
    0.59864836166586686550E-01
    0.59864873836200628576E-01
    0.59864817389342635245E-01
    0.59864859564682550153E-01
    0.59864789164195665594E-01
    0.59864721383921681852E-01
    0.59864650909623361164E-01
    0.59864618303845880398E-01
    0.59864653622177084469E-01
    0.59864627554155599998E-01
    0.59864718865263642777E-01
    0.59864739281666905224E-01
    0.59864569677973315798E-01
    0.59864600158947275932E-01
    0.59864671339943234529E-01
    0.59864688836936290339E-01
    0.59864631835620775446E-01
    0.59864643528103285430E-01
    0.59864582749780147208E-01
    0.59864549100889098698E-01
    0.59864496981331220826E-01
    0.59864483585203097371E-01
    0.59864520620464982403E-01
    0.59864514732365363414E-01
    0.59864567225107807869E-01
    0.59864576030648819494E-01
    0.59864825303280549962E-01
    0.59864881688019316863E-01
    0.59865006918806334957E-01
    0.59865039200476581616E-01
    0.59864939697618302361E-01
    0.59864960621000551377E-01
    0.59864854562698903429E-01
    0.59864795276571805549E-01
    0.59864704390780461296E-01
    0.59864680093738215083E-01
    0.59864743442723307443E-01
    0.59864730528561192757E-01
    0.59864825439587238121E-01
    0.59864841516683121869E-01
    0.59865041994085155252E-01
    0.59865135362366296568E-01
    0.59865291051548141787E-01
    0.59865353006813684655E-01
    0.59865254470467643699E-01
    0.59865323420488503192E-01
    0.59865204229574191241E-01
    0.59865089887853287220E-01
    0.59864969866092167250E-01
    0.59864914250558315389E-01
    0.59864975626544261744E-01
    0.59864931787215774905E-01
    0.59865087387712893896E-01
    0.59865121563888387679E-01
    0.59865642103645588801E-01
    0.59865794108929420991E-01
    0.59866057737262196037E-01
    0.59866153368286267877E-01
    0.59865982428840572305E-01
    0.59866088912368012331E-01
    0.59865893028412005272E-01
    0.59865706287492305437E-01
    0.59865506762174676425E-01
    0.59865415026097885953E-01
    0.59865520791978439619E-01
    0.59865451173502205739E-01
    0.59865707754042318811E-01
    0.59865762498284541548E-01
    0.59865280563242577461E-01
    0.59865380428617734343E-01
    0.59865602713638839394E-01
    0.59865657610711255077E-01
    0.59865478993983728406E-01
    0.59865510470739534410E-01
    0.59865324823998450343E-01
    0.59865224440046070631E-01
    0.59865066051693734128E-01
    0.59865024443360628781E-01
    0.59865135902621005592E-01
    0.59865113063424242601E-01
    0.59865280003181607638E-01
    0.59865307405023222842E-01
    0.59866086651528163665E-01
    0.59866255220581220120E-01
    0.59866648160811816726E-01
    0.59866732144568085561E-01
    0.59866408172831599155E-01
    0.59866444444113868506E-01
    0.59866121627900732716E-01
    0.59865960113210471560E-01
    0.59865687065090239516E-01
    0.59865620163842780954E-01
    0.59865819955913439354E-01
    0.59865787166117109819E-01
    0.59866069959662537858E-01
    0.59866112883100078279E-01
    0.59864723139310689615E-01
    0.59864756907869527691E-01
    0.59864858713319847594E-01
    0.59864874400529101417E-01
    0.59864783619911640655E-01
    0.59864784870052492605E-01
    0.59864693966061241492E-01
    0.59864659682594974222E-01
    0.59864587108060314524E-01
    0.59864577014614270278E-01
    0.59864637298246564656E-01
    0.59864640100771748799E-01
    0.59864700598345192695E-01
    0.59864707775181463800E-01
    0.59865071852152534904E-01
    0.59865139526318472685E-01
    0.59865319197296394671E-01
    0.59865353870801392422E-01
    0.59865197476574573410E-01
    0.59865205127994841616E-01
    0.59865045503785241365E-01
    0.59864981461938589213E-01
    0.59864853849365101679E-01
    0.59864832645406207412E-01
    0.59864933831703832923E-01
    0.59864930930706293510E-01
    0.59865046665960840178E-01
    0.59865062120511305932E-01
    0.59864986662443574195E-01
    0.59865024113386830495E-01
    0.59865172859317770937E-01
    0.59865185153848109179E-01
    0.59865044245347005802E-01
    0.59865032820802854818E-01
    0.59864897440569629639E-01
    0.59864858628685041486E-01
    0.59864753662175314297E-01
    0.59864746594280107694E-01
    0.59864842473836152315E-01
    0.59864858583319496832E-01
    0.59864932107627014113E-01
    0.59864937416912955559E-01
    0.59865472393760249536E-01
    0.59865555850632100332E-01
    0.59865812596032685899E-01
    0.59865852316776123343E-01
    0.59865619302896973253E-01
    0.59865617090007962331E-01
    0.59865382164227043393E-01
    0.59865302482848214982E-01
    0.59865119623110224500E-01
    0.59865098663198362816E-01
    0.59865253304207909080E-01
    0.59865263596184874195E-01
    0.59865411805023069358E-01
    0.59865428289790537097E-01
    0.59865705014836095854E-01
    0.59865834556552519063E-01
    0.59866159281846270668E-01
    0.59866226156485111143E-01
    0.59865944986481199608E-01
    0.59865958691563893324E-01
    0.59865672551510672184E-01
    0.59865558058169440758E-01
    0.59865330589216815549E-01
    0.59865290860899568470E-01
    0.59865468148564741913E-01
    0.59865456388227399065E-01
    0.59865671464842493132E-01
    0.59865700790758862027E-01
    0.59866865119691518859E-01
    0.59867101692057576867E-01
    0.59867696099590916869E-01
    0.59867810834823571853E-01
    0.59867290239468733126E-01
    0.59867297588955432908E-01
    0.59866780298443937613E-01
    0.59866586593910503522E-01
    0.59866179334194462303E-01
    0.59866111955026467262E-01
    0.59866433705781110786E-01
    0.59866413056294733031E-01
    0.59866801008819449381E-01
    0.59866851006078372621E-01
    0.59866355018450480296E-01
    0.59866531578524395663E-01
    0.59866996004116199148E-01
    0.59867090161038076512E-01
    0.59866680387759448057E-01
    0.59866693437720885917E-01
    0.59866269450338141511E-01
    0.59866114455202443234E-01
    0.59865785109094148131E-01
    0.59865737580748049074E-01
    0.59866001043098131251E-01
    0.59865996002493968020E-01
    0.59866290994370817413E-01
    0.59866329394848663559E-01
    0.59868009595941226730E-01
    0.59868363546491464022E-01
    0.59869231426893952663E-01
    0.59869422242037402537E-01
    0.59868662272334116636E-01
    0.59868687112943949624E-01
    0.59867901869372082413E-01
    0.59867615504708392160E-01
    0.59867009664309994710E-01
    0.59866916435059494561E-01
    0.59867390823090158025E-01
    0.59867359549848633837E-01
    0.59867931019610721999E-01
    0.59868007695778657773E-01
    0.59864586492595198153E-01
    0.59864561744883672267E-01
    0.59864594016888511563E-01
    0.59864572221309010625E-01
    0.59864520375452250078E-01
    0.59864489047916975839E-01
    0.59864452562918377132E-01
    0.59864467325352228866E-01
    0.59864446861543837985E-01
    0.59864465666443412994E-01
    0.59864506346054349728E-01
    0.59864545654745623948E-01
    0.59864516630445424594E-01
    0.59864504860204802161E-01
    0.59864643528105505876E-01
    0.59864631835622822420E-01
    0.59864688836938489969E-01
    0.59864671339945239870E-01
    0.59864600158948996778E-01
    0.59864569677974717454E-01
    0.59864514732366598537E-01
    0.59864520620466397938E-01
    0.59864483585204443516E-01
    0.59864496981332705750E-01
    0.59864549100890861177E-01
    0.59864582749782159488E-01
    0.59864576030650575034E-01
    0.59864567225109480142E-01
    0.59864859564686470628E-01
    0.59864817389346236531E-01
    0.59864873836204465785E-01
    0.59864836166590239264E-01
    0.59864745783874954987E-01
    0.59864690928412366000E-01
    0.59864627554157980038E-01
    0.59864653622179762882E-01
    0.59864618303848433911E-01
    0.59864650909626129782E-01
    0.59864721383924887621E-01
    0.59864789164199350147E-01
    0.59864739281670117932E-01
    0.59864718865266702830E-01
    0.59864960621004520425E-01
    0.59864939697622077119E-01
    0.59865039200480710258E-01
    0.59865006918810192982E-01
    0.59864881688022571204E-01
    0.59864825303283360214E-01
    0.59864730528563593615E-01
    0.59864743442725971978E-01
    0.59864680093740678390E-01
    0.59864704390783167465E-01
    0.59864795276574969685E-01
    0.59864854562702463081E-01
    0.59864841516686397027E-01
    0.59864825439590360623E-01
    0.59864784870054740806E-01
    0.59864783619913645996E-01
    0.59864874400531273291E-01
    0.59864858713321741912E-01
    0.59864756907871082003E-01
    0.59864723139311848410E-01
    0.59864640100772685549E-01
    0.59864637298247799779E-01
    0.59864577014615463768E-01
    0.59864587108061688425E-01
    0.59864659682596681189E-01
    0.59864693966063288466E-01
    0.59864707775183163829E-01
    0.59864700598346767824E-01
    0.59865032820804929548E-01
    0.59865044245348657259E-01
    0.59865185153849788391E-01
    0.59865172859319061571E-01
    0.59865024113387760307E-01
    0.59864986662444018284E-01
    0.59864858583319760510E-01
    0.59864842473836860082E-01
    0.59864746594280877912E-01
    0.59864753662176382887E-01
    0.59864858628686429265E-01
    0.59864897440571517018E-01
    0.59864937416914225377E-01
    0.59864932107628061886E-01
    0.59865205127999247814E-01
    0.59865197476578702052E-01
    0.59865353870805979031E-01
    0.59865319197300613518E-01
    0.59865139526321976826E-01
    0.59865071852155497811E-01
    0.59864930930708729062E-01
    0.59864933831706622358E-01
    0.59864832645408740108E-01
    0.59864853849367911931E-01
    0.59864981461941989271E-01
    0.59865045503789203474E-01
    0.59865062120514837829E-01
    0.59865046665964177786E-01
    0.59865617090012729351E-01
    0.59865619302901219856E-01
    0.59865852316780730769E-01
    0.59865812596036752091E-01
    0.59865555850635382429E-01
    0.59865472393762754477E-01
    0.59865263596186830963E-01
    0.59865253304210455654E-01
    0.59865098663200777551E-01
    0.59865119623113097203E-01
    0.59865302482851767696E-01
    0.59865382164231359385E-01
    0.59865428289794062056E-01
    0.59865411805026309822E-01
    0.59865323420495067386E-01
    0.59865254470473756865E-01
    0.59865353006820158643E-01
    0.59865291051554213320E-01
    0.59865135362371604821E-01
    0.59865041994089832067E-01
    0.59864931787219868853E-01
    0.59864975626548758147E-01
    0.59864914250562575870E-01
    0.59864969866096788553E-01
    0.59865089887858637108E-01
    0.59865204229580339101E-01
    0.59865121563893793077E-01
    0.59865087387718063372E-01
    0.59865510470746473304E-01
    0.59865478993990396683E-01
    0.59865657610718658876E-01
    0.59865602713645896249E-01
    0.59865380428623736486E-01
    0.59865280563247816326E-01
    0.59865113063428697371E-01
    0.59865135902625828124E-01
    0.59865024443365028040E-01
    0.59865066051698466454E-01
    0.59865224440051607868E-01
    0.59865324824004605142E-01
    0.59865307405029051513E-01
    0.59865280003187235081E-01
    0.59866088912378864761E-01
    0.59865982428850765540E-01
    0.59866153368297224391E-01
    0.59866057737272486416E-01
    0.59865794108938406859E-01
    0.59865642103653554651E-01
    0.59865451173509144633E-01
    0.59865520791986037707E-01
    0.59865415026105026075E-01
    0.59865506762182420231E-01
    0.59865706287501235794E-01
    0.59865893028422198507E-01
    0.59865762498293610683E-01
    0.59865707754051013245E-01
    0.59866444444125650748E-01
    0.59866408172843200985E-01
    0.59866732144581220887E-01
    0.59866648160824438574E-01
    0.59866255220591850505E-01
    0.59866086651537614438E-01
    0.59865787166125061791E-01
    0.59865819955921911744E-01
    0.59865620163850365165E-01
    0.59865687065098337205E-01
    0.59865960113219984784E-01
    0.59866121627911182690E-01
    0.59866112883110222942E-01
    0.59866069959672391088E-01
    0.59865958691572185302E-01
    0.59865944986489137702E-01
    0.59866226156494062316E-01
    0.59866159281854701424E-01
    0.59865834556559527346E-01
    0.59865705014842257592E-01
    0.59865456388232415885E-01
    0.59865468148570258333E-01
    0.59865290860904474268E-01
    0.59865330589222165436E-01
    0.59865558058175907807E-01
    0.59865672551518020472E-01
    0.59865700790765682959E-01
    0.59865671464849043448E-01
    0.59866693437730787719E-01
    0.59866680387768649030E-01
    0.59867090161048366892E-01
    0.59866996004125615227E-01
    0.59866531578532118651E-01
    0.59866355018456926529E-01
    0.59865996002499165252E-01
    0.59866001043104119517E-01
    0.59865737580753503044E-01
    0.59865785109100295991E-01
    0.59866114455209958056E-01
    0.59866269450346863701E-01