# vtk DataFile Version 3.0
LAPLACIEN  2D
ASCII
DATASET UNSTRUCTURED_GRID
FIELD FieldData 1
TIME 1 1 double
11.8000
 POINTS        7297  float
   1.5625000000000000E-002  0.96875000000000000        0.0000000000000000     
   3.1250000000000000E-002  0.96875000000000000        0.0000000000000000     
   3.1250000000000000E-002  0.98437500000000000        0.0000000000000000     
   9.3749999999999997E-003  0.97812500000000002        0.0000000000000000     
   2.0312500000000001E-002  0.97968750000000004        0.0000000000000000     
   2.1874999999999999E-002  0.99062499999999998        0.0000000000000000     
   1.0937499999999999E-002  0.98906249999999996        0.0000000000000000     
   4.6875000000000000E-002  0.96875000000000000        0.0000000000000000     
   6.2500000000000000E-002  0.96875000000000000        0.0000000000000000     
   6.2500000000000000E-002  0.98437500000000000        0.0000000000000000     
   4.0625000000000001E-002  0.97812500000000002        0.0000000000000000     
   5.1562499999999997E-002  0.97968750000000004        0.0000000000000000     
   5.3124999999999999E-002  0.99062499999999998        0.0000000000000000     
   4.2187500000000003E-002  0.98906249999999996        0.0000000000000000     
   1.5625000000000000E-002  0.93750000000000000        0.0000000000000000     
   3.1250000000000000E-002  0.93750000000000000        0.0000000000000000     
   3.1250000000000000E-002  0.95312500000000000        0.0000000000000000     
   9.3749999999999997E-003  0.94687500000000002        0.0000000000000000     
   2.0312500000000001E-002  0.94843750000000004        0.0000000000000000     
   2.1874999999999999E-002  0.95937499999999998        0.0000000000000000     
   1.0937499999999999E-002  0.95781249999999996        0.0000000000000000     
   4.6875000000000000E-002  0.93750000000000000        0.0000000000000000     
   6.2500000000000000E-002  0.93750000000000000        0.0000000000000000     
   6.2500000000000000E-002  0.95312500000000000        0.0000000000000000     
   4.0625000000000001E-002  0.94687500000000002        0.0000000000000000     
   5.1562499999999997E-002  0.94843750000000004        0.0000000000000000     
   5.3124999999999999E-002  0.95937499999999998        0.0000000000000000     
   4.2187500000000003E-002  0.95781249999999996        0.0000000000000000     
   7.8125000000000000E-002  0.96875000000000000        0.0000000000000000     
   9.3750000000000000E-002  0.96875000000000000        0.0000000000000000     
   9.3750000000000000E-002  0.98437500000000000        0.0000000000000000     
   7.1874999999999994E-002  0.97812500000000002        0.0000000000000000     
   8.2812499999999997E-002  0.97968750000000004        0.0000000000000000     
   8.4375000000000006E-002  0.99062499999999998        0.0000000000000000     
   7.3437500000000003E-002  0.98906249999999996        0.0000000000000000     
  0.10937500000000000       0.96875000000000000        0.0000000000000000     
  0.12500000000000000       0.96875000000000000        0.0000000000000000     
  0.12500000000000000       0.98437500000000000        0.0000000000000000     
  0.10312499999999999       0.97812500000000002        0.0000000000000000     
  0.11406250000000000       0.97968750000000004        0.0000000000000000     
  0.11562500000000001       0.99062499999999998        0.0000000000000000     
  0.10468750000000000       0.98906249999999996        0.0000000000000000     
   7.8125000000000000E-002  0.93750000000000000        0.0000000000000000     
   9.3750000000000000E-002  0.93750000000000000        0.0000000000000000     
   9.3750000000000000E-002  0.95312500000000000        0.0000000000000000     
   7.1874999999999994E-002  0.94687500000000002        0.0000000000000000     
   8.2812499999999997E-002  0.94843750000000004        0.0000000000000000     
   8.4375000000000006E-002  0.95937499999999998        0.0000000000000000     
   7.3437500000000003E-002  0.95781249999999996        0.0000000000000000     
  0.10937500000000000       0.93750000000000000        0.0000000000000000     
  0.12500000000000000       0.93750000000000000        0.0000000000000000     
  0.12500000000000000       0.95312500000000000        0.0000000000000000     
  0.10312499999999999       0.94687500000000002        0.0000000000000000     
  0.11406250000000000       0.94843750000000004        0.0000000000000000     
  0.11562500000000001       0.95937499999999998        0.0000000000000000     
  0.10468750000000000       0.95781249999999996        0.0000000000000000     
   1.5625000000000000E-002  0.90625000000000000        0.0000000000000000     
   3.1250000000000000E-002  0.90625000000000000        0.0000000000000000     
   3.1250000000000000E-002  0.92187500000000000        0.0000000000000000     
   9.3749999999999997E-003  0.91562500000000002        0.0000000000000000     
   2.0312500000000001E-002  0.91718750000000004        0.0000000000000000     
   2.1874999999999999E-002  0.92812499999999998        0.0000000000000000     
   1.0937499999999999E-002  0.92656249999999996        0.0000000000000000     
   4.6875000000000000E-002  0.90625000000000000        0.0000000000000000     
   6.2500000000000000E-002  0.90625000000000000        0.0000000000000000     
   6.2500000000000000E-002  0.92187500000000000        0.0000000000000000     
   4.0625000000000001E-002  0.91562500000000002        0.0000000000000000     
   5.1562499999999997E-002  0.91718750000000004        0.0000000000000000     
   5.3124999999999999E-002  0.92812499999999998        0.0000000000000000     
   4.2187500000000003E-002  0.92656249999999996        0.0000000000000000     
   1.5625000000000000E-002  0.87500000000000000        0.0000000000000000     
   3.1250000000000000E-002  0.87500000000000000        0.0000000000000000     
   3.1250000000000000E-002  0.89062500000000000        0.0000000000000000     
   9.3749999999999997E-003  0.88437500000000002        0.0000000000000000     
   2.0312500000000001E-002  0.88593750000000004        0.0000000000000000     
   2.1874999999999999E-002  0.89687499999999998        0.0000000000000000     
   1.0937499999999999E-002  0.89531249999999996        0.0000000000000000     
   4.6875000000000000E-002  0.87500000000000000        0.0000000000000000     
   6.2500000000000000E-002  0.87500000000000000        0.0000000000000000     
   6.2500000000000000E-002  0.89062500000000000        0.0000000000000000     
   4.0625000000000001E-002  0.88437500000000002        0.0000000000000000     
   5.1562499999999997E-002  0.88593750000000004        0.0000000000000000     
   5.3124999999999999E-002  0.89687499999999998        0.0000000000000000     
   4.2187500000000003E-002  0.89531249999999996        0.0000000000000000     
   7.8125000000000000E-002  0.90625000000000000        0.0000000000000000     
   9.3750000000000000E-002  0.90625000000000000        0.0000000000000000     
   9.3750000000000000E-002  0.92187500000000000        0.0000000000000000     
   7.1874999999999994E-002  0.91562500000000002        0.0000000000000000     
   8.2812499999999997E-002  0.91718750000000004        0.0000000000000000     
   8.4375000000000006E-002  0.92812499999999998        0.0000000000000000     
   7.3437500000000003E-002  0.92656249999999996        0.0000000000000000     
  0.10937500000000000       0.90625000000000000        0.0000000000000000     
  0.12500000000000000       0.90625000000000000        0.0000000000000000     
  0.12500000000000000       0.92187500000000000        0.0000000000000000     
  0.10312499999999999       0.91562500000000002        0.0000000000000000     
  0.11406250000000000       0.91718750000000004        0.0000000000000000     
  0.11562500000000001       0.92812499999999998        0.0000000000000000     
  0.10468750000000000       0.92656249999999996        0.0000000000000000     
   7.8125000000000000E-002  0.87500000000000000        0.0000000000000000     
   9.3750000000000000E-002  0.87500000000000000        0.0000000000000000     
   9.3750000000000000E-002  0.89062500000000000        0.0000000000000000     
   7.1874999999999994E-002  0.88437500000000002        0.0000000000000000     
   8.2812499999999997E-002  0.88593750000000004        0.0000000000000000     
   8.4375000000000006E-002  0.89687499999999998        0.0000000000000000     
   7.3437500000000003E-002  0.89531249999999996        0.0000000000000000     
  0.10937500000000000       0.87500000000000000        0.0000000000000000     
  0.12500000000000000       0.87500000000000000        0.0000000000000000     
  0.12500000000000000       0.89062500000000000        0.0000000000000000     
  0.10312499999999999       0.88437500000000002        0.0000000000000000     
  0.11406250000000000       0.88593750000000004        0.0000000000000000     
  0.11562500000000001       0.89687499999999998        0.0000000000000000     
  0.10468750000000000       0.89531249999999996        0.0000000000000000     
  0.14062500000000000       0.96875000000000000        0.0000000000000000     
  0.15625000000000000       0.96875000000000000        0.0000000000000000     
  0.15625000000000000       0.98437500000000000        0.0000000000000000     
  0.13437499999999999       0.97812500000000002        0.0000000000000000     
  0.14531250000000001       0.97968750000000004        0.0000000000000000     
  0.14687500000000001       0.99062499999999998        0.0000000000000000     
  0.13593749999999999       0.98906249999999996        0.0000000000000000     
  0.17187500000000000       0.96875000000000000        0.0000000000000000     
  0.18750000000000000       0.96875000000000000        0.0000000000000000     
  0.18750000000000000       0.98437500000000000        0.0000000000000000     
  0.16562499999999999       0.97812500000000002        0.0000000000000000     
  0.17656250000000001       0.97968750000000004        0.0000000000000000     
[...]
 CELL_DATA       14336
 SCALARS Tumor_cells float
 LOOKUP_TABLE default
    0.31722888928246213702E-01
    0.31722888682551186879E-01
    0.31722890602639823576E-01
    0.31722890602639358670E-01
    0.31722888682551880768E-01
    0.31722888928244624696E-01
    0.31722887406076948069E-01
    0.31722886505754332997E-01
    0.31722885533656514090E-01
    0.31722885533650782564E-01
    0.31722886505757490194E-01
    0.31722887406076205608E-01
    0.31722887265044831528E-01
    0.31722887265043818450E-01
    0.31722895240406251416E-01
    0.31722896922860940871E-01
    0.31722901490557176007E-01
    0.31722902756197081386E-01
    0.31722899330682216568E-01
    0.31722900971898358724E-01
    0.31722897381895293067E-01
    0.31722894397030451663E-01
    0.31722891246765055895E-01
    0.31722890119729223180E-01
    0.31722892081402456754E-01
    0.31722891839415907900E-01
    0.31722894914867461047E-01
    0.31722895589863214783E-01
    0.31722900971901717149E-01
    0.31722899330684589669E-01
    0.31722902756199759799E-01
    0.31722901490559035631E-01
    0.31722896922862571512E-01
    0.31722895240406508155E-01
    0.31722891839416983428E-01
    0.31722892081402886966E-01
    0.31722890119730978720E-01
    0.31722891246765631823E-01
    0.31722894397032755376E-01
    0.31722897381897791069E-01
    0.31722895589865275634E-01
    0.31722894914868945970E-01
    0.31722909452988036494E-01
    0.31722910189088376898E-01
    0.31722917338128105158E-01
    0.31722917338127619435E-01
    0.31722910189087620558E-01
    0.31722909452986038092E-01
    0.31722903118388670607E-01
    0.31722901313133905488E-01
    0.31722896605227389466E-01
    0.31722896605227389466E-01
    0.31722901313134793666E-01
    0.31722903118390217980E-01
    0.31722905198526919757E-01
    0.31722905198526642201E-01
    0.31722912129597019559E-01
    0.31722916685231965228E-01
    0.31722925609729432650E-01
    0.31722928936715279191E-01
    0.31722923032118613418E-01
    0.31722927029872526050E-01
    0.31722919977564961735E-01
    0.31722913434716226710E-01
    0.31722906670700268261E-01
    0.31722903813252240068E-01
    0.31722907420651973165E-01
    0.31722905685537990117E-01
    0.31722913570562137620E-01
    0.31722915369253139317E-01
    0.31722945969012934786E-01
    0.31722955166218549938E-01
    0.31722970959552190817E-01
    0.31722977384737859052E-01
    0.31722967414524731733E-01
    0.31722974815466195575E-01
    0.31722962328627216100E-01
    0.31722950457966921090E-01
    0.31722938120637519943E-01
    0.31722932516714465179E-01
    0.31722938851812501615E-01
    0.31722934664182945996E-01
    0.31722950217278930718E-01
    0.31722953709526532928E-01
    0.31722931617941825533E-01
    0.31722935179930841776E-01
    0.31722947732956807698E-01
    0.31722949408859744957E-01
    0.31722938248434841280E-01
    0.31722938890506986731E-01
    0.31722927884524479425E-01
    0.31722923025394207663E-01
    0.31722914026210441429E-01
    0.31722912670848493755E-01
    0.31722920205680418815E-01
    0.31722921048820268419E-01
    0.31722927946136944555E-01
    0.31722928807240299842E-01
    0.31722973639136287094E-01
    0.31722981848164119589E-01
    0.31723003485301472237E-01
    0.31723007969039852816E-01
    0.31722990083157591445E-01
    0.31722992945658647079E-01
    0.31722974345870451340E-01
    0.31722964552819310491E-01
    0.31722948658439525937E-01
    0.31722945059334352325E-01
    0.31722957008063053241E-01
    0.31722956332287513548E-01
    0.31722970996222198126E-01
    0.31722973304001575445E-01
    0.31722927029880013117E-01
    0.31722923032125087406E-01
    0.31722928936722065429E-01
    0.31722925609735240504E-01
    0.31722916685236822454E-01
    0.31722912129600516762E-01
    0.31722905685541258336E-01
    0.31722907420655852007E-01
    0.31722903813256125849E-01
    0.31722906670704528742E-01
    0.31722913434721694559E-01
    0.31722919977571491235E-01
    0.31722915369258565532E-01
    0.31722913570567078112E-01
    0.31722938890513169286E-01
    0.31722938248439622178E-01
    0.31722949408864373200E-01
    0.31722947732960228573E-01
    0.31722935179933471617E-01
    0.31722931617942894122E-01
    0.31722921048821302314E-01
    0.31722920205682618444E-01
    0.31722912670851019512E-01
    0.31722914026213702710E-01
    0.31722923025398405694E-01
    0.31722927884530030540E-01
    0.31722928807244074600E-01
    0.31722927946140087874E-01
    0.31722974815479657029E-01
    0.31722967414536930308E-01
    0.31722977384750536411E-01
    0.31722970959563653870E-01
    0.31722955166228576640E-01
    0.31722945969021254520E-01
    0.31722934664190516330E-01
    0.31722938851821182171E-01
    0.31722932516722736340E-01
    0.31722938120646630711E-01
    0.31722950457977565353E-01
    0.31722962328639407736E-01
    0.31722953709537239642E-01
    0.31722950217289019870E-01
    0.31722992945670776266E-01
    0.31722990083168076114E-01
    0.31723007969050386057E-01
    0.31723003485310534433E-01
    0.31722981848171918906E-01
    0.31722973639142136582E-01
    0.31722956332292925885E-01
    0.31722957008069971319E-01
    0.31722945059341318974E-01
    0.31722948658447588932E-01
    0.31722964552828691875E-01
    0.31722974345881643776E-01
    0.31722973304010602946E-01
    0.31722970996230469287E-01
    0.31722969809689756382E-01
    0.31722972577044629416E-01
    0.31722991208338782720E-01
    0.31722991208338040259E-01
    0.31722972577043283271E-01
    0.31722969809686585307E-01
    0.31722952832900899733E-01
    0.31722948898888769786E-01
    0.31722935876340077610E-01
    0.31722935876340625783E-01
    0.31722948898890004910E-01
    0.31722952832903814069E-01
    0.31722959657743278472E-01
    0.31722959657742889894E-01
    0.31723027392335727270E-01
    0.31723035605617372346E-01
    0.31723067004022900695E-01
    0.31723069938134784707E-01
    0.31723040712527364460E-01
    0.31723039169579546337E-01
    0.31723011025696482013E-01
    0.31723001929395817922E-01
    0.31722979672358576908E-01
    0.31722977684416349409E-01
    0.31722997545647432793E-01
    0.31723000546813540090E-01
    0.31723016584329785661E-01
    0.31723017973563437388E-01
    0.31723039169588691799E-01
    0.31723040712534435193E-01
    0.31723069938141439106E-01
    0.31723067004027813431E-01
    0.31723035605621223432E-01
    0.31723027392337364849E-01
    0.31723000546815052769E-01
    0.31722997545650909179E-01
    0.31722977684420297639E-01
    0.31722979672363912917E-01
    0.31723001929402271093E-01
    0.31723011025705044608E-01
    0.31723017973569106465E-01
    0.31723016584334545742E-01
    0.31723123427093005700E-01
    0.31723131218188135860E-01
    0.31723178585518915784E-01
    0.31723178585517916583E-01
    0.31723131218186255420E-01
    0.31723123427088613380E-01
    0.31723080400154146652E-01
    0.31723071139738080737E-01
    0.31723038326145557020E-01
    0.31723038326146389687E-01
    0.31723071139739836277E-01
    0.31723080400158303049E-01
    0.31723098588893945682E-01
    0.31723098588893411387E-01
    0.31723006807589076983E-01
    0.31723023368949700151E-01
    0.31723050771629374145E-01
    0.31723062289798854840E-01
    0.31723045237427784093E-01
    0.31723058319207818323E-01
    0.31723036736701702709E-01
    0.31723015957978578649E-01
    0.31722994451472044664E-01
    0.31722984508113949431E-01
    0.31722995325922896670E-01
    0.31722987519558126790E-01
    0.31723015170414363417E-01
    0.31723021392370646943E-01
    0.31723113491351755122E-01
    0.31723142472444426643E-01
    0.31723190212300488022E-01
    0.31723210108026617116E-01
    0.31723180299482185707E-01
    0.31723202579167116000E-01
    0.31723165394498778480E-01
    0.31723129589875061207E-01
    0.31723092358060651919E-01
    0.31723075130078381978E-01
    0.31723093787349922190E-01
    0.31723080013114857145E-01
    0.31723128256546634374E-01
    0.31723139041764526758E-01
    0.31723049407789541410E-01
    0.31723065516789168694E-01
    0.31723103125030564786E-01
    0.31723112369078709794E-01
    0.31723082260246435182E-01
    0.31723088443903750544E-01
    0.31723056330861913732E-01
    0.31723038546279412608E-01
    0.31723010999324008363E-01
    0.31723003916245523515E-01
    0.31723023487396286024E-01
    0.31723020372352445095E-01
    0.31723048118224454750E-01
    0.31723052772409783551E-01
    0.31723184448228740340E-01
    0.31723214228803676973E-01
    0.31723280359937960915E-01
    0.31723297408279754750E-01
    0.31723244871846474624E-01
    0.31723255928882226895E-01
    0.31723199922515293858E-01
    0.31723168606057235153E-01
    0.31723120600479902398E-01
    0.31723107762969604551E-01
    0.31723141219527697943E-01
    0.31723134394576517348E-01
    0.31723184529240139318E-01
    0.31723193021648707357E-01
    0.31723298906221560067E-01
    0.31723348210540534831E-01
    0.31723430409196520796E-01
    0.31723463123097948857E-01
    0.31723411103761561813E-01
    0.31723447511947930333E-01
    0.31723384582718679170E-01
    0.31723324208026357218E-01
    0.31723260830765147300E-01
    0.31723231461187668956E-01
    0.31723263868261387943E-01
    0.31723240715155101577E-01
    0.31723322884589538750E-01
    0.31723340931088160610E-01
    0.31723615735563474860E-01
    0.31723695980892349655E-01
    0.31723835137822675723E-01
    0.31723885621631080223E-01
    0.31723795393917668395E-01
    0.31723851606233595402E-01
    0.31723748207934963916E-01
    0.31723649632888213656E-01
    0.31723544303839654179E-01
    0.31723495874461181410E-01
    0.31723551705619433549E-01
    0.31723514949121615902E-01
    0.31723650402223906031E-01
    0.31723679302239973787E-01
    0.31723424838886245258E-01
    0.31723477566808946926E-01
    0.31723594910422342474E-01
    0.31723623896500539876E-01
    0.31723529611095147018E-01
    0.31723546237545426074E-01
    0.31723448234284017111E-01
    0.31723395231035532438E-01
    0.31723311605108883704E-01
    0.31723289631374031183E-01
    0.31723348474819473841E-01
    0.31723336410422457721E-01
    0.31723424555297682903E-01
    0.31723439024741430237E-01
    0.31723850364059689999E-01
    0.31723939346785662297E-01
    0.31724146747192441542E-01
    0.31724191083113938150E-01
    0.31724020089665391775E-01
    0.31724039245087806704E-01
    0.31723868856931680682E-01
    0.31723783595287068093E-01
    0.31723639466109877783E-01
    0.31723604145906518503E-01
    0.31723709601179192474E-01
    0.31723692284516158413E-01
    0.31723841565758865990E-01
    0.31723864226023829049E-01
    0.31723130472959305826E-01
    0.31723148309605132822E-01
    0.31723202079841431034E-01
    0.31723210363811434054E-01
    0.31723162422307799035E-01
    0.31723163087259802217E-01
    0.31723115072945021198E-01
    0.31723096958991517380E-01
    0.31723058615787710912E-01
    0.31723053281167860884E-01
    0.31723085128687288081E-01
    0.31723086608394936159E-01
    0.31723118569340534589E-01
    0.31723122360739174075E-01
    0.31723314626227183677E-01
    0.31723350358773751145E-01
    0.31723445217395757068E-01
    0.31723463523153618004E-01
    0.31723380959439440030E-01
    0.31723385004808819787E-01
    0.31723300727761784279E-01
    0.31723266908672123621E-01
    0.31723199521046581417E-01
    0.31723188320653794570E-01
    0.31723241751168293479E-01
    0.31723240217919675132E-01
    0.31723301331803385739E-01
    0.31723309492693120559E-01
    0.31723269638210011001E-01
    0.31723289413307244333E-01
    0.31723367951991543467E-01
    0.31723374442368085235E-01
    0.31723300045273919445E-01
    0.31723294015067404761E-01
    0.31723222527748465294E-01
    0.31723202030585324895E-01
    0.31723146594080396665E-01
    0.31723142859924433057E-01
    0.31723193496170656869E-01
    0.31723202003770996360E-01
    0.31723240830923093991E-01
    0.31723243634781093936E-01
    0.31723526085256303908E-01
    0.31723570140147497320E-01
    0.31723705672176430448E-01
    0.31723726637522264848E-01
    0.31723603637909776609E-01
    0.31723602472280218456E-01
    0.31723478456427665895E-01
    0.31723436388416674514E-01
    0.31723339848102667660E-01
    0.31723328780623810674E-01
    0.31723410422170347789E-01
    0.31723415857261683115E-01
    0.31723494099918758682E-01
    0.31723502802604074124E-01
    0.31723648888902757081E-01
    0.31723717269968622345E-01
    0.31723888675267257475E-01
    0.31723923977083880177E-01
    0.31723775567798220831E-01
    0.31723782810334437421E-01
    0.31723631772709821874E-01
    0.31723571326385230362E-01
    0.31723451246206221810E-01
    0.31723430268950650324E-01
    0.31723523855252781789E-01
    0.31723517644539199478E-01
    0.31723631183702721836E-01
    0.31723646666125475402E-01
    0.31724261231476362510E-01
    0.31724386100062826332E-01
    0.31724699829781280447E-01
    0.31724760392488060567E-01
    0.31724485624845484566E-01
    0.31724489513758814818E-01
    0.31724216487343415150E-01
    0.31724114240056056069E-01
    0.31723899280185208216E-01
    0.31723863710762210955E-01
    0.31724033532546630498E-01
    0.31724022627506134886E-01
    0.31724227401645523072E-01
    0.31724253793483155051E-01
    0.31723991981821908492E-01
    0.31724085173308380625E-01
    0.31724330302531696113E-01
    0.31724380000561200332E-01
    0.31724163719532523509E-01
    0.31724170611087489091E-01
    0.31723946823288509678E-01
    0.31723865009263559067E-01
    0.31723691165603182252E-01
    0.31723666076547592241E-01
    0.31723805143165653697E-01
    0.31723802481823631938E-01
    0.31723958189343738623E-01
    0.31723978458235047029E-01
    0.31724865277222721871E-01
    0.31725052096373988764E-01
    0.31725510162950144866E-01
    0.31725610881654951745E-01
    0.31725209768207709993E-01
    0.31725222886751926199E-01
    0.31724808433929975460E-01
    0.31724657286427059011E-01
    0.31724337522276567503E-01
    0.31724288312277526547E-01
    0.31724538693411026558E-01
    0.31724522186252698819E-01
    0.31724823810080876596E-01
    0.31724864281632694785E-01
    0.31723058319228968072E-01
    0.31723045237447428102E-01
    0.31723062289819158044E-01
    0.31723050771648220181E-01
    0.31723023368966644930E-01
    0.31723006807603933155E-01
    0.31722987519571844983E-01
    0.31722995325938002642E-01
    0.31722984508128451719E-01
    0.31722994451487664114E-01
    0.31723015957996154868E-01
    0.31723036736721277329E-01
    0.31723021392388341122E-01
    0.31723015170431294318E-01
    0.31723088443923602719E-01
    0.31723082260264379162E-01
    0.31723112369096917451E-01
    0.31723103125047065476E-01
    0.31723065516803920783E-01
    0.31723049407801906519E-01
    0.31723020372363998354E-01
    0.31723023487409664212E-01
    0.31723003916258714352E-01
    0.31723010999338600857E-01
    0.31723038546295760642E-01
    0.31723056330880489151E-01
    0.31723052772425840151E-01
    0.31723048118239602355E-01
    0.31723202579197778972E-01
    0.31723180299511030689E-01
    0.31723210108056308643E-01
    0.31723190212328444826E-01
    0.31723142472470024222E-01
    0.31723113491374840822E-01
    0.31723080013136437105E-01
    0.31723093787373209118E-01
    0.31723075130100850116E-01
    0.31723092358084507836E-01
    0.31723129589901352676E-01
    0.31723165394527512440E-01
    0.31723139041790984760E-01
    0.31723128256572176442E-01
    0.31723255928911654744E-01
    0.31723244871873744477E-01
    0.31723297408307531142E-01
    0.31723280359963787478E-01
    0.31723214228827241457E-01
    0.31723184448249501510E-01
    0.31723134394596036456E-01
    0.31723141219549319536E-01
    0.31723107762990795933E-01
    0.31723120600502738298E-01
    0.31723168606082319254E-01
    0.31723199922543021678E-01
    0.31723193021673611047E-01
    0.31723184529263995235E-01
    0.31723163087276774752E-01
    0.31723162422322433163E-01
    0.31723210363825894709E-01
    0.31723202079853907165E-01
    0.31723148309616019946E-01
    0.31723130472967528415E-01
    0.31723086608402638331E-01
    0.31723085128697252333E-01
    0.31723053281178067997E-01
    0.31723058615799576421E-01
    0.31723096959004978834E-01
    0.31723115072961029226E-01
    0.31723122360751934701E-01
    0.31723118569352240503E-01
    0.31723294015079749053E-01
    0.31723300045283439608E-01
    0.31723374442376973958E-01
    0.31723367951998149294E-01
    0.31723289413312448504E-01
    0.31723269638212217569E-01
    0.31723202003773043334E-01
    0.31723193496175416950E-01
    0.31723142859929914783E-01
    0.31723146594087821282E-01
    0.31723202030594171985E-01
    0.31723222527760178147E-01
    0.31723243634788796108E-01
    0.31723240830929561040E-01
    0.31723385004835569223E-01
    0.31723380959463601259E-01
    0.31723463523177931889E-01
    0.31723445217417801933E-01
    0.31723350358793658832E-01
    0.31723314626243961922E-01
    0.31723240217935481933E-01
    0.31723241751186632975E-01
    0.31723188320672127127E-01
    0.31723199521066842987E-01
    0.31723266908694508492E-01
    0.31723300727787166753E-01
    0.31723309492714929503E-01
    0.31723301331823980376E-01
    0.31723602472302644961E-01
    0.31723603637929101429E-01
    0.31723726637541284357E-01
    0.31723705672192854810E-01
    0.31723570140161881648E-01
    0.31723526085267211849E-01
    0.31723415857271924923E-01
    0.31723410422183642710E-01
    0.31723328780637549684E-01
    0.31723339848118661810E-01
    0.31723436388434653188E-01
    0.31723478456449023810E-01
    0.31723502802621011964E-01
    0.31723494099934287926E-01
    0.31723447511989966152E-01
    0.31723411103801495148E-01
    0.31723463123138985476E-01
    0.31723430409235565952E-01
    0.31723348210576686468E-01
    0.31723298906254748797E-01
    0.31723240715186361294E-01
    0.31723263868294646062E-01
    0.31723231461219913996E-01
    0.31723260830799064613E-01
    0.31723324208063195806E-01
    0.31723384582758439032E-01
    0.31723340931125242059E-01
    0.31723322884625537732E-01
    0.31723546237586379426E-01
    0.31723529611133720330E-01
    0.31723623896539994427E-01
    0.31723594910459569640E-01
    0.31723477566843301390E-01
    0.31723424838917317625E-01
    0.31723336410451809242E-01
    0.31723348474851219281E-01
    0.31723289631405089672E-01
    0.31723311605141857328E-01
    0.31723395231071288558E-01
    0.31723448234322847161E-01
    0.31723439024777137785E-01
    0.31723424555332190022E-01
    0.31723851606289189820E-01
    0.31723795393970868894E-01
    0.31723885621685724012E-01
    0.31723835137874988044E-01
    0.31723695980941150896E-01
    0.31723615735608806654E-01
    0.31723514949164505206E-01
    0.31723551705664661260E-01
    0.31723495874505118486E-01
    0.31723544303885610474E-01
    0.31723649632937681031E-01
    0.31723748207987907677E-01
    0.31723679302289767290E-01
    0.31723650402272422777E-01
    0.31724039245142630905E-01
    0.31724020089717662463E-01
    0.31724191083167624372E-01
    0.31724146747243629763E-01
    0.31723939346833165964E-01
    0.31723850364103370336E-01
    0.31723692284557493404E-01
    0.31723709601223185062E-01
    0.31723604145949442501E-01
    0.31723639466155022226E-01
    0.31723783595335647290E-01
    0.31723868856983819531E-01
    0.31723864226072567840E-01
    0.31723841565806230880E-01
    0.31723782810373205021E-01
    0.31723775567834192057E-01
    0.31723923977120434270E-01
    0.31723888675301271933E-01
    0.31723717269999777979E-01
    0.31723648888930297551E-01
    0.31723517644565150941E-01
    0.31723523855281564321E-01
    0.31723430268979072033E-01
    0.31723451246236863965E-01
    0.31723571326418641136E-01
    0.31723631772746722912E-01
    0.31723646666158476781E-01
    0.31723631183734342376E-01
    0.31724170611122620711E-01
    0.31724163719564262010E-01
    0.31724380000593153939E-01
    0.31724330302560686812E-01
    0.31724085173334533316E-01
    0.31723991981843960297E-01
    0.31723802481844358414E-01
    0.31723805143189766353E-01
    0.31723666076571781225E-01
    0.31723691165629966382E-01
    0.31723865009293056305E-01
    0.31723946823321948207E-01