# vtk DataFile Version 3.0
LAPLACIEN  2D
ASCII
DATASET UNSTRUCTURED_GRID
 POINTS        7297  float
   1.5625000000000000E-002  0.96875000000000000        0.0000000000000000     
   3.1250000000000000E-002  0.96875000000000000        0.0000000000000000     
   3.1250000000000000E-002  0.98437500000000000        0.0000000000000000     
   9.3749999999999997E-003  0.97812500000000002        0.0000000000000000     
   2.0312500000000001E-002  0.97968750000000004        0.0000000000000000     
   2.1874999999999999E-002  0.99062499999999998        0.0000000000000000     
   1.0937499999999999E-002  0.98906249999999996        0.0000000000000000     
   4.6875000000000000E-002  0.96875000000000000        0.0000000000000000     
   6.2500000000000000E-002  0.96875000000000000        0.0000000000000000     
   6.2500000000000000E-002  0.98437500000000000        0.0000000000000000     
   4.0625000000000001E-002  0.97812500000000002        0.0000000000000000     
   5.1562499999999997E-002  0.97968750000000004        0.0000000000000000     
   5.3124999999999999E-002  0.99062499999999998        0.0000000000000000     
   4.2187500000000003E-002  0.98906249999999996        0.0000000000000000     
   1.5625000000000000E-002  0.93750000000000000        0.0000000000000000     
   3.1250000000000000E-002  0.93750000000000000        0.0000000000000000     
   3.1250000000000000E-002  0.95312500000000000        0.0000000000000000     
   9.3749999999999997E-003  0.94687500000000002        0.0000000000000000     
   2.0312500000000001E-002  0.94843750000000004        0.0000000000000000     
   2.1874999999999999E-002  0.95937499999999998        0.0000000000000000     
   1.0937499999999999E-002  0.95781249999999996        0.0000000000000000     
   4.6875000000000000E-002  0.93750000000000000        0.0000000000000000     
   6.2500000000000000E-002  0.93750000000000000        0.0000000000000000     
   6.2500000000000000E-002  0.95312500000000000        0.0000000000000000     
   4.0625000000000001E-002  0.94687500000000002        0.0000000000000000     
   5.1562499999999997E-002  0.94843750000000004        0.0000000000000000     
   5.3124999999999999E-002  0.95937499999999998        0.0000000000000000     
   4.2187500000000003E-002  0.95781249999999996        0.0000000000000000     
   7.8125000000000000E-002  0.96875000000000000        0.0000000000000000     
   9.3750000000000000E-002  0.96875000000000000        0.0000000000000000     
   9.3750000000000000E-002  0.98437500000000000        0.0000000000000000     
   7.1874999999999994E-002  0.97812500000000002        0.0000000000000000     
   8.2812499999999997E-002  0.97968750000000004        0.0000000000000000     
   8.4375000000000006E-002  0.99062499999999998        0.0000000000000000     
   7.3437500000000003E-002  0.98906249999999996        0.0000000000000000     
  0.10937500000000000       0.96875000000000000        0.0000000000000000     
  0.12500000000000000       0.96875000000000000        0.0000000000000000     
  0.12500000000000000       0.98437500000000000        0.0000000000000000     
  0.10312499999999999       0.97812500000000002        0.0000000000000000     
  0.11406250000000000       0.97968750000000004        0.0000000000000000     
  0.11562500000000001       0.99062499999999998        0.0000000000000000     
  0.10468750000000000       0.98906249999999996        0.0000000000000000     
   7.8125000000000000E-002  0.93750000000000000        0.0000000000000000     
   9.3750000000000000E-002  0.93750000000000000        0.0000000000000000     
   9.3750000000000000E-002  0.95312500000000000        0.0000000000000000     
   7.1874999999999994E-002  0.94687500000000002        0.0000000000000000     
   8.2812499999999997E-002  0.94843750000000004        0.0000000000000000     
   8.4375000000000006E-002  0.95937499999999998        0.0000000000000000     
   7.3437500000000003E-002  0.95781249999999996        0.0000000000000000     
  0.10937500000000000       0.93750000000000000        0.0000000000000000     
  0.12500000000000000       0.93750000000000000        0.0000000000000000     
  0.12500000000000000       0.95312500000000000        0.0000000000000000     
  0.10312499999999999       0.94687500000000002        0.0000000000000000     
  0.11406250000000000       0.94843750000000004        0.0000000000000000     
  0.11562500000000001       0.95937499999999998        0.0000000000000000     
  0.10468750000000000       0.95781249999999996        0.0000000000000000     
   1.5625000000000000E-002  0.90625000000000000        0.0000000000000000     
   3.1250000000000000E-002  0.90625000000000000        0.0000000000000000     
   3.1250000000000000E-002  0.92187500000000000        0.0000000000000000     
   9.3749999999999997E-003  0.91562500000000002        0.0000000000000000     
   2.0312500000000001E-002  0.91718750000000004        0.0000000000000000     
   2.1874999999999999E-002  0.92812499999999998        0.0000000000000000     
   1.0937499999999999E-002  0.92656249999999996        0.0000000000000000     
   4.6875000000000000E-002  0.90625000000000000        0.0000000000000000     
   6.2500000000000000E-002  0.90625000000000000        0.0000000000000000     
   6.2500000000000000E-002  0.92187500000000000        0.0000000000000000     
   4.0625000000000001E-002  0.91562500000000002        0.0000000000000000     
   5.1562499999999997E-002  0.91718750000000004        0.0000000000000000     
   5.3124999999999999E-002  0.92812499999999998        0.0000000000000000     
   4.2187500000000003E-002  0.92656249999999996        0.0000000000000000     
   1.5625000000000000E-002  0.87500000000000000        0.0000000000000000     
   3.1250000000000000E-002  0.87500000000000000        0.0000000000000000     
   3.1250000000000000E-002  0.89062500000000000        0.0000000000000000     
   9.3749999999999997E-003  0.88437500000000002        0.0000000000000000     
   2.0312500000000001E-002  0.88593750000000004        0.0000000000000000     
   2.1874999999999999E-002  0.89687499999999998        0.0000000000000000     
   1.0937499999999999E-002  0.89531249999999996        0.0000000000000000     
   4.6875000000000000E-002  0.87500000000000000        0.0000000000000000     
   6.2500000000000000E-002  0.87500000000000000        0.0000000000000000     
   6.2500000000000000E-002  0.89062500000000000        0.0000000000000000     
   4.0625000000000001E-002  0.88437500000000002        0.0000000000000000     
   5.1562499999999997E-002  0.88593750000000004        0.0000000000000000     
   5.3124999999999999E-002  0.89687499999999998        0.0000000000000000     
   4.2187500000000003E-002  0.89531249999999996        0.0000000000000000     
   7.8125000000000000E-002  0.90625000000000000        0.0000000000000000     
   9.3750000000000000E-002  0.90625000000000000        0.0000000000000000     
   9.3750000000000000E-002  0.92187500000000000        0.0000000000000000     
   7.1874999999999994E-002  0.91562500000000002        0.0000000000000000     
   8.2812499999999997E-002  0.91718750000000004        0.0000000000000000     
   8.4375000000000006E-002  0.92812499999999998        0.0000000000000000     
   7.3437500000000003E-002  0.92656249999999996        0.0000000000000000     
  0.10937500000000000       0.90625000000000000        0.0000000000000000     
  0.12500000000000000       0.90625000000000000        0.0000000000000000     
  0.12500000000000000       0.92187500000000000        0.0000000000000000     
  0.10312499999999999       0.91562500000000002        0.0000000000000000     
  0.11406250000000000       0.91718750000000004        0.0000000000000000     
  0.11562500000000001       0.92812499999999998        0.0000000000000000     
  0.10468750000000000       0.92656249999999996        0.0000000000000000     
   7.8125000000000000E-002  0.87500000000000000        0.0000000000000000     
   9.3750000000000000E-002  0.87500000000000000        0.0000000000000000     
   9.3750000000000000E-002  0.89062500000000000        0.0000000000000000     
   7.1874999999999994E-002  0.88437500000000002        0.0000000000000000     
   8.2812499999999997E-002  0.88593750000000004        0.0000000000000000     
   8.4375000000000006E-002  0.89687499999999998        0.0000000000000000     
   7.3437500000000003E-002  0.89531249999999996        0.0000000000000000     
  0.10937500000000000       0.87500000000000000        0.0000000000000000     
  0.12500000000000000       0.87500000000000000        0.0000000000000000     
  0.12500000000000000       0.89062500000000000        0.0000000000000000     
  0.10312499999999999       0.88437500000000002        0.0000000000000000     
  0.11406250000000000       0.88593750000000004        0.0000000000000000     
  0.11562500000000001       0.89687499999999998        0.0000000000000000     
  0.10468750000000000       0.89531249999999996        0.0000000000000000     
  0.14062500000000000       0.96875000000000000        0.0000000000000000     
  0.15625000000000000       0.96875000000000000        0.0000000000000000     
  0.15625000000000000       0.98437500000000000        0.0000000000000000     
  0.13437499999999999       0.97812500000000002        0.0000000000000000     
  0.14531250000000001       0.97968750000000004        0.0000000000000000     
  0.14687500000000001       0.99062499999999998        0.0000000000000000     
  0.13593749999999999       0.98906249999999996        0.0000000000000000     
  0.17187500000000000       0.96875000000000000        0.0000000000000000     
  0.18750000000000000       0.96875000000000000        0.0000000000000000     
  0.18750000000000000       0.98437500000000000        0.0000000000000000     
  0.16562499999999999       0.97812500000000002        0.0000000000000000     
  0.17656250000000001       0.97968750000000004        0.0000000000000000     
  0.17812500000000001       0.99062499999999998        0.0000000000000000     
[...]
 CELL_DATA       14336
 SCALARS Tumor_cells float
 LOOKUP_TABLE default
    0.70135634022097817193E-15
    0.41723818647670294829E-14
    0.81304129330948170753E-14
    0.93496945983742340339E-14
    0.40497402415789786306E-14
    0.66433873446289692778E-14
    0.54730207726510007921E-14
    0.82724681004408368178E-15
   -0.80323610254894312365E-15
   -0.28090761687427787493E-14
   -0.11347652650819521584E-14
    0.45198746928647552441E-14
   -0.25893081382162961571E-14
    0.17556236789539365646E-15
    0.20261013827449267914E-14
    0.79006973430922263390E-14
    0.71628167518908448587E-14
    0.71850137419568378021E-14
    0.70906152707541629535E-14
   -0.43590336805389098163E-14
   -0.11023147388567962788E-14
   -0.74320395366805790686E-14
    0.31204342745649405705E-14
    0.68605606655653855608E-14
    0.10050714452109673561E-14
    0.66508264214784593376E-14
    0.71392322472077284522E-14
   -0.43927932998335956408E-14
   -0.11874395229756249777E-13
    0.35594898930930216513E-14
    0.12991430660648040995E-13
   -0.36679903599706594076E-16
   -0.27214917064338435028E-14
    0.59138053319891977715E-14
    0.10991079796214804329E-13
    0.95697554936325643921E-14
    0.17936187838436351929E-14
   -0.54724859032745391890E-16
   -0.31255480532315252432E-15
    0.36874229198188260030E-14
   -0.86961805800057175936E-14
    0.52727852840474042062E-14
    0.10735620225072833020E-13
    0.85463107186505624024E-14
    0.17293081275774206166E-14
    0.78632625212689098250E-14
    0.32262532270156257228E-14
   -0.44006151044453962697E-14
    0.40553706784749442608E-14
   -0.16591501101468418532E-14
    0.55049679532114901841E-14
    0.47427684371998678486E-14
   -0.21991347563640507808E-14
    0.64290544117643550671E-14
    0.11045591009832522759E-13
    0.50561336229217133249E-14
    0.52590755491112234199E-15
   -0.19328802778938477929E-14
    0.28279753389445138755E-14
    0.11098579291475046745E-14
    0.59906197514011419547E-14
    0.30771380778976027528E-15
    0.49076782253775153310E-14
    0.51976234554223395702E-15
    0.74064297043141280266E-14
    0.55676574896127062642E-14
    0.35067341918937305391E-14
    0.13894886358511243873E-14
    0.74721085490368423586E-15
    0.10360450264628520380E-13
   -0.68649197683510775524E-14
    0.46244959152992299811E-14
   -0.98425234466757257596E-15
    0.95045153254298760682E-15
   -0.20506979034324465628E-14
    0.39073275771684523840E-14
   -0.24425275014880527096E-15
    0.23300537464783811312E-14
   -0.10368283861332929815E-14
    0.88672862569419973175E-15
    0.44453476782440521938E-15
    0.29828327336257513470E-14
    0.59057524994586021114E-14
    0.48938137570822952438E-14
    0.10100651338393956419E-14
   -0.97746599315062113440E-15
    0.22268346471629819457E-14
    0.10735864834970928104E-13
    0.67962503135346361281E-15
   -0.36892496777472213196E-14
    0.59205649880117881033E-14
    0.20339828951496676617E-14
    0.44186572504222744819E-14
    0.94026167189721114112E-14
    0.61285221337962125063E-14
    0.51875173498590266277E-14
    0.57438648064562925880E-14
    0.83326739016919479410E-14
   -0.76376182757908188203E-14
    0.86677077443537408882E-14
    0.74410578900233170017E-14
    0.29416764855875522295E-14
   -0.76919258159435100845E-15
    0.71511954708546668441E-14
   -0.11028297371406922611E-14
   -0.76732508118568796163E-14
   -0.24075819189606883944E-14
    0.27200041141184783796E-14
    0.39321069972585881105E-14
    0.90221360821230319946E-15
   -0.37569536164761021094E-14
    0.99802928521665956184E-15
   -0.34538265107619873667E-14
    0.12010008757232653769E-14
    0.69703705182459666003E-14
   -0.24483053624104041228E-14
    0.11854336517127254443E-14
    0.44143411882007341397E-14
   -0.28109838106554809719E-14
    0.86967928759626962011E-15
    0.19928443495673376614E-14
    0.47081332549776425500E-14
    0.45132344016302719485E-14
    0.84434556409262725253E-15
    0.91413451087198320081E-14
   -0.71810758100239098737E-14
   -0.12810277751901374066E-14
   -0.67239796131329367550E-14
   -0.36683349206841397121E-14
    0.26998550466064700309E-14
    0.44318201203781320708E-14
    0.33636681610515681756E-14
    0.45972197711399326306E-14
   -0.12557879592197150111E-14
    0.15737506307071893749E-13
   -0.70222067187633423700E-15
   -0.32787976224915725840E-14
    0.15031641048837650974E-14
    0.62048429937102876748E-14
    0.42296988637920517963E-15
    0.11297175867105814736E-13
    0.11609148605687431507E-14
    0.21465347841075065566E-14
    0.11498118280090696006E-14
    0.56475484505306575781E-14
   -0.69989454423888085728E-15
    0.43466025640892849325E-14
   -0.17216385145058435047E-14
    0.33328747916604453002E-14
   -0.87062717820456483055E-15
    0.33737534482164547311E-14
   -0.72471501556961957872E-15
   -0.21796893225436751345E-14
    0.70572064240089161805E-14
    0.12557320260558272376E-14
    0.59547522540375159030E-14
    0.98088221182824986621E-14
    0.34438952479046914416E-14
   -0.29117981267606732930E-14
   -0.24524790776499349804E-14
   -0.28446292273504471374E-15
   -0.29922035755005240946E-14
    0.72771532784877439120E-14
    0.16569122773887679717E-14
   -0.36595099954699332955E-14
    0.89492114561939960629E-14
    0.68635585990400242218E-14
   -0.25827284569884851788E-14
    0.12899425957131325646E-14
    0.31395282089950100255E-15
   -0.45294486913788276013E-14
   -0.32015149786711205379E-14
   -0.17612868748642853959E-15
    0.14754823971016019995E-14
    0.10071466184204405615E-14
    0.42104869389571196400E-14
    0.38200706559757835168E-14
   -0.36027665103680262965E-14
    0.41113943140894832822E-14
    0.43625778391519054784E-14
    0.81969146013279629942E-14
    0.11500216241377763344E-13
    0.15898949263242379111E-14
    0.15977812397415667566E-13
    0.41629707680853262509E-14
    0.58321689251428189888E-14
   -0.47016667862815472602E-15
   -0.22279046165555123492E-14
    0.25024704743340102244E-15
   -0.18987623922366380733E-14
    0.78779422824349879595E-14
   -0.35356255825213294494E-14
    0.28084312566467265626E-14
    0.76076469937989831581E-14
   -0.33673452009527659437E-14
   -0.39456851327890545263E-14
    0.54949672222475553750E-15
    0.77844272737921231586E-16
   -0.31923742783390922776E-14
   -0.10689572308707007128E-14
    0.55986723603727015615E-14
    0.32706975825852187884E-14
    0.45468673294256881121E-15
   -0.37287282454426973680E-14
   -0.14950602981477804554E-14
    0.31712673838629213310E-14
    0.10415781884872337720E-14
    0.79227024880622202624E-14
   -0.19287845168240248252E-14
   -0.51887824690253507414E-14
    0.17146096965560696734E-14
   -0.50758945021060035279E-14
   -0.10665241809656397626E-14
    0.11703554607993720617E-14
    0.23635088861782621974E-14
    0.71773010497855472770E-14
    0.31140535674127448195E-14
    0.26101024282662441724E-14
    0.28375470712359879214E-14
    0.34969453521078290463E-14
    0.78065352180194332645E-15
    0.11176170245009667375E-14
   -0.83169795068449119536E-14
   -0.72971426829890251248E-14
   -0.28299109851978404850E-15
    0.54788489315710563995E-14
    0.24512295096502990304E-14
    0.87688636606315679533E-14
    0.15596665397492777104E-14
    0.14801745613960621687E-13
    0.56411023758874137566E-14
    0.48953365231063230477E-14
   -0.29842163117470039435E-16
    0.78747444729489875065E-14
   -0.97448496872383027217E-14
   -0.53032489307961402539E-14
   -0.13868002179817426949E-14
   -0.13207706269586229520E-14
   -0.12839643366843819881E-14
    0.38495113661416705241E-14
   -0.25612269958622795553E-14
    0.55606166236977064469E-14
    0.41130019680300368433E-14
    0.10629323730678970851E-14
   -0.24925109258608075626E-14
    0.22184870645347965165E-14
   -0.24965688427536819588E-14
    0.48710400392917373661E-14
    0.73778049530357607934E-14
    0.10512389360181929207E-14
   -0.32082829017552060588E-15
   -0.18095554437050838331E-14
    0.43668874314171865616E-15
    0.49150416816268078749E-14
    0.60489764358717344735E-14
    0.13472799381274290850E-14
   -0.18715643452829837257E-14
    0.62206527251128009182E-14
    0.92701318301579558757E-15
   -0.73551654938435014991E-14
    0.13041594761231061724E-14
    0.44881112644797588959E-14
    0.27508616189074684689E-15
   -0.11495896668161963071E-14
   -0.45677929775821376510E-14
   -0.29584040237373868795E-14
    0.80057610953017037476E-14
    0.32591965491565945082E-14
   -0.14586133404562900063E-14
    0.25206609606542635310E-14
    0.34008574374410049129E-14
    0.15698359121097907730E-14
    0.49752315664015919507E-14
    0.79332839113411797865E-14
   -0.72460257938655189134E-15
   -0.25981827078657331252E-14
    0.22460887039638154389E-14
   -0.99771598194935345637E-14
   -0.29672095065761484673E-14
   -0.30897914219761598764E-14
   -0.23706627614642698523E-14
    0.73170242306931515191E-14
   -0.43741144215598008501E-14
    0.66677162483042386532E-14
    0.84671114398895817378E-14
   -0.27946459185299469622E-15
    0.65251138292900501732E-15
   -0.47524811328278739232E-14
   -0.45747217717759609691E-14
   -0.27967663960383181922E-14
    0.31638763179016764569E-14
    0.15790230046656981227E-14
    0.72514599645915582987E-14
    0.74124387408494119299E-14
   -0.20042749899329689258E-14
    0.15651076565890919913E-14
    0.10112567685340083344E-15
   -0.30027464936697745932E-14
    0.32718189718349419108E-14
    0.46588323082340650418E-15
   -0.16962722789783916349E-14
   -0.87594606610590059563E-14
    0.34830925304328672084E-14
    0.38465978958703961994E-14
    0.57902376401595491130E-14
    0.26413251335939394070E-14
    0.74525546813955169551E-14
    0.31944420971466837093E-15
   -0.38212430848588822328E-14
   -0.30344360934137829198E-14
    0.27390858626265333467E-14
    0.14102756830072938670E-14
   -0.12895855521759806379E-14
    0.18217738338740692019E-14
    0.87846470806146861402E-15
   -0.23355322771834284354E-14
   -0.47074990751984382002E-14
    0.42389088482865833618E-14
   -0.40703738823430912311E-14
    0.70589926210039993188E-14
    0.12923649322337123692E-14
    0.59831779762621016165E-14
    0.83075342169461691082E-15
    0.58237019167567514243E-14
   -0.51663583957076051677E-14
    0.51897394038946140852E-14
    0.13011130129362043893E-14
    0.72639360975010876120E-14
    0.13701025494943139814E-14
    0.24777544156183329166E-14
   -0.11205536386064654675E-13
   -0.16104600727725097605E-14
    0.38428073290751516098E-14
    0.68177020025053780217E-14
   -0.63323643487320814384E-14
    0.54291598693120636652E-14
   -0.69035286751147719902E-14
    0.15623487168652873966E-13
   -0.22802707803650111983E-14
    0.71230307970875751917E-14
   -0.48126293480126475578E-14
    0.26961205992001092488E-14
    0.41611014743400549812E-14
   -0.57383033265245657724E-15
    0.31548969000741160606E-14
    0.12381437842442791296E-13
    0.25290084903952981254E-14
    0.93702986944201409577E-14
    0.12274185384911851906E-13
   -0.35472502608316958127E-14
   -0.42621478609060805435E-14
    0.42769026761554840600E-15
    0.23333623979693194611E-14
    0.85109793545819930790E-14
    0.44461761509057684177E-14
    0.76730021152149112063E-14
   -0.24715684651031604517E-14
    0.38253826614519507226E-14
    0.84902635144722120114E-14
    0.45071595592086454433E-15
   -0.53679810610468877585E-14
    0.70991660073245944829E-14
    0.37693000854797630336E-14
   -0.56548650950981134106E-14
    0.29911334595319194427E-14
   -0.12904410076180486336E-14
   -0.18286622249387378627E-14
   -0.27115112571573230894E-14
    0.27611370188940062433E-14
   -0.59763332863567443434E-15
    0.11819200868704011073E-13
    0.39226573797305395146E-14
    0.66516208347961169725E-14
    0.75760097572146077376E-14
    0.95911008722299238357E-15
   -0.88346471807563574786E-16
    0.42324741102021511030E-14
    0.31877686061316020194E-14
    0.92201135335364027016E-14
   -0.51476877389644325560E-15
    0.85495398384561910353E-15
   -0.41833281217409698907E-14
   -0.14536634837483193343E-13
    0.36741554788874353028E-14
    0.37873650253158559204E-14
    0.66256848877668719626E-14
    0.84299677555495256378E-14
    0.97442882396202667573E-14
   -0.13740137893174772727E-14
    0.54218748160399937930E-14
    0.10121025543181789917E-15
    0.27663829878505887714E-14
   -0.37601660061080928474E-14
    0.10674921745853575898E-13
    0.76373752966215583435E-14
   -0.64222629657838735430E-14
    0.50219878734496498588E-14
    0.69619699570503230649E-15
    0.53565255436847127916E-14
    0.40710837660166365942E-14
    0.49598185574842433547E-14
    0.60940464828527059574E-14
   -0.53015835579436161333E-14
    0.30285412453079885295E-14
    0.15139483375369200528E-14
    0.21840346478374751524E-14
    0.28488145354358762293E-14
    0.12251737095068588596E-14
    0.40213509703440738914E-14
    0.10906890179578548681E-13
    0.26170592339687691840E-14
    0.10930975609236803879E-14
    0.13653118242565541715E-14
    0.50328718336826801278E-14
    0.27841515886263152869E-14
   -0.34468890174218700977E-14
    0.28600381509352409130E-14
   -0.81531792786187256748E-15
    0.52395649306554307881E-14
    0.91258083219167523200E-14
    0.44583061623521928699E-15
    0.21247299600481269467E-14
   -0.21135030521562977120E-15
   -0.12725703550774223824E-14
   -0.54128753262851535777E-14
   -0.45133954629584149250E-14
    0.53899244190889072870E-14
   -0.15781463206049457633E-14
    0.65520228601722341661E-14
   -0.36835837245444706066E-14
    0.61065825539987275031E-14
   -0.99873181077331075027E-14
    0.10838459356659771161E-13
    0.32117884498344847108E-14
    0.53662247969388897274E-14
    0.20340355968321805497E-14
    0.65239481123216414893E-14
   -0.63646753504121878726E-15
   -0.12136887219669229434E-14
   -0.48859696156691229262E-14
    0.64006993144048251358E-14
    0.13800743764700335810E-16
    0.45436699749324347900E-14
    0.14998915847873115757E-14
    0.23715859272572216376E-14
    0.31992964993665691278E-14
    0.35252882849959192735E-14
   -0.30452635464504389643E-14
    0.83784313342826719217E-14
    0.34018870880009659964E-14
    0.50587883994746641948E-14
    0.52972310703039797585E-14
   -0.17706857451244139767E-14
    0.18682153525324342750E-14
   -0.50606185628867694727E-14
    0.18068636688846107013E-14
    0.98476116695943105162E-14
   -0.10968183249890429667E-14
   -0.76299544653318746182E-15
    0.60105362435101595901E-14
    0.52242443477065272081E-14
    0.38709409428567765166E-14
    0.51268250725729233135E-14
   -0.14511600600396257518E-14
    0.11183654239837579287E-13
    0.74322278277884324680E-14
    0.81398436005860371673E-14
    0.11565355039556535485E-14
   -0.21090687199186116492E-14
    0.11554089699641133782E-13
   -0.25199150508915546572E-14
    0.41934424466627887370E-14
   -0.28564171894311465750E-14
   -0.14700904601344883670E-15
    0.24626477073645804985E-14
    0.14823948566087610491E-14
    0.10727908772291369800E-14
   -0.39428864972141435302E-14
    0.30198179336659460899E-14
    0.19022398525419223854E-14
    0.11585104561084307079E-13
    0.62058340664442837839E-15
    0.58416213914991088602E-15
    0.94253912635367005648E-14
    0.55795297437085221006E-14
    0.20914870441778327275E-14
   -0.23841121098161496710E-14
   -0.69695822411866656446E-14
    0.61177999266306174464E-14
   -0.32858724011548468549E-14
   -0.81599974510469514751E-14
    0.65024533137638060298E-14
    0.18927732502240420144E-14
    0.49832294184515879473E-14
    0.33271644639899738506E-14
    0.10487202294429586589E-13
   -0.71554210788678098916E-14
    0.10469580267507481921E-13
    0.40430029823214723750E-14
    0.57028124812789663970E-14
   -0.24289220228068578838E-14
    0.97200457869143238425E-15
   -0.83263857612522283041E-15
    0.18123696573497245280E-15
   -0.75234013665637586642E-15
    0.37490684629334852589E-14
    0.54624758857676471718E-14
   -0.92103179767036434492E-15
   -0.18563623677458007970E-14
    0.58823470060840080566E-14
    0.23267350913279665885E-14
    0.31529964712265906532E-15
    0.59942960888916010384E-14
    0.14221045595964294519E-15
    0.28933217333158264686E-14
    0.50522905136534951034E-15
   -0.77266240158257308641E-14
    0.75267148778726317553E-14
   -0.43267697136566392489E-14
    0.64314074040823415675E-14
    0.31606208614169814556E-15
   -0.29242539756534809476E-15
   -0.43320935848827515042E-14
    0.95499264914133626352E-14
   -0.60680465471388258470E-15
    0.72380217931164376983E-15
   -0.17953621023635220004E-14
    0.77741136078942120992E-14
    0.50651408313181944138E-14
   -0.35035094130364140904E-14
   -0.16302905451382780591E-14
    0.52393478122764086449E-14
   -0.57241300443339702406E-15
   -0.27874498029313905581E-14
    0.39278338281676321821E-14
    0.51396603271482965414E-14
    0.27029590310175353351E-14
    0.33843382428258003494E-14
    0.53529389544586615162E-14
    0.98404574467091529689E-15
    0.22096210371801334793E-14
    0.62347547812560918977E-14
   -0.50617519107144661083E-15
   -0.18245996692269200279E-14
   -0.59927245495319601969E-14
    0.21208936493693401887E-14
    0.41306965787180068325E-14
   -0.53900453302791070191E-14
    0.67091164344246895569E-14
   -0.57790289597530350077E-14
    0.71726199420262328148E-14
    0.14120328028193415429E-13
    0.15959909603042730689E-13
   -0.35776394379517017483E-14
    0.62126202562087781895E-14
    0.24069322280424631978E-14
   -0.56274481465019330860E-15
   -0.14952088681116974385E-14
   -0.15935447378804078491E-14
    0.44767605358842228468E-14
    0.19115193451127176400E-14
   -0.34193381359777737680E-16
    0.71184319049957303272E-14
    0.55932458880287187089E-15
    0.52852548099292324383E-14
    0.95453659024281902703E-15
   -0.41833380569024100640E-15
    0.91949853804517427672E-14
    0.42808973433442269987E-14
   -0.18647746259175427387E-14
    0.29481538696601954883E-14
   -0.52467300609895265607E-14
    0.53166501390715415753E-14
    0.93303448593761238128E-14
    0.50199201521719207391E-14
    0.18035663702705629231E-15
    0.70841586129896630977E-15
    0.34079890579532575435E-14
   -0.62758453035011245074E-14
    0.27624720590002297599E-14
    0.75589248290122854912E-14
    0.15690762462696642651E-14
    0.79052553271392072137E-14
   -0.16817294751937972012E-14
    0.23335863590869321420E-14
    0.17298028322095713006E-14
    0.45986986075286926612E-14
   -0.34427463765411419795E-14
   -0.35460364044759306971E-14
    0.90883608850179507939E-15
   -0.19140151775608743936E-14
   -0.70569872861050907997E-14
   -0.12088331190189104480E-14
   -0.11935892701984674130E-14
    0.30451331193890142841E-14
   -0.30618193887393799943E-14
    0.91174797064090081789E-14
    0.31903823535909141248E-14
   -0.42247101339043486704E-14
    0.74936693871192285325E-14
   -0.42571993380040998230E-14
   -0.36180322431424468750E-14
    0.42778169998228204692E-16
    0.43224970583297085833E-14
    0.36092326854721111514E-14
   -0.71657208985293501285E-14
    0.60730179583526302485E-14
   -0.44007101792174101836E-14
    0.97067885326812147312E-14
   -0.93003637600091662051E-14
    0.46525171695061689640E-14
   -0.23099196109173386813E-14
    0.90779636194491256473E-14
    0.77506841428138802576E-15
   -0.17072843023902266725E-14
   -0.10834734935577936405E-14
   -0.11010709682806208445E-14
    0.86743748778772213442E-15
   -0.17958734384481294609E-14
    0.86769961759845515444E-14
   -0.97411474022627700081E-14
    0.73416368882306233334E-15
   -0.28839261135626909096E-14
    0.36446912945454231728E-15
    0.83383057051259309777E-14
    0.71902702973038066747E-14
    0.43477305849199914990E-15
   -0.66643192985935883240E-15
    0.90903173728512906526E-14
    0.24793243642169386298E-14
    0.42079489002196909314E-14
   -0.61220187419344467447E-15
    0.37499166401048851865E-14
    0.21194497349119589858E-14
    0.89198850959690595840E-14
   -0.28963106264011710003E-14
   -0.45354057176184849891E-14
    0.84427886991041390966E-14
   -0.25812099887239555514E-14
    0.15721655276104603292E-14
   -0.20649787107591931442E-14
    0.75934961115933057005E-14