# vtk DataFile Version 3.0
LAPLACIEN  2D
ASCII
DATASET UNSTRUCTURED_GRID
 POINTS        7297  float
   1.5625000000000000E-002  0.96875000000000000        0.0000000000000000     
   3.1250000000000000E-002  0.96875000000000000        0.0000000000000000     
   3.1250000000000000E-002  0.98437500000000000        0.0000000000000000     
   9.3749999999999997E-003  0.97812500000000002        0.0000000000000000     
   2.0312500000000001E-002  0.97968750000000004        0.0000000000000000     
   2.1874999999999999E-002  0.99062499999999998        0.0000000000000000     
   1.0937499999999999E-002  0.98906249999999996        0.0000000000000000     
   4.6875000000000000E-002  0.96875000000000000        0.0000000000000000     
   6.2500000000000000E-002  0.96875000000000000        0.0000000000000000     
   6.2500000000000000E-002  0.98437500000000000        0.0000000000000000     
   4.0625000000000001E-002  0.97812500000000002        0.0000000000000000     
   5.1562499999999997E-002  0.97968750000000004        0.0000000000000000     
   5.3124999999999999E-002  0.99062499999999998        0.0000000000000000     
   4.2187500000000003E-002  0.98906249999999996        0.0000000000000000     
   1.5625000000000000E-002  0.93750000000000000        0.0000000000000000     
   3.1250000000000000E-002  0.93750000000000000        0.0000000000000000     
   3.1250000000000000E-002  0.95312500000000000        0.0000000000000000     
   9.3749999999999997E-003  0.94687500000000002        0.0000000000000000     
   2.0312500000000001E-002  0.94843750000000004        0.0000000000000000     
   2.1874999999999999E-002  0.95937499999999998        0.0000000000000000     
   1.0937499999999999E-002  0.95781249999999996        0.0000000000000000     
   4.6875000000000000E-002  0.93750000000000000        0.0000000000000000     
   6.2500000000000000E-002  0.93750000000000000        0.0000000000000000     
   6.2500000000000000E-002  0.95312500000000000        0.0000000000000000     
   4.0625000000000001E-002  0.94687500000000002        0.0000000000000000     
   5.1562499999999997E-002  0.94843750000000004        0.0000000000000000     
   5.3124999999999999E-002  0.95937499999999998        0.0000000000000000     
   4.2187500000000003E-002  0.95781249999999996        0.0000000000000000     
   7.8125000000000000E-002  0.96875000000000000        0.0000000000000000     
   9.3750000000000000E-002  0.96875000000000000        0.0000000000000000     
   9.3750000000000000E-002  0.98437500000000000        0.0000000000000000     
   7.1874999999999994E-002  0.97812500000000002        0.0000000000000000     
   8.2812499999999997E-002  0.97968750000000004        0.0000000000000000     
   8.4375000000000006E-002  0.99062499999999998        0.0000000000000000     
   7.3437500000000003E-002  0.98906249999999996        0.0000000000000000     
  0.10937500000000000       0.96875000000000000        0.0000000000000000     
  0.12500000000000000       0.96875000000000000        0.0000000000000000     
  0.12500000000000000       0.98437500000000000        0.0000000000000000     
  0.10312499999999999       0.97812500000000002        0.0000000000000000     
  0.11406250000000000       0.97968750000000004        0.0000000000000000     
  0.11562500000000001       0.99062499999999998        0.0000000000000000     
  0.10468750000000000       0.98906249999999996        0.0000000000000000     
   7.8125000000000000E-002  0.93750000000000000        0.0000000000000000     
   9.3750000000000000E-002  0.93750000000000000        0.0000000000000000     
   9.3750000000000000E-002  0.95312500000000000        0.0000000000000000     
   7.1874999999999994E-002  0.94687500000000002        0.0000000000000000     
   8.2812499999999997E-002  0.94843750000000004        0.0000000000000000     
   8.4375000000000006E-002  0.95937499999999998        0.0000000000000000     
   7.3437500000000003E-002  0.95781249999999996        0.0000000000000000     
  0.10937500000000000       0.93750000000000000        0.0000000000000000     
  0.12500000000000000       0.93750000000000000        0.0000000000000000     
  0.12500000000000000       0.95312500000000000        0.0000000000000000     
  0.10312499999999999       0.94687500000000002        0.0000000000000000     
  0.11406250000000000       0.94843750000000004        0.0000000000000000     
  0.11562500000000001       0.95937499999999998        0.0000000000000000     
  0.10468750000000000       0.95781249999999996        0.0000000000000000     
   1.5625000000000000E-002  0.90625000000000000        0.0000000000000000     
   3.1250000000000000E-002  0.90625000000000000        0.0000000000000000     
   3.1250000000000000E-002  0.92187500000000000        0.0000000000000000     
   9.3749999999999997E-003  0.91562500000000002        0.0000000000000000     
   2.0312500000000001E-002  0.91718750000000004        0.0000000000000000     
   2.1874999999999999E-002  0.92812499999999998        0.0000000000000000     
   1.0937499999999999E-002  0.92656249999999996        0.0000000000000000     
   4.6875000000000000E-002  0.90625000000000000        0.0000000000000000     
   6.2500000000000000E-002  0.90625000000000000        0.0000000000000000     
   6.2500000000000000E-002  0.92187500000000000        0.0000000000000000     
   4.0625000000000001E-002  0.91562500000000002        0.0000000000000000     
   5.1562499999999997E-002  0.91718750000000004        0.0000000000000000     
   5.3124999999999999E-002  0.92812499999999998        0.0000000000000000     
   4.2187500000000003E-002  0.92656249999999996        0.0000000000000000     
   1.5625000000000000E-002  0.87500000000000000        0.0000000000000000     
   3.1250000000000000E-002  0.87500000000000000        0.0000000000000000     
   3.1250000000000000E-002  0.89062500000000000        0.0000000000000000     
   9.3749999999999997E-003  0.88437500000000002        0.0000000000000000     
   2.0312500000000001E-002  0.88593750000000004        0.0000000000000000     
   2.1874999999999999E-002  0.89687499999999998        0.0000000000000000     
   1.0937499999999999E-002  0.89531249999999996        0.0000000000000000     
   4.6875000000000000E-002  0.87500000000000000        0.0000000000000000     
   6.2500000000000000E-002  0.87500000000000000        0.0000000000000000     
   6.2500000000000000E-002  0.89062500000000000        0.0000000000000000     
   4.0625000000000001E-002  0.88437500000000002        0.0000000000000000     
   5.1562499999999997E-002  0.88593750000000004        0.0000000000000000     
   5.3124999999999999E-002  0.89687499999999998        0.0000000000000000     
   4.2187500000000003E-002  0.89531249999999996        0.0000000000000000     
   7.8125000000000000E-002  0.90625000000000000        0.0000000000000000     
   9.3750000000000000E-002  0.90625000000000000        0.0000000000000000     
   9.3750000000000000E-002  0.92187500000000000        0.0000000000000000     
   7.1874999999999994E-002  0.91562500000000002        0.0000000000000000     
   8.2812499999999997E-002  0.91718750000000004        0.0000000000000000     
   8.4375000000000006E-002  0.92812499999999998        0.0000000000000000     
   7.3437500000000003E-002  0.92656249999999996        0.0000000000000000     
  0.10937500000000000       0.90625000000000000        0.0000000000000000     
  0.12500000000000000       0.90625000000000000        0.0000000000000000     
  0.12500000000000000       0.92187500000000000        0.0000000000000000     
  0.10312499999999999       0.91562500000000002        0.0000000000000000     
  0.11406250000000000       0.91718750000000004        0.0000000000000000     
  0.11562500000000001       0.92812499999999998        0.0000000000000000     
  0.10468750000000000       0.92656249999999996        0.0000000000000000     
   7.8125000000000000E-002  0.87500000000000000        0.0000000000000000     
   9.3750000000000000E-002  0.87500000000000000        0.0000000000000000     
   9.3750000000000000E-002  0.89062500000000000        0.0000000000000000     
   7.1874999999999994E-002  0.88437500000000002        0.0000000000000000     
   8.2812499999999997E-002  0.88593750000000004        0.0000000000000000     
   8.4375000000000006E-002  0.89687499999999998        0.0000000000000000     
   7.3437500000000003E-002  0.89531249999999996        0.0000000000000000     
  0.10937500000000000       0.87500000000000000        0.0000000000000000     
  0.12500000000000000       0.87500000000000000        0.0000000000000000     
  0.12500000000000000       0.89062500000000000        0.0000000000000000     
  0.10312499999999999       0.88437500000000002        0.0000000000000000     
  0.11406250000000000       0.88593750000000004        0.0000000000000000     
  0.11562500000000001       0.89687499999999998        0.0000000000000000     
  0.10468750000000000       0.89531249999999996        0.0000000000000000     
  0.14062500000000000       0.96875000000000000        0.0000000000000000     
  0.15625000000000000       0.96875000000000000        0.0000000000000000     
  0.15625000000000000       0.98437500000000000        0.0000000000000000     
  0.13437499999999999       0.97812500000000002        0.0000000000000000     
  0.14531250000000001       0.97968750000000004        0.0000000000000000     
  0.14687500000000001       0.99062499999999998        0.0000000000000000     
  0.13593749999999999       0.98906249999999996        0.0000000000000000     
  0.17187500000000000       0.96875000000000000        0.0000000000000000     
  0.18750000000000000       0.96875000000000000        0.0000000000000000     
  0.18750000000000000       0.98437500000000000        0.0000000000000000     
  0.16562499999999999       0.97812500000000002        0.0000000000000000     
  0.17656250000000001       0.97968750000000004        0.0000000000000000     
  0.17812500000000001       0.99062499999999998        0.0000000000000000     
[...]
 CELL_DATA       14336
 SCALARS Tumor_cells float
 LOOKUP_TABLE default
    0.36327751740549406092E-13
   -0.13291471529916574337E-13
    0.34364612694528035574E-13
    0.40626237011242970454E-14
    0.51306655085514510715E-13
   -0.44925887885204181260E-14
    0.45106111866846043448E-13
    0.99305281238301654334E-14
    0.43873697809224767619E-14
    0.38500070004440144678E-14
   -0.16873450003664901909E-14
    0.23975438107331572367E-13
    0.19203817294665836369E-13
    0.30991675685069349872E-13
    0.47033058120217587792E-13
    0.86872274563129108896E-14
    0.96949520106076018937E-14
    0.53476534879774463445E-13
    0.75399545501778984570E-13
    0.70764464771977482248E-14
    0.33475072878385324909E-13
    0.24247810803726532100E-13
    0.66039999548224649938E-13
    0.14693337012970447841E-14
    0.38758107058473144274E-13
    0.30551986560405242890E-13
    0.76815444037097191593E-14
   -0.81699417286741386696E-14
   -0.28802197903219378913E-13
    0.64657163006217345998E-13
    0.60812586550597872764E-13
   -0.18386371605461536020E-14
   -0.27112363926133991029E-13
    0.78353352851873162189E-13
    0.72594256521625994010E-13
    0.71784120092969732538E-13
   -0.74656161209430427051E-15
    0.30583774917461694378E-13
    0.14713457889810198734E-13
    0.44217431001511547572E-13
    0.62999329405403855570E-14
    0.27078209562086307093E-13
    0.63553703929166873103E-13
    0.66683182542969951782E-13
    0.59694222444325442152E-14
    0.21381322214592829939E-13
    0.77242458266770537544E-13
    0.52806050116526799093E-13
    0.35874352541818505817E-13
   -0.83568722417610184146E-14
    0.65383519590045161069E-13
    0.31469256656122624316E-13
   -0.12016342714956174275E-13
    0.61248535881308672369E-13
    0.25013663299425828060E-13
    0.17576141518544983721E-13
    0.32799621962984066674E-13
   -0.10960449907470379123E-14
    0.74747000091517918980E-13
    0.74725281453643587387E-13
    0.35887585506753774138E-13
    0.38186819183948893420E-13
   -0.15202021742248095553E-13
    0.26050428017520438522E-13
    0.83555855104207371651E-13
    0.67993826205396800774E-13
    0.16924004696711548543E-13
   -0.53924039220739885898E-14
    0.28568721243857234674E-13
    0.16179497782293795234E-13
   -0.32044558549043789812E-13
    0.44859557151980157718E-13
   -0.39419014472280098254E-13
    0.29335169961968457016E-13
    0.21997774012424383504E-13
    0.38546855886177953256E-14
   -0.52918452049021594247E-14
    0.14726492293664182763E-13
    0.36668737686496846958E-13
   -0.33901926399434058271E-13
    0.10207373368115363402E-13
    0.53880975579594561144E-13
    0.53317349779076427819E-13
    0.32732578216966933368E-13
    0.42647338377680549740E-13
    0.53772970133873345865E-13
    0.28938463617172580338E-13
    0.42060100689840781358E-13
    0.36926905253333556198E-13
   -0.14863591086059243377E-13
    0.25293882433890673306E-13
   -0.20282879910041352450E-13
   -0.50821447413363478449E-14
    0.68882407689303346931E-13
    0.52439485772367375953E-13
    0.24617941244152656894E-13
    0.45664746389087038859E-13
    0.46273693596831315037E-13
    0.46670916887916027154E-13
    0.30024542079398191214E-13
    0.28518804803751249949E-13
   -0.32275606230536898501E-13
   -0.61533626347210088716E-14
    0.17777390501902755227E-13
   -0.80132838393389101266E-14
   -0.65480547966151701209E-14
    0.35856241763312060439E-13
    0.13614061727970302574E-13
    0.34206677020736350045E-13
   -0.12374843117132510300E-14
    0.41274860901956827220E-14
    0.44269258483660200714E-14
   -0.10604229819561198468E-13
   -0.95285242343255567558E-14
    0.67991695575701891367E-13
    0.30368803393162060727E-13
    0.30246091688758552709E-13
    0.16548110340438151239E-13
   -0.32656421490617894606E-13
    0.11797875736698886808E-13
    0.73106107282929397808E-13
    0.30645870829935200790E-13
    0.39726494140309399151E-13
   -0.21758293220018192522E-13
   -0.20472253157249647430E-13
   -0.17890434427724731766E-13
    0.78726384920804269163E-14
    0.22202514122736894133E-13
   -0.43668609786474382866E-13
    0.22037631592911365743E-13
    0.52654170252759189509E-13
    0.69960499056307267296E-13
    0.18161039029681823155E-13
    0.25319462065085728139E-13
    0.82636762811506468014E-13
   -0.34638288811153076467E-13
   -0.40683648710454312256E-13
    0.18497820928379338440E-13
    0.26045883708369832783E-13
    0.46758853988438838541E-13
    0.57672456632445269809E-13
    0.31670707874861522013E-14
    0.25476419989255386235E-13
   -0.89689109037743766558E-14
    0.76142674449399103335E-13
    0.14693154903355143799E-13
    0.14166225628366913409E-13
   -0.11472903772098229622E-13
    0.47504218116173218970E-14
    0.40778315847565842970E-13
    0.10007771713798690468E-13
   -0.12048236823577086715E-13
   -0.19840550800980679507E-13
    0.60936502296977380480E-13
    0.18907929703882191607E-13
    0.10752409159193290401E-13
    0.42507491573299895601E-13
    0.58314385716788344240E-13
    0.39772873061900808460E-13
   -0.53792319473686235877E-14
   -0.57429808642753175950E-14
    0.74865796395094724127E-14
    0.19176408538596199739E-13
    0.16273702768967343649E-13
    0.27411525978121889290E-13
    0.50335095200290461227E-13
    0.34051782117865056939E-13
    0.15322494875206512082E-13
    0.24239528733137032290E-13
    0.36445328196349057507E-13
    0.16670840772676401516E-13
    0.38192571668188029278E-13
    0.12988328949832606443E-13
    0.25376546969960806135E-13
    0.58357893112871301431E-14
    0.65950972980617088738E-13
    0.18007836714289103168E-13
    0.15999958634715779740E-13
    0.38666513433831786757E-13
    0.76237766044384296654E-14
    0.29976664615144270650E-13
    0.56517387465909971158E-13
   -0.36583117417443573968E-14
    0.46997776079603825923E-13
   -0.42408027918893014502E-13
    0.40942139230627247025E-13
   -0.16682383224738048214E-13
    0.27721200886352765433E-13
   -0.57099412298632363922E-14
    0.21865465115002299516E-13
    0.32932433117981445755E-13
    0.43228897687777504743E-13
    0.20188479741306823309E-13
    0.25183061096445737523E-13
    0.53749451511293478543E-14
   -0.35181871089469945912E-13
    0.55855314393084043052E-13
    0.12321642353270930050E-14
    0.13829799358938632751E-14
   -0.56955295913395005612E-13
    0.25578812287135773044E-13
    0.28393473640724504453E-13
    0.20093042382461978847E-13
   -0.18434342564662905559E-14
    0.48177083756116946585E-13
    0.17475588975746812874E-13
   -0.10694117309050530175E-13
    0.33458513714248345277E-13
    0.96299636292481502115E-14
   -0.15325587040370845438E-13
   -0.74319123331495280294E-15
   -0.27368314909417981476E-13
   -0.20284262131518005824E-13
    0.33111156759765427879E-13
    0.37462423495111385982E-13
    0.31995489373389677416E-13
   -0.13721379168556277136E-13
    0.56200883968128417948E-13
   -0.13711088145546080725E-13
    0.96621435666836829932E-14
    0.28325275717125361891E-13
    0.43166209011425597836E-13
   -0.24979814192011186645E-13
    0.51956947392911080540E-14
   -0.54008355143530887320E-14
    0.40908061595236669778E-13
    0.14308946455371656602E-13
    0.27393530679393723230E-14
    0.16601182860425541527E-13
    0.78058735348029911042E-13
    0.42890904772934133802E-13
    0.95298778215813645246E-14
    0.18094994752465584900E-13
    0.63239635729731312230E-13
   -0.28474096770946440554E-13
    0.27926798901758048630E-13
   -0.69273966132622091742E-14
    0.13343273915727741209E-13
   -0.30582747011207534595E-13
    0.27432190697792457587E-13
    0.28088200597428852074E-13
    0.47821992337280079630E-13
    0.71559341649577022473E-13
    0.65608499858108789081E-14
   -0.26865966850681111550E-14
   -0.99823691689717615083E-15
    0.18460359275419850905E-13
    0.85891323755829401718E-13
    0.36130013013258300634E-13
    0.18956704717386474339E-13
    0.14966277525400181594E-13
    0.10300420499242973730E-13
    0.16163657880122372865E-13
    0.40318843751510170406E-13
    0.21283996600767329889E-13
    0.25459825095156529217E-13
    0.76286024316405929463E-14
   -0.60395037800335310589E-14
    0.46254698813631633017E-14
   -0.54236283177052488715E-13
   -0.14126744166265068335E-13
    0.45722131161382722786E-13
   -0.10095163739441157383E-13
    0.70247033679918126924E-14
   -0.12588285719535519554E-13
   -0.13477563487922695537E-13
    0.83791560422386533256E-13
    0.46501234538035142391E-13
    0.89157668866369548988E-14
   -0.14401526122948263751E-13
    0.22637465898752344460E-13
    0.49123487430564731216E-13
    0.54267505470901776645E-13
    0.17549319496262791431E-13
    0.29404555518451289253E-13
    0.20807769051953416283E-13
    0.53152763317845679748E-14
    0.44234454902461574847E-13
    0.48777183314405990614E-14
   -0.75210328697578758449E-14
   -0.11135896081859937669E-13
    0.29708463282449519770E-13
    0.51926147686896055105E-14
    0.71964124927627952717E-14
    0.54072938644592323449E-13
    0.16749967353102327231E-13
    0.78780578159929964769E-14
    0.21340391554549898219E-13
   -0.19581639109460416163E-13
    0.86515896021206812690E-14
   -0.24137431749386983802E-15
    0.25762320852362233671E-13
    0.55102861268344891685E-13
    0.37740357536350780560E-13
    0.22372806221235119383E-13
    0.82016827352073851092E-14
   -0.75834543135947119504E-14
    0.14833681854929115064E-13
    0.20491657041076079937E-13
    0.42560703453169259829E-13
    0.48783236683273330276E-13
    0.33333221790895442909E-13
    0.41286378412834649047E-13
    0.54097542189119896542E-13
    0.37815595912551752965E-13
    0.12828807854296249188E-13
    0.29698215597231775087E-13
    0.33251115834503846513E-13
   -0.15296732372218833743E-13
   -0.53058249959296652695E-14
   -0.12200989986296050629E-14
    0.45792045819445652287E-13
    0.19522981638819231092E-13
    0.17457242742446377525E-13
    0.16374920166287087129E-13
   -0.29602688207155280949E-13
   -0.98024808715706754349E-14
    0.33303893346012448820E-13
   -0.24279592533706425988E-13
    0.21912088131861872065E-13
   -0.15180733491140616966E-14
    0.55686302581091081794E-14
    0.28740048777506757673E-13
    0.11291755383331138270E-13
   -0.44060714962313936817E-14
    0.48377901383085520980E-14
    0.16449839981594315394E-13
   -0.40142571629524770392E-13
   -0.80769095215525664359E-14
   -0.18041136003655842018E-13
   -0.10229028217038927771E-13
   -0.32226573166661820295E-13
   -0.11545563741219467649E-13
    0.36457170575796713842E-13
   -0.90496804957173663127E-15
    0.82492076281056611973E-14
    0.16973938010739861825E-13
    0.67096981482542927897E-13
    0.17213897225464059686E-13
    0.12371863752242716519E-13
    0.23240778176030482774E-13
    0.55897492028647670619E-13
    0.24764748925158522526E-13
   -0.83319257546995107104E-14
    0.17660817739859070108E-13
    0.25223127134803149062E-13
    0.28723138195487153448E-13
    0.63421847819224538394E-13
    0.57210604746973118554E-13
    0.13784956018811673925E-13
   -0.46492806160151341920E-14
    0.97759439249055537614E-14
    0.24123652898412910574E-13
    0.29820127857236385220E-13
    0.28316999276665601865E-13
    0.92861796503172725799E-14
   -0.51918966936771327407E-14
    0.46060595492893237189E-14
    0.22951610086024420110E-13
    0.15369674775445141054E-14
   -0.61084673001626214384E-14
    0.12115420475402606078E-13
    0.19304773845790241427E-13
   -0.12192544324177696051E-13
    0.25496389485743669657E-13
   -0.33050265648815222153E-13
    0.11721535904961931052E-13
    0.37430944554510634024E-14
    0.16503008866472039033E-13
    0.55719727623479971463E-13
    0.64103207525624202215E-13
    0.87261354295853905513E-15
    0.32557206360774951929E-13
    0.36988661771651977179E-13
   -0.25414383991072298907E-13
    0.78654046209325546099E-14
    0.12169948774563249428E-13
    0.45177474745780968334E-13
    0.11143137368143720697E-13
   -0.12076422321990945582E-13
   -0.73988444475621312055E-14
    0.92885568414711894834E-15
   -0.52571761133646793857E-14
   -0.10221595527987784150E-14
    0.23459090753900570676E-14
    0.56757887685049111532E-13
    0.45179049008325080022E-13
    0.36048998101738405471E-13
    0.16621871783308608974E-13
    0.19805791364409141873E-15
   -0.12255518688791626261E-13
    0.32958200003679930210E-13
    0.24094762436326513623E-14
    0.52979197150619937026E-13
    0.46279432616205147375E-13
    0.19144407199555448010E-13
    0.44934236684290227966E-13
    0.10189879776628577178E-13
    0.55661353810572448381E-13
    0.37130554823338105702E-13
    0.55280532773449344078E-13
    0.26366019810176740404E-13
    0.15166678748480332030E-13
    0.88012389230088184458E-14
    0.37740750210388978767E-13
    0.35553020253759510283E-13
    0.88551112637473821699E-14
    0.10151849023297578665E-13
    0.18609913642298733222E-13
    0.19667443111597734604E-13
    0.14144884058623907548E-13
   -0.37399478697698444162E-13
   -0.18635097250265837375E-13
    0.31965227312621956951E-13
    0.42936644772087080826E-13
    0.48805858827915592869E-14
    0.75447697901513805984E-14
   -0.62976594449431976398E-15
   -0.85610596974790691292E-14
    0.20880516264305000345E-13
   -0.16690591297818635780E-13
    0.18077354047461419026E-13
    0.17864204005273414781E-13
   -0.13306266548913188500E-13
    0.50051041532056530993E-15
    0.27983167065868388757E-13
    0.22932362161997746626E-13
   -0.14138984756163236125E-13
    0.23289213027008449213E-13
   -0.43725748920386570632E-14
   -0.18493455331766355617E-14
   -0.25522715957936714432E-14
    0.22351971960774316533E-13
   -0.66882930289227645891E-14
    0.33003718320884911915E-14
   -0.43073775178130178829E-14
    0.83732655426218948791E-14
   -0.48987011113757255960E-14
   -0.17575026464055340035E-13
    0.15573747412707909379E-13
    0.28415706302187350645E-13
    0.39072759508065091030E-14
   -0.92629326817605990309E-14
   -0.10090891429277021514E-13
   -0.29401167163495855415E-14
   -0.90517058462707410009E-14
    0.25718145712873490531E-14
   -0.18620526827197780924E-14
    0.51785330319947304924E-13
   -0.17763581635503918347E-14
    0.65431264523670915044E-13
    0.41672284300334189480E-13
   -0.22666272755304087842E-14
    0.29647961863623587926E-13
   -0.11933226852813179576E-13
    0.25000630752558732672E-13
    0.50961003639824292782E-13
    0.15786478391810463770E-13
    0.33335452219106367079E-13
    0.44236988761939987668E-13
   -0.64852713227916386483E-14
    0.40403224332314551259E-13
    0.20280053523369189840E-13
   -0.28594785102772209716E-13
    0.14280881617611464023E-13
    0.46010267527471781404E-13
    0.71338038980085410017E-13
    0.55083949838240910466E-14
    0.18275549478331289616E-13
    0.74183005091021763526E-13
    0.70956813190064035779E-14
    0.43755751326844714989E-13
    0.73477490113814497787E-14
    0.25003066256232199277E-13
    0.45137016352110442556E-13
    0.45340431080747944702E-13
    0.21345104252832551518E-13
    0.45584950795618178986E-13
    0.51895757159636453770E-13
    0.42710111831853875775E-13
    0.87230666018102052176E-13
    0.13674990806901033323E-13
    0.29714205659455475055E-13
    0.49022397700021920483E-13
    0.44335764776916714227E-13
    0.16072942268256674202E-13
    0.52005215982614328571E-15
   -0.59825007796911857476E-14
    0.18754123960302589304E-13
    0.16800118457931321943E-13
   -0.26158875429669492932E-14
    0.12351278559759551320E-13
   -0.10678527772078837810E-13
    0.32998601097719000031E-13
    0.41166873714206342860E-14
    0.73616102261742294793E-13
    0.23888694423276677003E-13
    0.33383539281612727363E-13
    0.46390114339651588513E-13
    0.70187042258819385525E-13
   -0.67098745533223392523E-14
    0.27646348669238888373E-13
    0.78928824010249402900E-14
    0.10934003649888556745E-14
    0.11240799480867733634E-13
    0.31767277737730372403E-13
    0.35116075269953508607E-13
    0.22911682528978853013E-13
    0.46860352803599680958E-13
    0.52006046285574686891E-13
    0.14743389335418413067E-14
    0.17666116171307870544E-13
    0.24508780798337393306E-13
    0.32070549320637471179E-14
    0.22728264230168084059E-13
    0.41207829934025222437E-13
    0.58291113642098835453E-14
    0.60436630226133346251E-13
   -0.69163914404224903306E-14
    0.38213745808079339579E-13
    0.51060183435669107003E-13
    0.10758974068831632145E-13
    0.11921317691312953899E-13
    0.48627141623827342148E-13
   -0.11470450234070328218E-13
   -0.10692015020251510796E-13
   -0.91069617882845940053E-15
    0.66732563640202070618E-13
    0.51164740114786120076E-13
   -0.12666795967109437520E-13
    0.61058359810902773275E-14
    0.28697430546279609383E-13
   -0.10693871627645616291E-13
    0.46135298125035962213E-13
    0.22896564539519614300E-13
    0.18943227969859229679E-13
   -0.23113064394991269003E-15
   -0.11664371273804011551E-13
    0.30398918026179302982E-13
    0.14765576352392785004E-13
   -0.14275503310162509822E-15
    0.61760689463262885536E-13
    0.12399859182911898247E-13
    0.12156262062545281472E-13
    0.16596949083904918472E-13
    0.16642951186767083305E-13
   -0.18952410517185873371E-13
    0.48907532847879070975E-14
    0.29716501074353659238E-13
   -0.32348277486381544717E-14
    0.30888007981991934075E-13
    0.54326636122089522422E-13
    0.59678583700313907129E-13
    0.41955472806974995753E-14
    0.10084663155385136380E-13
   -0.49586321891787889685E-14
    0.51959046214519322580E-14
    0.21848963138589573672E-13
    0.81681069006973371453E-14
   -0.65429853494322626201E-14
    0.38482994884405056969E-13
    0.49836831336177594845E-13
    0.63672479274637055481E-14
    0.88197510568045481105E-14
    0.43490819043165632864E-13
    0.35941931670385138023E-13
    0.42652475866447397225E-13
    0.23487944738365931772E-13
    0.21708909872733550154E-13
   -0.11184341664343339084E-13
    0.21450062775759570508E-13
   -0.15581660574876224515E-13
    0.32494513663433817327E-13
    0.55422279308894194002E-13
    0.40179718526898909596E-13
    0.31958176530629796963E-13
    0.24580047966528778801E-13
   -0.12130840993408568513E-14
   -0.87312665339000496388E-14
   -0.81424462399061021767E-14
    0.14604538628807911967E-13
    0.25935464440586344907E-13
    0.37970637493332708658E-13
    0.33342414455186224583E-14
    0.89167631738247672328E-14
    0.16856235522159793444E-13
    0.20523902993110740376E-13
    0.39325507415021196873E-15
    0.16787522918092844899E-13
    0.87578017051514813375E-15
    0.80554365361867201740E-15
    0.63505019269985954694E-14
    0.16086810373320746976E-13
    0.27081450018456802585E-13
    0.33589917018343118634E-13
    0.85761004831680872628E-14
    0.19439862294091318115E-13
    0.31704724984729541083E-13
    0.35497760865805955745E-13
    0.30680820697051479844E-13
    0.19631479580629180600E-14
    0.13699143959486551399E-13
    0.11009778355814258973E-13
   -0.60587438384888560932E-15
   -0.32150178502478326443E-13
   -0.23695485400477902625E-13
   -0.13479064415086298382E-13
    0.41690742780271927239E-14
   -0.15290319816965687122E-13
    0.63222657737052197714E-14
    0.15426045291654797399E-13
   -0.85803068587565766947E-14
    0.19204985202463544546E-13
    0.12202894345794549560E-14
    0.11564914831341444093E-13
    0.64896677477513756661E-14
   -0.23752172646282280664E-14
    0.22859571113675583608E-13
    0.15488017786451530864E-13
    0.30225441867806098536E-13
    0.11389206013762461303E-13
    0.50949335013461046572E-14
    0.34762330788579506095E-14
    0.39283993229718540532E-13
    0.10995341435760972152E-13
    0.56003686874179860021E-13
    0.58551712568544065442E-13
    0.27598611799250545337E-13
    0.38674906476817363745E-13
    0.25618145173807083797E-13
    0.21648849005429896967E-13
    0.17281112573043232907E-13
    0.10398393847134613273E-13
    0.17905750201373026091E-13
    0.36846513896436130103E-13
    0.12624620229732685395E-13
    0.30579189795148967558E-13
   -0.18925378791433065330E-13
   -0.21745748350001030938E-13
    0.18651033968248346729E-13
    0.21732113031079435335E-13
    0.33188030776667800732E-13