# vtk DataFile Version 3.0
LAPLACIEN  2D
ASCII
DATASET UNSTRUCTURED_GRID
 POINTS        7297  float
   1.5625000000000000E-002  0.96875000000000000        0.0000000000000000     
   3.1250000000000000E-002  0.96875000000000000        0.0000000000000000     
   3.1250000000000000E-002  0.98437500000000000        0.0000000000000000     
   9.3749999999999997E-003  0.97812500000000002        0.0000000000000000     
   2.0312500000000001E-002  0.97968750000000004        0.0000000000000000     
   2.1874999999999999E-002  0.99062499999999998        0.0000000000000000     
   1.0937499999999999E-002  0.98906249999999996        0.0000000000000000     
   4.6875000000000000E-002  0.96875000000000000        0.0000000000000000     
   6.2500000000000000E-002  0.96875000000000000        0.0000000000000000     
   6.2500000000000000E-002  0.98437500000000000        0.0000000000000000     
   4.0625000000000001E-002  0.97812500000000002        0.0000000000000000     
   5.1562499999999997E-002  0.97968750000000004        0.0000000000000000     
   5.3124999999999999E-002  0.99062499999999998        0.0000000000000000     
   4.2187500000000003E-002  0.98906249999999996        0.0000000000000000     
   1.5625000000000000E-002  0.93750000000000000        0.0000000000000000     
   3.1250000000000000E-002  0.93750000000000000        0.0000000000000000     
   3.1250000000000000E-002  0.95312500000000000        0.0000000000000000     
   9.3749999999999997E-003  0.94687500000000002        0.0000000000000000     
   2.0312500000000001E-002  0.94843750000000004        0.0000000000000000     
   2.1874999999999999E-002  0.95937499999999998        0.0000000000000000     
   1.0937499999999999E-002  0.95781249999999996        0.0000000000000000     
   4.6875000000000000E-002  0.93750000000000000        0.0000000000000000     
   6.2500000000000000E-002  0.93750000000000000        0.0000000000000000     
   6.2500000000000000E-002  0.95312500000000000        0.0000000000000000     
   4.0625000000000001E-002  0.94687500000000002        0.0000000000000000     
   5.1562499999999997E-002  0.94843750000000004        0.0000000000000000     
   5.3124999999999999E-002  0.95937499999999998        0.0000000000000000     
   4.2187500000000003E-002  0.95781249999999996        0.0000000000000000     
   7.8125000000000000E-002  0.96875000000000000        0.0000000000000000     
   9.3750000000000000E-002  0.96875000000000000        0.0000000000000000     
   9.3750000000000000E-002  0.98437500000000000        0.0000000000000000     
   7.1874999999999994E-002  0.97812500000000002        0.0000000000000000     
   8.2812499999999997E-002  0.97968750000000004        0.0000000000000000     
   8.4375000000000006E-002  0.99062499999999998        0.0000000000000000     
   7.3437500000000003E-002  0.98906249999999996        0.0000000000000000     
  0.10937500000000000       0.96875000000000000        0.0000000000000000     
  0.12500000000000000       0.96875000000000000        0.0000000000000000     
  0.12500000000000000       0.98437500000000000        0.0000000000000000     
  0.10312499999999999       0.97812500000000002        0.0000000000000000     
  0.11406250000000000       0.97968750000000004        0.0000000000000000     
  0.11562500000000001       0.99062499999999998        0.0000000000000000     
  0.10468750000000000       0.98906249999999996        0.0000000000000000     
   7.8125000000000000E-002  0.93750000000000000        0.0000000000000000     
   9.3750000000000000E-002  0.93750000000000000        0.0000000000000000     
   9.3750000000000000E-002  0.95312500000000000        0.0000000000000000     
   7.1874999999999994E-002  0.94687500000000002        0.0000000000000000     
   8.2812499999999997E-002  0.94843750000000004        0.0000000000000000     
   8.4375000000000006E-002  0.95937499999999998        0.0000000000000000     
   7.3437500000000003E-002  0.95781249999999996        0.0000000000000000     
  0.10937500000000000       0.93750000000000000        0.0000000000000000     
  0.12500000000000000       0.93750000000000000        0.0000000000000000     
  0.12500000000000000       0.95312500000000000        0.0000000000000000     
  0.10312499999999999       0.94687500000000002        0.0000000000000000     
  0.11406250000000000       0.94843750000000004        0.0000000000000000     
  0.11562500000000001       0.95937499999999998        0.0000000000000000     
  0.10468750000000000       0.95781249999999996        0.0000000000000000     
   1.5625000000000000E-002  0.90625000000000000        0.0000000000000000     
   3.1250000000000000E-002  0.90625000000000000        0.0000000000000000     
   3.1250000000000000E-002  0.92187500000000000        0.0000000000000000     
   9.3749999999999997E-003  0.91562500000000002        0.0000000000000000     
   2.0312500000000001E-002  0.91718750000000004        0.0000000000000000     
   2.1874999999999999E-002  0.92812499999999998        0.0000000000000000     
   1.0937499999999999E-002  0.92656249999999996        0.0000000000000000     
   4.6875000000000000E-002  0.90625000000000000        0.0000000000000000     
   6.2500000000000000E-002  0.90625000000000000        0.0000000000000000     
   6.2500000000000000E-002  0.92187500000000000        0.0000000000000000     
   4.0625000000000001E-002  0.91562500000000002        0.0000000000000000     
   5.1562499999999997E-002  0.91718750000000004        0.0000000000000000     
   5.3124999999999999E-002  0.92812499999999998        0.0000000000000000     
   4.2187500000000003E-002  0.92656249999999996        0.0000000000000000     
   1.5625000000000000E-002  0.87500000000000000        0.0000000000000000     
   3.1250000000000000E-002  0.87500000000000000        0.0000000000000000     
   3.1250000000000000E-002  0.89062500000000000        0.0000000000000000     
   9.3749999999999997E-003  0.88437500000000002        0.0000000000000000     
   2.0312500000000001E-002  0.88593750000000004        0.0000000000000000     
   2.1874999999999999E-002  0.89687499999999998        0.0000000000000000     
   1.0937499999999999E-002  0.89531249999999996        0.0000000000000000     
   4.6875000000000000E-002  0.87500000000000000        0.0000000000000000     
   6.2500000000000000E-002  0.87500000000000000        0.0000000000000000     
   6.2500000000000000E-002  0.89062500000000000        0.0000000000000000     
   4.0625000000000001E-002  0.88437500000000002        0.0000000000000000     
   5.1562499999999997E-002  0.88593750000000004        0.0000000000000000     
   5.3124999999999999E-002  0.89687499999999998        0.0000000000000000     
   4.2187500000000003E-002  0.89531249999999996        0.0000000000000000     
   7.8125000000000000E-002  0.90625000000000000        0.0000000000000000     
   9.3750000000000000E-002  0.90625000000000000        0.0000000000000000     
   9.3750000000000000E-002  0.92187500000000000        0.0000000000000000     
   7.1874999999999994E-002  0.91562500000000002        0.0000000000000000     
   8.2812499999999997E-002  0.91718750000000004        0.0000000000000000     
   8.4375000000000006E-002  0.92812499999999998        0.0000000000000000     
   7.3437500000000003E-002  0.92656249999999996        0.0000000000000000     
  0.10937500000000000       0.90625000000000000        0.0000000000000000     
  0.12500000000000000       0.90625000000000000        0.0000000000000000     
  0.12500000000000000       0.92187500000000000        0.0000000000000000     
  0.10312499999999999       0.91562500000000002        0.0000000000000000     
  0.11406250000000000       0.91718750000000004        0.0000000000000000     
  0.11562500000000001       0.92812499999999998        0.0000000000000000     
  0.10468750000000000       0.92656249999999996        0.0000000000000000     
   7.8125000000000000E-002  0.87500000000000000        0.0000000000000000     
   9.3750000000000000E-002  0.87500000000000000        0.0000000000000000     
   9.3750000000000000E-002  0.89062500000000000        0.0000000000000000     
   7.1874999999999994E-002  0.88437500000000002        0.0000000000000000     
   8.2812499999999997E-002  0.88593750000000004        0.0000000000000000     
   8.4375000000000006E-002  0.89687499999999998        0.0000000000000000     
   7.3437500000000003E-002  0.89531249999999996        0.0000000000000000     
  0.10937500000000000       0.87500000000000000        0.0000000000000000     
  0.12500000000000000       0.87500000000000000        0.0000000000000000     
  0.12500000000000000       0.89062500000000000        0.0000000000000000     
  0.10312499999999999       0.88437500000000002        0.0000000000000000     
  0.11406250000000000       0.88593750000000004        0.0000000000000000     
  0.11562500000000001       0.89687499999999998        0.0000000000000000     
  0.10468750000000000       0.89531249999999996        0.0000000000000000     
  0.14062500000000000       0.96875000000000000        0.0000000000000000     
  0.15625000000000000       0.96875000000000000        0.0000000000000000     
  0.15625000000000000       0.98437500000000000        0.0000000000000000     
  0.13437499999999999       0.97812500000000002        0.0000000000000000     
  0.14531250000000001       0.97968750000000004        0.0000000000000000     
  0.14687500000000001       0.99062499999999998        0.0000000000000000     
  0.13593749999999999       0.98906249999999996        0.0000000000000000     
  0.17187500000000000       0.96875000000000000        0.0000000000000000     
  0.18750000000000000       0.96875000000000000        0.0000000000000000     
  0.18750000000000000       0.98437500000000000        0.0000000000000000     
  0.16562499999999999       0.97812500000000002        0.0000000000000000     
  0.17656250000000001       0.97968750000000004        0.0000000000000000     
  0.17812500000000001       0.99062499999999998        0.0000000000000000     
[...]
 CELL_DATA       14336
 SCALARS Tumor_cells float
 LOOKUP_TABLE default
   -0.81702847569061986007E-14
   -0.13056839047585543634E-14
   -0.78981709132598171606E-15
   -0.95545928498499199956E-14
   -0.81992537068728111940E-14
    0.43833735357033809485E-14
    0.13519965813472114709E-13
    0.12859067522153099770E-14
   -0.25893918839139634692E-14
   -0.38022957420507743368E-14
   -0.21467605807995796456E-14
    0.12876715079898526474E-13
    0.14439130025162291562E-13
    0.92780958291383254517E-14
    0.63883576016657318413E-14
   -0.26705538249281884921E-14
    0.15870998537819158925E-13
   -0.12625248863056437640E-13
   -0.36783359419104914158E-14
    0.64975502634441438297E-14
   -0.14500505810462301866E-14
   -0.68632335285652452809E-14
   -0.23457376808347021593E-14
    0.82496915584200850243E-14
   -0.37762420462968672423E-14
   -0.77308384908641429730E-14
    0.43264081923855464965E-14
   -0.23248126181116779399E-14
    0.96372857808557878915E-15
   -0.55577660160285013777E-14
   -0.53972472935526851646E-14
    0.23758367813722659803E-13
    0.17102941495713687903E-13
    0.51662355450392065081E-14
   -0.11836599356816933635E-13
   -0.87733568089586452500E-14
    0.84013274427029830349E-14
   -0.89595765731333489694E-15
   -0.55139906301588412601E-14
    0.61857547747242354399E-14
    0.82209741252248261435E-14
    0.86758154850883372945E-14
    0.82295061945956659718E-14
    0.12116274504765483424E-13
    0.57140005254510478518E-14
    0.10383826092413188292E-13
    0.20998131372102370357E-13
    0.21306500408015314444E-13
    0.66506650711160825319E-14
    0.58924742540863682214E-14
    0.42110751086229343072E-14
    0.14771390065181852544E-13
   -0.21379912675562303762E-15
   -0.54377039379056753373E-14
    0.10344745732741057254E-13
    0.83556809034112222629E-14
   -0.22030191613103017151E-14
    0.64731662015822981128E-14
    0.10274871298482673596E-13
    0.49459840771327509444E-14
   -0.78744973036008299080E-14
   -0.10048208351191880020E-13
    0.30265568912954805781E-14
    0.42676465711864654008E-14
    0.41617382618881685279E-14
    0.12695554083209683559E-13
   -0.21826694811734737085E-14
   -0.49186187676378164318E-14
   -0.18737510468505883404E-14
    0.10492959167600428864E-13
    0.92839916335725428963E-14
   -0.93886300115741014058E-14
    0.51773655408265171501E-14
   -0.49443329797128608177E-14
   -0.67206703363748129267E-14
   -0.57994104878396460470E-14
    0.59384547136721359063E-15
    0.29559897560160250207E-14
   -0.15126394121871493709E-14
    0.62361822413662848891E-14
   -0.17927185347129306938E-14
    0.20586771737975238135E-14
   -0.16163917104901874281E-14
    0.60546695519911491320E-14
    0.14898983757573884203E-14
   -0.16300437886002054365E-14
    0.30525657425412484501E-15
    0.39192063097823610777E-14
   -0.20012580224682582719E-14
   -0.10339020350807315181E-13
    0.78080045594192325492E-14
   -0.90792722189292989215E-14
    0.50844127646811483525E-14
    0.16320295254558722081E-13
    0.50353317283725698969E-14
   -0.12878668228747346673E-13
    0.47910776603834441549E-14
   -0.65639707316534436922E-14
   -0.23261573336228642214E-14
    0.19232000574884887065E-14
    0.11380446226352380987E-13
    0.76825917412927384604E-14
    0.40113548968893470115E-14
    0.59996408561560469093E-14
   -0.20342804932743897889E-13
   -0.77035727553396418545E-14
    0.13439619048806424884E-13
   -0.20453011339641153062E-14
   -0.71329028741223219128E-14
   -0.67227666346481814426E-14
    0.54163548044100658215E-14
   -0.42261024080490424978E-15
   -0.19889380152689296776E-13
    0.37025164640299944507E-14
   -0.71456763945257822252E-14
    0.80269756052219800644E-14
    0.75120025148796039792E-15
   -0.36458702208438005090E-14
    0.27784390792923136800E-14
    0.56595673836879531894E-16
    0.12501239747060003391E-13
    0.57506771923646621444E-14
   -0.96798421590176815421E-14
    0.70096495548943564397E-14
    0.95422896068761415441E-14
    0.51366180084817683565E-14
   -0.11856032660350866999E-13
   -0.32456951694962649282E-15
    0.54606042309606350240E-14
    0.98167820330782596655E-14
   -0.37124810048607179748E-15
   -0.18311148651605258975E-14
   -0.47894078083626437146E-14
    0.10272614235830836511E-13
    0.13103160915769127097E-13
   -0.24301147774934795588E-14
    0.45796775107709702837E-14
    0.10122853719142283492E-13
   -0.10866805531553574761E-14
   -0.10972912524431896882E-14
   -0.64374779841994231317E-14
   -0.11648363305323679896E-14
   -0.68671244743024854729E-14
    0.63278657749883619204E-14
   -0.23150505449628315560E-14
    0.27359491571112579928E-14
    0.44586956961490938827E-14
    0.27530452765433662274E-14
    0.56535690331064335261E-14
   -0.49616604721506716441E-14
    0.70957457863042357145E-14
    0.34755356663655249917E-14
   -0.40911037422038871290E-14
   -0.10850716772697064479E-13
    0.74429735823879285774E-15
    0.39919618152338632933E-14
   -0.13094283605335178313E-14
    0.13538218241408989633E-13
   -0.10174255127855618766E-13
   -0.97538007186423671473E-14
   -0.78380082295735734065E-14
    0.59242650108102173756E-14
   -0.28543331058865814552E-15
    0.81752074656052080069E-14
   -0.14498514653347807888E-13
   -0.14545861647758856188E-13
    0.14812788865971738240E-14
    0.95197361659599974255E-14
   -0.44592874164857859901E-14
   -0.47007755666428366033E-14
    0.20299057656063676553E-14
    0.12224489725828221733E-15
    0.16817438287688855371E-13
   -0.61058052893605349243E-14
   -0.38321870782896006492E-14
    0.61542533118256666703E-14
    0.86395838510605216836E-14
    0.63136289074110446942E-14
    0.48248111545277762168E-14
    0.16717075835052016137E-14
   -0.10800817242067307778E-13
   -0.75321616961241538040E-14
    0.11979736314624084863E-13
   -0.10575408452751586958E-13
    0.10907879579143563039E-13
    0.92080392564198760380E-15
   -0.56118801377622500671E-14
   -0.10621890430637836880E-14
    0.42931432276293763365E-14
    0.25291002208243813163E-14
    0.60102592338509756807E-15
    0.19700016940250674692E-14
   -0.10296324363036494483E-13
    0.33829057186419577702E-15
   -0.43555128826156859797E-14
    0.10655520206043443675E-13
    0.57067539970412887832E-14
    0.90569940458584752530E-14
    0.18834356581570336550E-13
    0.78168744559891309335E-14
    0.16958937502986977913E-14
    0.14237478803469972510E-13
   -0.83147337521767664466E-14
   -0.89214090686556959368E-14
   -0.36944570860380559678E-14
   -0.91457443627382720742E-14
   -0.21233001094564192111E-14
    0.11835312311670764211E-14
    0.20216230939659151119E-14
    0.10461005286765608776E-14
   -0.36462512007560823706E-14
    0.74261756916996405527E-14
   -0.11567117127620474665E-14
   -0.96588501885927702810E-14
    0.74235453975564155272E-14
   -0.14236330568732790640E-14
   -0.68162155578049284265E-14
   -0.16237770804986976133E-14
    0.37336215094764763433E-15
    0.26830133594264002768E-14
   -0.97140588810309198414E-14
    0.48322736336813078310E-14
    0.16624145193066771547E-14
    0.10640068943270683131E-13
    0.11150902976842357892E-14
    0.86766516214316087914E-15
    0.91422682272970750727E-14
    0.46385714286601289180E-14
   -0.66875354415056868105E-14
    0.87979482026833904763E-14
    0.59343783848814731543E-14
    0.11602741965461974416E-13
   -0.62600734120684504404E-15
   -0.25993649773023252519E-14
   -0.20235289090283459876E-14
    0.67677748187077809955E-14
    0.14310616262509568974E-13
    0.66862684322508796647E-14
    0.30535076676181506738E-14
   -0.78068533731583139132E-14
   -0.42111475329355670395E-14
    0.46927069299780651750E-14
    0.44799440031382701680E-15
    0.18490871977719771012E-14
    0.14231585667669811950E-13
    0.11123166537912071637E-13
    0.67613074569979403992E-15
   -0.89459614748948350332E-14
    0.11964547494735335183E-13
   -0.48590830292124782952E-15
   -0.10355349990754273827E-14
   -0.24466762860806542714E-14
   -0.11421352921232798264E-13
   -0.55451505995825849784E-14
   -0.14261606422028133858E-14
    0.63362578871769410709E-14
    0.35094793644062059570E-14
   -0.11176443888512786489E-14
    0.17973785393137062939E-13
   -0.31467461466608519810E-14
   -0.80450352590684202869E-14
    0.11912430923038057979E-14
    0.43133241943167357004E-14
    0.12700056473744528431E-13
    0.93470379657404407171E-14
    0.95432481779658706271E-15
   -0.32919408497093416830E-14
   -0.52585557834710250291E-14
    0.27428438414185185505E-14
   -0.67048511974999892116E-14
    0.33926863217980382223E-14
   -0.29315999937408097215E-14
    0.13245523679990751441E-13
    0.63429235051802589489E-14
    0.96468591770814490236E-14
   -0.47287597431975963992E-14
    0.89846254885139156658E-14
    0.18854462468441317596E-14
   -0.10898257878204234769E-13
    0.11848920733265309789E-13
    0.92366752414731449958E-14
    0.14009718020012598851E-14
    0.25229882307802062383E-14
   -0.92514842803624731292E-14
    0.97428094351861076181E-14
    0.20798942254882315251E-14
    0.12183031787394759997E-13
    0.93750575744920100387E-15
    0.49561414678568657239E-15
    0.68322656529206818497E-14
    0.59463900200771205919E-14
   -0.28281751396200268280E-14
    0.86845303129493307102E-14
   -0.19657318498981984440E-14
   -0.80652906929114154423E-14
    0.19997167832445488807E-14
   -0.15805625887638120049E-13
   -0.17659082822255904029E-13
   -0.10302623470506684106E-13
   -0.38196624284218725018E-14
   -0.50698871411424770296E-14
    0.81580681321787922025E-15
   -0.26277975178007952036E-15
   -0.73170328971533023068E-14
   -0.23347037363036442878E-14
   -0.17430143050954921162E-14
    0.51954869149137357967E-14
   -0.12352772833199824975E-13
   -0.14619103946458145214E-14
    0.87775843055921317651E-14
   -0.40986967193142376147E-14
    0.52882844899105841909E-14
   -0.90143035630918368933E-14
   -0.51256328015088581139E-14
    0.18057687810265340243E-13
    0.10541595767767080225E-13
    0.92026770144402965082E-14
    0.57740925949636487395E-14
    0.12512577935898187818E-14
   -0.10531503567870450457E-13
    0.42002553470688848418E-15
    0.96659429392230892551E-15
   -0.12017496855391242575E-13
   -0.96543986912848874642E-14
    0.11821698961257722137E-14
   -0.14155245009417421018E-14
    0.92284912010984292331E-15
    0.44461769840864049510E-14
   -0.15047718191167681208E-14
    0.92424291851218355584E-14
   -0.44401672340118998797E-14
    0.97482760205750565639E-14
    0.10341052849585436000E-14
    0.23056880763792820279E-14
    0.66817659809151753245E-14
    0.50997701736735489302E-14
    0.41854238920577477817E-14
    0.37202945264706957949E-14
    0.18353926334517176403E-14
    0.11484549719566478406E-13
   -0.22396481484139674951E-14
   -0.37998752132500491494E-14
   -0.50862456571554363622E-14
   -0.89429394505311110819E-15
   -0.24053811831145461472E-14
   -0.66592538527262736899E-14
    0.12520492630042101081E-13
    0.14495358647990880903E-13
   -0.14275871271085533304E-14
   -0.17798731700310488645E-14
   -0.38860140127432640727E-14
   -0.10216751046518419999E-13
   -0.15164773421792744261E-14
    0.31364059737375984690E-14
    0.12409260915594341065E-13
    0.16614825101759395224E-14
   -0.50344440314278625765E-14
    0.14233621929473119001E-13
    0.10235909567906765465E-15
    0.50514426389313918755E-14
    0.15276604515698438272E-14
    0.91934478992009177358E-14
   -0.87815145747986126338E-14
    0.47812872174461256753E-14
    0.34279902138391500348E-14
    0.11320706740645786683E-13
   -0.17552743933039776700E-14
   -0.10323357627893572777E-13
   -0.75926481340078476361E-14
    0.31517320908444496230E-14
    0.42425636537190525816E-14
    0.12451371064886170554E-13
    0.17080959317274588817E-13
   -0.61576510563777873688E-14
   -0.40833817590347216733E-15
    0.65648875404902917616E-14
   -0.50227315513811692150E-15
    0.13494444957477800984E-13
   -0.63452771481536443829E-14
   -0.14094818677676871662E-14
   -0.71139094131165858813E-15
    0.44471986890281979158E-14
   -0.16551588379724849568E-14
   -0.11756945168298279069E-14
    0.69145813107665844562E-14
   -0.11390258961110711433E-13
    0.26180374744352366292E-14
   -0.18870144028084409318E-13
    0.74241737795305477011E-15
   -0.91350755837653981049E-14
   -0.72198755710321346588E-14
   -0.16829932395646073218E-14
    0.12658629825231905772E-13
   -0.49897240393043108794E-14
    0.28066821105925683479E-14
   -0.40068782014173105635E-14
   -0.97816306127232332786E-14
    0.16454766104059798954E-13
    0.40026894838463529104E-14
    0.54424327563136536435E-14
    0.51920205309819442847E-14
   -0.61510678339299689281E-15
   -0.27018307762065811186E-14
   -0.92516392715001088677E-14
    0.45168403069233424732E-14
    0.75786959716819056878E-14
    0.24141477943056272713E-14
   -0.14323772692371763900E-13
    0.82541274021129145864E-14
    0.13948981980541704624E-13
   -0.86953251655460354309E-14
   -0.12881546138736764243E-14
   -0.42376296156588213890E-14
    0.33458686419867441410E-14
   -0.65794993025906062459E-15
    0.43324318407228684891E-14
   -0.20673022534178957861E-13
   -0.81227423436843570116E-14
   -0.62424724330801438920E-15
   -0.60597953112260827573E-14
   -0.10092053737356688519E-13
    0.11485481150464331821E-14
   -0.31317379518464072999E-14
    0.27141780302957394353E-14
    0.32628975653888408537E-15
    0.81483476324441865106E-15
    0.75775883963357927930E-14
    0.10621621522049142466E-14
    0.50693914441212064466E-14
    0.48305078971769634895E-14
    0.85643116680908749807E-15
   -0.32232364947761269264E-14
   -0.15395887188144636922E-13
    0.13048327480286823537E-13
   -0.95854595504491287297E-14
   -0.13982730750903559490E-13
   -0.94598902858249180822E-14
   -0.11634193032052033176E-13
   -0.26002315315124401896E-14
   -0.35807881186244596615E-16
    0.35094593585455389411E-15
   -0.13358281254234350904E-13
   -0.75475976511582342211E-14
   -0.17857139179765296378E-14
   -0.19511129404184994362E-13
   -0.23809278777519769686E-14
   -0.54496092786722145171E-14
   -0.15030188811938898229E-14
   -0.42005638071468643145E-14
   -0.45673939004284093927E-14
    0.47564945278002030691E-14
   -0.12206763485097321120E-14
   -0.10354942310584796563E-13
    0.39299981113476764679E-14
    0.51244732967747828357E-14
    0.45088143058467956466E-14
    0.44283991413038838260E-14
   -0.97574241332507355970E-14
    0.34524405131992660817E-14
    0.69182372675112068334E-14
   -0.74769807389884224888E-14
    0.10896564236570736184E-13
   -0.17874643363831264580E-13
    0.16732752767095466882E-14
    0.10983871276465446892E-13
    0.10659705431061798740E-13
    0.52518468203841966733E-14
   -0.12299135726617026501E-13
    0.10155589063841508051E-13
    0.34191707117300498377E-14
    0.17737559117833322919E-14
   -0.77754641202905993793E-14
    0.23788303786784059160E-14
    0.19690320474658438171E-13
   -0.21074633773084743499E-14
   -0.44750897943492985643E-14
    0.50863131310720807439E-14
   -0.39534538004893356302E-14
    0.51701634642064238260E-15
    0.14276521647939124952E-14
   -0.47881974553202535151E-15
    0.90426701005567297606E-14
    0.31204914285271088176E-14
    0.95878554077311993531E-15
   -0.11520621147313806762E-13
    0.62706012625900933797E-14
    0.17481683347989026213E-13
    0.60513093538319583392E-14
   -0.46707121464216560638E-14
   -0.91815358371433670848E-14
   -0.90202641097093856311E-14
    0.11026370793138817584E-14
   -0.26145367220319229516E-14
    0.87819361385192828143E-14
   -0.21326775799255806548E-14
    0.49776833794427512609E-14
   -0.84704183952447397408E-14
    0.49877523386953370818E-14
   -0.50634730266238651105E-14
    0.48500276595646040715E-14
    0.17222304844752444935E-14
    0.42740632432565748827E-14
    0.23201222876350469750E-13
   -0.46997536026523002853E-14
   -0.24428446613830396365E-14
    0.44370230963154262494E-14
    0.43652847266342647410E-14
   -0.83955382244547517358E-17
    0.34235967653727782397E-14
    0.10686824156145048580E-13
    0.11149062770085689288E-13
    0.15225662614425085378E-13
    0.84938521881947089353E-15
   -0.28464455820024192222E-14
   -0.40022393703416251322E-14
   -0.45274030252027605377E-14
    0.42897297069352505780E-14
   -0.16479785691085385338E-15
    0.47801449543267177707E-14
    0.99016629912870426454E-15
    0.10002573876348020938E-13
   -0.22695993361633644964E-14
   -0.30480975690058132076E-14
    0.50268489547590063631E-14
    0.51401435897265769487E-14
    0.21234675418907274401E-14
   -0.54204351764298408204E-15
    0.99826529464105638357E-14
    0.23664463034152065060E-13
    0.46621126270023789090E-14
    0.23611159064930481079E-13
    0.11703287724299142956E-14
   -0.66477344841872370331E-14
    0.16744736247224035052E-14
    0.12577258438295092776E-14
   -0.14856987237202414999E-14
   -0.90378653679842958275E-14
    0.82832889869527572598E-15
    0.91396322097492993818E-14
   -0.33146399560288053401E-14
    0.36391333191749333614E-14
   -0.11212928074265577705E-13
    0.86212673781821562709E-14
    0.48127450623847044879E-14
    0.72903168493214388876E-15
   -0.73078800346627208739E-14
    0.26844503727041629200E-15
   -0.81430627096939911293E-14
    0.52639605307709525311E-14
    0.15724043654682631734E-14
   -0.33912157875938964179E-14
   -0.11147326027356191408E-13
   -0.46001672650353359027E-14
    0.25653692921058013161E-14
   -0.10838363430208395595E-13
    0.18111747427997726443E-13
   -0.43172388675120306472E-14
    0.16591161269581398213E-13
   -0.40158440179809565217E-14
    0.16463224986333873675E-15
    0.93002420074184332283E-14
    0.37687371471950980629E-14
   -0.20735721146968928799E-13
    0.17164357588975578279E-15
    0.86774769972807227941E-14
    0.13758602177573481573E-13
   -0.79936648127978803181E-14
   -0.14433383913090921842E-14
    0.16260541851820981480E-13
    0.13682522748747173332E-14
    0.21410646723554302670E-14
    0.12075350454091259842E-13
    0.29813766235250755986E-14
    0.65879922080672106977E-14
   -0.11065248194047316372E-13
   -0.22822170259916896455E-14
    0.10904692745273142695E-13
    0.12542985202406329074E-14
    0.39279222125490420344E-14
   -0.89156915541597211824E-14
   -0.76194218714986589416E-14
   -0.18643986819090594874E-14
    0.27874064948602969808E-14
    0.87969037675759329251E-14
    0.73604178040169998340E-14
    0.13691943773481984600E-13
    0.78703317040873146793E-14
    0.59281575824127114703E-14
   -0.33413802340617456332E-14
   -0.25871299494422681455E-14
   -0.10551228550126076872E-13
   -0.90623141994121893321E-14
    0.29364299533047038744E-14
   -0.34005321778789242685E-14
   -0.95133428673121832240E-14
    0.12503704431668493685E-13
   -0.10808153917198424787E-13
   -0.38489965093721218057E-14
    0.99534670143309459093E-14
   -0.12247105182243572885E-13
   -0.10195976228803355158E-13
   -0.40192949775066329104E-14
    0.10910717673687277421E-13
    0.25119044089172454619E-14
    0.63106126459096975561E-14
    0.47967648409860849916E-14
    0.16313563759012753678E-14
   -0.24642064737861250027E-14
   -0.29845867572086981623E-14
   -0.12448484039796407573E-13
    0.16502910724656133608E-13
   -0.65214423224479041164E-14
    0.47764665480668023969E-14
    0.48223241010072829663E-14
    0.36616962865820520639E-14
   -0.19495435373169642785E-15
    0.12387137603534309058E-13
   -0.73732390452923384926E-14
   -0.18183352271860210845E-14
    0.95241019335957951788E-14
    0.21566456813685384182E-14
    0.64695355698688753580E-14
    0.19172287561057913186E-14
   -0.72489555063052368084E-14
   -0.14862415414795585097E-14
    0.58023411678829932696E-14
   -0.82453903939593271879E-14
    0.44277857517757173056E-14
    0.43048609865007054416E-14
    0.99477594628400892261E-14
    0.60872960510680901074E-14
   -0.68123375915533209772E-14
    0.85331000045088731020E-14
    0.92021091865453273385E-14
   -0.16119841015490112838E-14
   -0.51184438630142522084E-14
   -0.10457396933534182492E-13
    0.18213127780342985478E-15
   -0.87800163799868119153E-14
    0.15800337975545318497E-14
   -0.13449935080812758158E-13
    0.38671409633822353986E-14