# vtk DataFile Version 3.0
LAPLACIEN  2D
ASCII
DATASET UNSTRUCTURED_GRID
 POINTS        7297  float
   1.5625000000000000E-002  0.96875000000000000        0.0000000000000000     
   3.1250000000000000E-002  0.96875000000000000        0.0000000000000000     
   3.1250000000000000E-002  0.98437500000000000        0.0000000000000000     
   9.3749999999999997E-003  0.97812500000000002        0.0000000000000000     
   2.0312500000000001E-002  0.97968750000000004        0.0000000000000000     
   2.1874999999999999E-002  0.99062499999999998        0.0000000000000000     
   1.0937499999999999E-002  0.98906249999999996        0.0000000000000000     
   4.6875000000000000E-002  0.96875000000000000        0.0000000000000000     
   6.2500000000000000E-002  0.96875000000000000        0.0000000000000000     
   6.2500000000000000E-002  0.98437500000000000        0.0000000000000000     
   4.0625000000000001E-002  0.97812500000000002        0.0000000000000000     
   5.1562499999999997E-002  0.97968750000000004        0.0000000000000000     
   5.3124999999999999E-002  0.99062499999999998        0.0000000000000000     
   4.2187500000000003E-002  0.98906249999999996        0.0000000000000000     
   1.5625000000000000E-002  0.93750000000000000        0.0000000000000000     
   3.1250000000000000E-002  0.93750000000000000        0.0000000000000000     
   3.1250000000000000E-002  0.95312500000000000        0.0000000000000000     
   9.3749999999999997E-003  0.94687500000000002        0.0000000000000000     
   2.0312500000000001E-002  0.94843750000000004        0.0000000000000000     
   2.1874999999999999E-002  0.95937499999999998        0.0000000000000000     
   1.0937499999999999E-002  0.95781249999999996        0.0000000000000000     
   4.6875000000000000E-002  0.93750000000000000        0.0000000000000000     
   6.2500000000000000E-002  0.93750000000000000        0.0000000000000000     
   6.2500000000000000E-002  0.95312500000000000        0.0000000000000000     
   4.0625000000000001E-002  0.94687500000000002        0.0000000000000000     
   5.1562499999999997E-002  0.94843750000000004        0.0000000000000000     
   5.3124999999999999E-002  0.95937499999999998        0.0000000000000000     
   4.2187500000000003E-002  0.95781249999999996        0.0000000000000000     
   7.8125000000000000E-002  0.96875000000000000        0.0000000000000000     
   9.3750000000000000E-002  0.96875000000000000        0.0000000000000000     
   9.3750000000000000E-002  0.98437500000000000        0.0000000000000000     
   7.1874999999999994E-002  0.97812500000000002        0.0000000000000000     
   8.2812499999999997E-002  0.97968750000000004        0.0000000000000000     
   8.4375000000000006E-002  0.99062499999999998        0.0000000000000000     
   7.3437500000000003E-002  0.98906249999999996        0.0000000000000000     
  0.10937500000000000       0.96875000000000000        0.0000000000000000     
  0.12500000000000000       0.96875000000000000        0.0000000000000000     
  0.12500000000000000       0.98437500000000000        0.0000000000000000     
  0.10312499999999999       0.97812500000000002        0.0000000000000000     
  0.11406250000000000       0.97968750000000004        0.0000000000000000     
  0.11562500000000001       0.99062499999999998        0.0000000000000000     
  0.10468750000000000       0.98906249999999996        0.0000000000000000     
   7.8125000000000000E-002  0.93750000000000000        0.0000000000000000     
   9.3750000000000000E-002  0.93750000000000000        0.0000000000000000     
   9.3750000000000000E-002  0.95312500000000000        0.0000000000000000     
   7.1874999999999994E-002  0.94687500000000002        0.0000000000000000     
   8.2812499999999997E-002  0.94843750000000004        0.0000000000000000     
   8.4375000000000006E-002  0.95937499999999998        0.0000000000000000     
   7.3437500000000003E-002  0.95781249999999996        0.0000000000000000     
  0.10937500000000000       0.93750000000000000        0.0000000000000000     
  0.12500000000000000       0.93750000000000000        0.0000000000000000     
  0.12500000000000000       0.95312500000000000        0.0000000000000000     
  0.10312499999999999       0.94687500000000002        0.0000000000000000     
  0.11406250000000000       0.94843750000000004        0.0000000000000000     
  0.11562500000000001       0.95937499999999998        0.0000000000000000     
  0.10468750000000000       0.95781249999999996        0.0000000000000000     
   1.5625000000000000E-002  0.90625000000000000        0.0000000000000000     
   3.1250000000000000E-002  0.90625000000000000        0.0000000000000000     
   3.1250000000000000E-002  0.92187500000000000        0.0000000000000000     
   9.3749999999999997E-003  0.91562500000000002        0.0000000000000000     
   2.0312500000000001E-002  0.91718750000000004        0.0000000000000000     
   2.1874999999999999E-002  0.92812499999999998        0.0000000000000000     
   1.0937499999999999E-002  0.92656249999999996        0.0000000000000000     
   4.6875000000000000E-002  0.90625000000000000        0.0000000000000000     
   6.2500000000000000E-002  0.90625000000000000        0.0000000000000000     
   6.2500000000000000E-002  0.92187500000000000        0.0000000000000000     
   4.0625000000000001E-002  0.91562500000000002        0.0000000000000000     
   5.1562499999999997E-002  0.91718750000000004        0.0000000000000000     
   5.3124999999999999E-002  0.92812499999999998        0.0000000000000000     
   4.2187500000000003E-002  0.92656249999999996        0.0000000000000000     
   1.5625000000000000E-002  0.87500000000000000        0.0000000000000000     
   3.1250000000000000E-002  0.87500000000000000        0.0000000000000000     
   3.1250000000000000E-002  0.89062500000000000        0.0000000000000000     
   9.3749999999999997E-003  0.88437500000000002        0.0000000000000000     
   2.0312500000000001E-002  0.88593750000000004        0.0000000000000000     
   2.1874999999999999E-002  0.89687499999999998        0.0000000000000000     
   1.0937499999999999E-002  0.89531249999999996        0.0000000000000000     
   4.6875000000000000E-002  0.87500000000000000        0.0000000000000000     
   6.2500000000000000E-002  0.87500000000000000        0.0000000000000000     
   6.2500000000000000E-002  0.89062500000000000        0.0000000000000000     
   4.0625000000000001E-002  0.88437500000000002        0.0000000000000000     
   5.1562499999999997E-002  0.88593750000000004        0.0000000000000000     
   5.3124999999999999E-002  0.89687499999999998        0.0000000000000000     
   4.2187500000000003E-002  0.89531249999999996        0.0000000000000000     
   7.8125000000000000E-002  0.90625000000000000        0.0000000000000000     
   9.3750000000000000E-002  0.90625000000000000        0.0000000000000000     
   9.3750000000000000E-002  0.92187500000000000        0.0000000000000000     
   7.1874999999999994E-002  0.91562500000000002        0.0000000000000000     
   8.2812499999999997E-002  0.91718750000000004        0.0000000000000000     
   8.4375000000000006E-002  0.92812499999999998        0.0000000000000000     
   7.3437500000000003E-002  0.92656249999999996        0.0000000000000000     
  0.10937500000000000       0.90625000000000000        0.0000000000000000     
  0.12500000000000000       0.90625000000000000        0.0000000000000000     
  0.12500000000000000       0.92187500000000000        0.0000000000000000     
  0.10312499999999999       0.91562500000000002        0.0000000000000000     
  0.11406250000000000       0.91718750000000004        0.0000000000000000     
  0.11562500000000001       0.92812499999999998        0.0000000000000000     
  0.10468750000000000       0.92656249999999996        0.0000000000000000     
   7.8125000000000000E-002  0.87500000000000000        0.0000000000000000     
   9.3750000000000000E-002  0.87500000000000000        0.0000000000000000     
   9.3750000000000000E-002  0.89062500000000000        0.0000000000000000     
   7.1874999999999994E-002  0.88437500000000002        0.0000000000000000     
   8.2812499999999997E-002  0.88593750000000004        0.0000000000000000     
   8.4375000000000006E-002  0.89687499999999998        0.0000000000000000     
   7.3437500000000003E-002  0.89531249999999996        0.0000000000000000     
  0.10937500000000000       0.87500000000000000        0.0000000000000000     
  0.12500000000000000       0.87500000000000000        0.0000000000000000     
  0.12500000000000000       0.89062500000000000        0.0000000000000000     
  0.10312499999999999       0.88437500000000002        0.0000000000000000     
  0.11406250000000000       0.88593750000000004        0.0000000000000000     
  0.11562500000000001       0.89687499999999998        0.0000000000000000     
  0.10468750000000000       0.89531249999999996        0.0000000000000000     
  0.14062500000000000       0.96875000000000000        0.0000000000000000     
  0.15625000000000000       0.96875000000000000        0.0000000000000000     
  0.15625000000000000       0.98437500000000000        0.0000000000000000     
  0.13437499999999999       0.97812500000000002        0.0000000000000000     
  0.14531250000000001       0.97968750000000004        0.0000000000000000     
  0.14687500000000001       0.99062499999999998        0.0000000000000000     
  0.13593749999999999       0.98906249999999996        0.0000000000000000     
  0.17187500000000000       0.96875000000000000        0.0000000000000000     
  0.18750000000000000       0.96875000000000000        0.0000000000000000     
  0.18750000000000000       0.98437500000000000        0.0000000000000000     
  0.16562499999999999       0.97812500000000002        0.0000000000000000     
  0.17656250000000001       0.97968750000000004        0.0000000000000000     
  0.17812500000000001       0.99062499999999998        0.0000000000000000     
[...]
 CELL_DATA       14336
 SCALARS Tumor_cells float
 LOOKUP_TABLE default
   -0.88555498657537220068E-14
   -0.34571806351491982355E-14
    0.31194782145869889969E-14
   -0.22416760858808943163E-13
   -0.12575868703856943713E-13
    0.11052764464006301249E-13
    0.31467603982131700625E-13
    0.11188452205949950443E-13
   -0.18920272854712708257E-14
   -0.37642203674026385807E-14
   -0.65308749322836476573E-14
    0.32278619713956667509E-13
    0.24364711031085704991E-13
    0.14263678437213138389E-13
    0.27040889086224120485E-13
   -0.82741702789741976767E-14
    0.33973207178276792721E-13
   -0.28709546055681568317E-13
   -0.17020839198312396221E-13
    0.11042931840944291964E-13
   -0.74774827536449448976E-14
   -0.10379703256212497780E-13
   -0.29238484380622001212E-14
    0.15289915830531841866E-13
   -0.84006997359105208700E-14
   -0.16972677881056934683E-13
    0.80182089112992247068E-14
   -0.20205464792865894485E-13
    0.30811474332494940368E-14
   -0.19998498587429004993E-13
   -0.84782703030414638253E-14
    0.45082889233973486994E-13
    0.33709360458429687832E-13
    0.18376755176737451286E-13
   -0.17191844542792437924E-13
   -0.10972884115553993526E-13
    0.18176582517461866425E-13
    0.96176322201923097378E-15
   -0.11447304143355611260E-13
   -0.17562719987636875988E-14
   -0.26823942094094096394E-14
    0.11400948140327502255E-13
    0.78695736073828371363E-14
    0.24819599911593009593E-13
    0.20939114434447064865E-13
    0.19959279901858557471E-13
    0.49023746302658505208E-13
    0.30137732643162413457E-13
    0.16288165116725528173E-13
    0.11193409063820036017E-13
   -0.57130874298366675133E-14
    0.19069874795272686250E-13
    0.55324405213523335302E-14
   -0.42191913094654240629E-14
    0.74739004363572156054E-14
    0.32715844362539281267E-14
   -0.40435826099655934853E-14
    0.23901055353145903486E-13
    0.27125201439854729300E-13
    0.16184844499197519117E-13
   -0.22576993209550715593E-13
   -0.24272910400811627578E-13
   -0.35110071694333994202E-14
    0.46139786389366426496E-14
    0.50551221486849684744E-14
    0.71783441343012252860E-14
   -0.16296066481878205241E-14
   -0.98694215319323714521E-14
   -0.19238045838077981671E-13
    0.90051643909322432543E-14
    0.17176692482111056276E-13
   -0.26588533487281264187E-13
    0.44046950243632702030E-14
   -0.25011468505947918545E-14
   -0.17340780555936485994E-13
   -0.76584401681003935817E-14
   -0.86700670832556161600E-14
    0.48989912964518386600E-14
   -0.12793362347802983384E-13
    0.16144608575882021156E-13
   -0.10840417513778632692E-13
   -0.95136077945208853189E-14
    0.40148797423663085075E-14
    0.10783632598065586831E-13
   -0.55881166379445167968E-14
   -0.59887847324585751348E-14
    0.28288000503577394730E-14
   -0.10055081935930600410E-14
   -0.77706228706844073540E-14
   -0.19248543096177227802E-13
   -0.34414201711538402096E-14
   -0.16635932429922910223E-13
    0.94878269556594726752E-15
    0.32104321121111083768E-13
   -0.81024894289791127673E-14
   -0.13998005152503793760E-13
    0.19013599269970788968E-14
   -0.82664664199018146771E-14
   -0.21452434095832659887E-14
   -0.67375735874099768600E-14
    0.22845926131031358288E-13
    0.20886072793619412247E-14
    0.16323183521739938114E-13
   -0.72691032639615402798E-14
   -0.47885183127983481658E-13
   -0.23874443543471062167E-13
    0.17087586974214565316E-13
    0.35131013936977263069E-14
   -0.22397650878960140551E-13
   -0.21426165994690014708E-14
    0.66263225201327624324E-14
   -0.37556236636372493012E-14
   -0.51627004391843297898E-13
    0.16911704240757361976E-14
   -0.89192075470496737032E-15
    0.18410683617508743101E-13
   -0.51973685281509105833E-14
   -0.59292643721504415657E-14
    0.24122112328528105253E-14
   -0.14697805114404679598E-13
    0.76815130171302903825E-14
    0.48972964270960459984E-14
   -0.14950303792709313681E-13
    0.50049655261455338825E-14
    0.11878056177540384036E-13
   -0.85456624495354229105E-14
   -0.20841082266482089203E-13
   -0.57528721700533186572E-14
   -0.44732081475225810501E-14
    0.14853409216791844144E-13
   -0.14716031564353559982E-14
   -0.11455244277950505016E-13
   -0.71409818588789671099E-14
    0.88104178511798500367E-14
    0.31332012266157934681E-13
   -0.42322419681099053033E-15
    0.14624016951767698736E-16
    0.17474524120642817365E-14
   -0.18634687427694509387E-14
   -0.64330149491951582308E-14
   -0.69911733648546071663E-14
   -0.42244889464998607788E-14
   -0.22754724757718108434E-13
    0.16712264170041354416E-14
   -0.13543941965229141399E-13
    0.38499874046939043604E-14
    0.84006668213079916021E-15
   -0.15372041536011903170E-14
   -0.41043110506048808286E-14
   -0.12924230058317044704E-13
    0.17067004352785778519E-13
   -0.58939289517910527734E-14
   -0.15730050212653978986E-13
   -0.10004142543140144875E-13
   -0.10794722463893657253E-13
    0.12834587474539531463E-13
   -0.78752306311815675600E-14
    0.32135823637458609024E-13
   -0.28586165797873013659E-13
   -0.13894808823872074922E-13
   -0.13372535820795561611E-13
    0.52692729198740425754E-14
    0.10581890963631025267E-13
    0.10679052481692250407E-13
   -0.36918818350065382515E-13
   -0.29492618477713891617E-13
   -0.11264305080010970210E-13
    0.15267868824677749086E-13
   -0.20814630791285993374E-14
   -0.52560411253988519232E-14
    0.21779131817111408128E-14
   -0.65298539519090996689E-14
    0.23790091277622627013E-13
   -0.93693658690754654597E-14
   -0.16870141757367906932E-13
    0.97663761622305178680E-15
    0.14682588836788166658E-13
    0.23136455528206485764E-13
   -0.11340734108073616691E-13
   -0.80798019904034547276E-14
   -0.19150701454309405816E-13
   -0.30655987134011290181E-14
    0.26713797544116583840E-13
   -0.26798221306808767329E-13
    0.79486178279448198979E-14
   -0.10134939797628965549E-13
   -0.12314828724599147439E-13
   -0.55756276199851046064E-14
    0.43512284581806632941E-14
    0.25534756292804147179E-14
    0.62477006157837136098E-14
    0.36952831660863756422E-14
   -0.30571597253341580603E-13
   -0.52403183135082319116E-14
    0.20082155210732063500E-14
    0.95829200988300497639E-14
    0.79357464487762569099E-14
   -0.62628961935413998937E-15
    0.32453073285332490283E-13
    0.89894877434671277658E-14
   -0.88116950700151888131E-14
    0.14690009689519818695E-13
   -0.19218013414377700212E-13
   -0.31819101385049919540E-13
   -0.71937166169543566358E-14
   -0.13573247776654786251E-13
   -0.47621074627998370086E-14
    0.10472712290927511999E-13
   -0.59034976318212544283E-14
    0.41499027313832954509E-16
    0.69657215988575239333E-14
    0.12342148806575380286E-13
    0.55637833700105620992E-14
   -0.12817328231696924096E-13
    0.23112093263160776942E-13
    0.11290170065096190735E-13
   -0.26546442701612331718E-13
   -0.31865982873587067920E-14
   -0.10626969714971242914E-13
   -0.42418729744324909954E-14
   -0.19140027523441928694E-13
   -0.49234883534337357627E-14
    0.66828804616280568100E-14
    0.18709977333670922470E-13
   -0.63498875637198972349E-14
    0.15136144139142958148E-14
    0.17619287674326509623E-13
    0.11928806292538308016E-13
   -0.22728666503568499117E-14
    0.25276478344484999633E-13
    0.23350142220477736544E-13
    0.14378637182111683015E-13
   -0.17350798953490119075E-13
   -0.33440147739553892134E-14
    0.20254254099233656111E-14
    0.10981681429502430260E-13
    0.30482259492396889300E-13
    0.21664394213375408235E-13
    0.58048198880170375269E-14
   -0.96400147102158490772E-14
   -0.11900904984940255286E-13
    0.45963527170643860148E-14
    0.66378573617174580970E-14
   -0.22290322932053657323E-14
    0.26330523272825111614E-13
    0.18076855328355600611E-13
    0.11282268672372636887E-13
   -0.17218219404630878643E-13
    0.36084681900448535777E-13
    0.13271624452654025561E-13
    0.23271942990349764659E-14
   -0.15790579347612616226E-13
   -0.20554824071554922787E-13
   -0.32281249747854148210E-14
    0.29291100166166441873E-14
    0.74040581738842234874E-14
   -0.32801771228586821467E-14
   -0.26386087628353273380E-14
    0.16776200790519584603E-13
   -0.56360138368467556716E-14
   -0.11370259699420014027E-13
    0.24613589610713157217E-14
   -0.14424008244152737932E-14
    0.12105253329042861872E-13
    0.10918014359185428633E-13
   -0.68164309672605716749E-14
    0.25404831353954946690E-14
   -0.67943165159801054076E-14
   -0.72160524133699701452E-14
   -0.30854587606464065048E-14
    0.90096772177026830271E-14
   -0.32622089557603633071E-14
    0.16102144294046799051E-13
   -0.22956413760237881343E-14
    0.18712605513645492885E-13
    0.45365295252228639197E-14
    0.57502523304988112278E-14
    0.10250754345188556272E-13
   -0.24323340405484731027E-13
    0.22120103626558269280E-13
    0.94234715052804619335E-14
   -0.53295727904035700309E-15
   -0.11931089637039967522E-14
   -0.31990131873841558035E-13
    0.13606677141076042736E-13
   -0.36648185943052230998E-14
    0.17697379979045050394E-13
    0.55650787798340902460E-14
   -0.38161040222251753464E-14
   -0.27083243817009440514E-14
    0.98849474876188599217E-14
   -0.95499957581489317197E-14
    0.35399434502442990403E-14
   -0.10730167526652601503E-13
   -0.97674678378732662306E-14
   -0.95131327915001841964E-15
   -0.31809674074925997056E-13
   -0.39498432291930852585E-13
   -0.16833528089322276942E-13
   -0.21819796397777006477E-14
   -0.52278343537711546812E-14
   -0.31786061415052670055E-14
   -0.20423650057655317302E-14
    0.36876356577382230726E-14
   -0.15658798905841234326E-14
   -0.40711305272397877746E-14
    0.46550500717008479274E-16
   -0.33021961157959394780E-13
   -0.73397354685143213492E-14
    0.92662762441375796443E-14
   -0.16158971289795282433E-13
    0.15826097853139853489E-13
   -0.20048655871010651728E-13
   -0.19925186252198055732E-14
    0.14775647403694925744E-13
    0.31127846781366681134E-13
    0.13416844194471922847E-13
    0.68462970675165946498E-14
   -0.54631715416173294351E-14
   -0.22048635490442588138E-13
   -0.37567043627182242581E-14
    0.38281338446491375887E-15
   -0.26444252725747596402E-13
   -0.15084556266114426760E-13
   -0.71375241847385940788E-15
   -0.18328558617675968470E-13
    0.10133556410916352255E-13
    0.11231052781355215345E-13
   -0.84412545479273401730E-14
    0.17772407525390502767E-13
    0.35353088415106816137E-15
    0.59691812056064718038E-14
   -0.16083483304772814553E-14
   -0.14242353736353190407E-15
    0.80446933774135715672E-14
    0.53843347974933609401E-14
    0.14423675152535220078E-14
   -0.99369137064338364468E-15
    0.36340943490097356651E-14
    0.20070894062984633037E-13
   -0.92840043676517151017E-16
   -0.15995459188983432756E-13
   -0.17468480444899055909E-13
    0.58870884530603293414E-14
   -0.12132043204080443807E-13
   -0.18927082913215719848E-13
    0.18795016597994968496E-13
    0.11392387002034395229E-13
   -0.16047463247097080274E-14
   -0.39010053284567300238E-14
   -0.31375112559303412816E-14
   -0.23282052088803895321E-13
   -0.29213848586366740821E-14
    0.65714967463503194261E-14
    0.21088435699340688153E-13
   -0.10009405902830446561E-13
   -0.55044029018083898040E-14
    0.30298264090935326596E-13
   -0.26920128185922419992E-13
    0.16136122155108944451E-13
   -0.18807539109224976193E-13
    0.12267617475530908127E-13
   -0.18261293477702565612E-13
    0.13520577359425083474E-13
    0.45881008483579106809E-14
    0.39571519860589704849E-14
   -0.93099791911191672384E-14
   -0.18895971728645508219E-13
   -0.47981324625375100203E-14
    0.13185061443720368466E-13
    0.14249483498851782115E-13
    0.16921724781516847687E-13
    0.29718203086554159558E-13
   -0.17961263410221417954E-14
   -0.97483546000554355152E-14
    0.13321267406135854085E-13
   -0.25121229861545300214E-14
    0.21778045417331313320E-13
   -0.21807420094444776474E-13
    0.44739230190886583630E-14
   -0.63618227409313631086E-14
    0.12568188436667649094E-14
    0.96603616995983163113E-14
    0.10871520338641454845E-13
   -0.65925850245605833859E-14
   -0.16135442976191652106E-13
    0.31305873496669531201E-14
   -0.20523324614859667093E-13
    0.96229794352313619880E-14
   -0.85849840006866152548E-14
   -0.14498868315100593146E-13
   -0.86901164826918442008E-14
    0.28333882644883543558E-13
   -0.10106754932754417006E-14
    0.13076456932648045179E-13
    0.74852027301100892161E-14
   -0.14487427001905496046E-13
    0.38944329840635896760E-14
    0.13135186368775901085E-13
    0.12141850476939243931E-13
    0.30882765272178986043E-14
   -0.83535935959323983543E-14
    0.30278845768337448152E-14
   -0.23759032168738119406E-13
    0.13938758078616653190E-13
    0.50214606351234977876E-14
    0.39430273143597346429E-14
   -0.17499990048918880127E-13
    0.15478852526487799361E-13
    0.74363711170433694195E-14
    0.33243753556424670980E-14
   -0.22595126289708416381E-13
   -0.13655922302875349900E-13
    0.11311873135847988369E-13
   -0.45216805894025597789E-14
    0.31320057113977382340E-14
   -0.27808687048601521585E-13
   -0.19096588620094891296E-13
   -0.25016795724311605804E-14
   -0.18734039100172723831E-13
   -0.20882427922709191297E-13
    0.40846401105306036476E-14
   -0.91109026058935594328E-14
    0.69057862764589748005E-15
    0.41743327575838614624E-14
    0.29393589466559589581E-14
    0.64037882293597551605E-14
   -0.11158570654338465266E-13
   -0.39261200699508878600E-14
    0.10868270804757728241E-13
    0.84307186288184197863E-15
   -0.26492335052065096034E-13
   -0.46700186274117587636E-13
    0.31188066252726514944E-13
   -0.12819987203945413660E-13
   -0.29073604155546139231E-13
   -0.97151546354759237854E-14
   -0.25359267569676112282E-13
   -0.10428175607494009566E-13
   -0.23952059702712013665E-14
   -0.76054803983019435802E-14
   -0.12520384240327254370E-13
   -0.89561475187315414927E-14
    0.13626399934162057272E-14
   -0.36023649768398774847E-13
   -0.72783215582226198819E-14
   -0.65192102023630648361E-14
    0.47546220511417613457E-14
    0.87996564029620336122E-14
    0.28354560219034101898E-14
    0.18483512951225300490E-13
   -0.24386737746012796775E-14
   -0.16352748234867394894E-13
    0.32623134828488888392E-14
    0.16673840083653921244E-13
    0.10183246021078030378E-13
    0.85463924830648571133E-14
   -0.33301856871996552628E-13
   -0.42470927411548888673E-14
    0.28872941098034882746E-13
   -0.17220084081962504902E-13
    0.28327161450932183439E-13
   -0.53757115400960969628E-13
   -0.60599965553411141943E-14
    0.20044877158768112982E-13
    0.20854940952369873298E-13
    0.12815324947277292384E-13
   -0.21074355851818490345E-13
    0.12323732667313456775E-13
   -0.75589885354424827872E-14
    0.53923712097800358759E-14
   -0.64859413417947496648E-14
    0.44945707945175388215E-14
    0.26403908920581497512E-13
    0.11743252353706746594E-14
   -0.14076396368201520578E-13
    0.88993756229743486319E-14
   -0.13091038544390642901E-14
   -0.41931096724726797463E-15
   -0.52764259940656346499E-15
   -0.30716744463323119790E-14
    0.13499299606683395985E-13
    0.68532984455274748401E-14
    0.10890852418181443113E-14
   -0.16117036292725237106E-13
    0.12353676901885135947E-13
    0.32122360490412519736E-13
    0.11635136238397384753E-13
   -0.17125882614574860029E-13
   -0.16191491252180789913E-13
   -0.22282884836513927836E-13
    0.67525840335979683893E-14
   -0.77414815012195918262E-14
    0.32552940187976581989E-14
   -0.35314767532484398100E-14
    0.12084862459734616994E-13
   -0.81448643578387486917E-14
    0.74063308164482607041E-14
    0.42550665193111056903E-14
    0.14729328049854045172E-13
   -0.13661619290270531017E-13
    0.14752183780032560175E-15
    0.53818254383968696116E-13
   -0.94959004962627811741E-14
   -0.12187181216074605199E-13
    0.14357739572054629005E-13
    0.33049978036592234716E-14
    0.13794975044454417567E-13
    0.96375132643304204769E-14
    0.17425517883191961951E-13
    0.15921909755728586462E-13
    0.20644154112213542961E-13
   -0.87840255800011273604E-14
   -0.69233289659332672376E-14
    0.26651331176482792369E-14
   -0.14332809969056523429E-13
    0.40216949768696721024E-14
   -0.71891827857657536829E-14
    0.16235239765392373060E-13
    0.89871607297194271714E-14
   -0.58412181814471852657E-14
   -0.62910316640656018374E-14
   -0.12845378650210615542E-13
    0.12869712678800362795E-13
    0.96948505756568916194E-14
   -0.21182345451471853502E-14
    0.39734915168852406249E-14
    0.26646697307726750748E-13
    0.37112727215316441675E-13
    0.11212039932289891897E-13
    0.46710378688664505999E-13
   -0.32018733916197040826E-14
   -0.85286042827604150142E-14
    0.11429838934392510603E-13
    0.55010450862032114941E-14
   -0.11671742789172381671E-13
   -0.19069790048892037940E-13
    0.36990326030972256889E-14
    0.10710960808101808042E-13
   -0.15934330460154715578E-13
    0.77688693833473589571E-14
   -0.29131141955341082871E-13
    0.23612348740609505316E-13
    0.78791894885860435823E-14
    0.62415530533395795988E-14
   -0.11259308394102052083E-13
   -0.48980991763784892750E-14
   -0.11542817217551492292E-13
    0.10000072881308265346E-13
    0.14263744807501100113E-14
   -0.41224180442116723623E-14
   -0.22815441465426420695E-13
    0.96701830368995414928E-14
    0.53073490565857365596E-14
   -0.90421379482555084720E-14
    0.33817023034726339476E-13
   -0.68211032273209658031E-14
    0.16533580222529592051E-13
   -0.13727520942532003780E-13
    0.85173392440959995301E-15
    0.74751854427775121160E-14
    0.97515358288507517877E-15
   -0.49763951526402296601E-13
   -0.84192558355241927702E-14
    0.69960358878908177983E-14
    0.14212115840462494403E-13
   -0.19322709658265753623E-13
   -0.11537366816674162168E-13
    0.16581482186549516282E-13
   -0.12957824053126773317E-14
    0.75225587361185636815E-14
    0.13583913296687426013E-13
    0.20413944791372119887E-14
    0.13778207192051876139E-13
   -0.10567199839508240130E-13
   -0.10602474427027947296E-13
    0.44636404853890455331E-13
    0.91887682116467959945E-15
    0.14110943171765801937E-13
   -0.19390258557384358825E-13
   -0.11478895808229288480E-13
   -0.10259404022233002028E-13
    0.57284164324107935942E-14
    0.30827643651009425894E-13
    0.26226472942930842124E-13
    0.20523876899158525116E-13
    0.29569802761405741940E-13
    0.97447607656002490613E-14
    0.65686267637181698530E-14
   -0.32771322045147362202E-14
   -0.36873971197419613593E-13
   -0.27650509214737919763E-13
   -0.10345703777591893396E-13
    0.53547577292931757759E-14
   -0.18037787848829807263E-13
    0.26343290668383144801E-13
   -0.35663829912620358831E-14
   -0.54398679243378879002E-14
    0.28669236523075496755E-14
   -0.32606884690615207552E-13
   -0.16782200610992470953E-13
   -0.12576758104657704595E-13
    0.21209916180584745926E-13
    0.20132874720105055803E-13
   -0.11954617481682806411E-15
    0.12713189540099810121E-13
    0.10048386646076198544E-13
   -0.12359176995879357002E-13
   -0.37165964171285237621E-14
   -0.15604564835924829371E-13
    0.11479566758022949975E-13
   -0.62758314032055368845E-14
    0.12981344756982251620E-13
    0.52670150179846546949E-14
    0.16830314619730509627E-15
   -0.42821251541137992905E-14
    0.55410264369941645218E-14
   -0.15564617862195005927E-13
    0.41337152296297210345E-14
    0.11131284630406886228E-13
    0.66447298586484992641E-14
    0.11519166898490804511E-13
   -0.61833557928572056118E-14
   -0.99047829220749955246E-14
   -0.93415040840212185549E-14
    0.58887355358318935936E-14
   -0.11980088625126374368E-13
    0.15464274552889966584E-14
    0.14875367145810806116E-13
    0.12604910149964831714E-13
    0.40196310919627395764E-14
   -0.22737573278371987722E-13
   -0.41037671839302791098E-14
    0.18726805565570077728E-13
   -0.15565944860232907807E-13
   -0.29771403966214322220E-14
   -0.32983263215671486746E-13
   -0.43631188592432914828E-14
   -0.16546698177829816022E-13
   -0.50603516081692549833E-14
   -0.34578476963862369408E-13
    0.58169552759496589824E-14