# vtk DataFile Version 3.0
LAPLACIEN  2D
ASCII
DATASET UNSTRUCTURED_GRID
FIELD FieldData 1
TIME 1 1 double
18.8000
 POINTS        7297  float
   1.5625000000000000E-002  0.96875000000000000        0.0000000000000000     
   3.1250000000000000E-002  0.96875000000000000        0.0000000000000000     
   3.1250000000000000E-002  0.98437500000000000        0.0000000000000000     
   9.3749999999999997E-003  0.97812500000000002        0.0000000000000000     
   2.0312500000000001E-002  0.97968750000000004        0.0000000000000000     
   2.1874999999999999E-002  0.99062499999999998        0.0000000000000000     
   1.0937499999999999E-002  0.98906249999999996        0.0000000000000000     
   4.6875000000000000E-002  0.96875000000000000        0.0000000000000000     
   6.2500000000000000E-002  0.96875000000000000        0.0000000000000000     
   6.2500000000000000E-002  0.98437500000000000        0.0000000000000000     
   4.0625000000000001E-002  0.97812500000000002        0.0000000000000000     
   5.1562499999999997E-002  0.97968750000000004        0.0000000000000000     
   5.3124999999999999E-002  0.99062499999999998        0.0000000000000000     
   4.2187500000000003E-002  0.98906249999999996        0.0000000000000000     
   1.5625000000000000E-002  0.93750000000000000        0.0000000000000000     
   3.1250000000000000E-002  0.93750000000000000        0.0000000000000000     
   3.1250000000000000E-002  0.95312500000000000        0.0000000000000000     
   9.3749999999999997E-003  0.94687500000000002        0.0000000000000000     
   2.0312500000000001E-002  0.94843750000000004        0.0000000000000000     
   2.1874999999999999E-002  0.95937499999999998        0.0000000000000000     
   1.0937499999999999E-002  0.95781249999999996        0.0000000000000000     
   4.6875000000000000E-002  0.93750000000000000        0.0000000000000000     
   6.2500000000000000E-002  0.93750000000000000        0.0000000000000000     
   6.2500000000000000E-002  0.95312500000000000        0.0000000000000000     
   4.0625000000000001E-002  0.94687500000000002        0.0000000000000000     
   5.1562499999999997E-002  0.94843750000000004        0.0000000000000000     
   5.3124999999999999E-002  0.95937499999999998        0.0000000000000000     
   4.2187500000000003E-002  0.95781249999999996        0.0000000000000000     
   7.8125000000000000E-002  0.96875000000000000        0.0000000000000000     
   9.3750000000000000E-002  0.96875000000000000        0.0000000000000000     
   9.3750000000000000E-002  0.98437500000000000        0.0000000000000000     
   7.1874999999999994E-002  0.97812500000000002        0.0000000000000000     
   8.2812499999999997E-002  0.97968750000000004        0.0000000000000000     
   8.4375000000000006E-002  0.99062499999999998        0.0000000000000000     
   7.3437500000000003E-002  0.98906249999999996        0.0000000000000000     
  0.10937500000000000       0.96875000000000000        0.0000000000000000     
  0.12500000000000000       0.96875000000000000        0.0000000000000000     
  0.12500000000000000       0.98437500000000000        0.0000000000000000     
  0.10312499999999999       0.97812500000000002        0.0000000000000000     
  0.11406250000000000       0.97968750000000004        0.0000000000000000     
  0.11562500000000001       0.99062499999999998        0.0000000000000000     
  0.10468750000000000       0.98906249999999996        0.0000000000000000     
   7.8125000000000000E-002  0.93750000000000000        0.0000000000000000     
   9.3750000000000000E-002  0.93750000000000000        0.0000000000000000     
   9.3750000000000000E-002  0.95312500000000000        0.0000000000000000     
   7.1874999999999994E-002  0.94687500000000002        0.0000000000000000     
   8.2812499999999997E-002  0.94843750000000004        0.0000000000000000     
   8.4375000000000006E-002  0.95937499999999998        0.0000000000000000     
   7.3437500000000003E-002  0.95781249999999996        0.0000000000000000     
  0.10937500000000000       0.93750000000000000        0.0000000000000000     
  0.12500000000000000       0.93750000000000000        0.0000000000000000     
  0.12500000000000000       0.95312500000000000        0.0000000000000000     
  0.10312499999999999       0.94687500000000002        0.0000000000000000     
  0.11406250000000000       0.94843750000000004        0.0000000000000000     
  0.11562500000000001       0.95937499999999998        0.0000000000000000     
  0.10468750000000000       0.95781249999999996        0.0000000000000000     
   1.5625000000000000E-002  0.90625000000000000        0.0000000000000000     
   3.1250000000000000E-002  0.90625000000000000        0.0000000000000000     
   3.1250000000000000E-002  0.92187500000000000        0.0000000000000000     
   9.3749999999999997E-003  0.91562500000000002        0.0000000000000000     
   2.0312500000000001E-002  0.91718750000000004        0.0000000000000000     
   2.1874999999999999E-002  0.92812499999999998        0.0000000000000000     
   1.0937499999999999E-002  0.92656249999999996        0.0000000000000000     
   4.6875000000000000E-002  0.90625000000000000        0.0000000000000000     
   6.2500000000000000E-002  0.90625000000000000        0.0000000000000000     
   6.2500000000000000E-002  0.92187500000000000        0.0000000000000000     
   4.0625000000000001E-002  0.91562500000000002        0.0000000000000000     
   5.1562499999999997E-002  0.91718750000000004        0.0000000000000000     
   5.3124999999999999E-002  0.92812499999999998        0.0000000000000000     
   4.2187500000000003E-002  0.92656249999999996        0.0000000000000000     
   1.5625000000000000E-002  0.87500000000000000        0.0000000000000000     
   3.1250000000000000E-002  0.87500000000000000        0.0000000000000000     
   3.1250000000000000E-002  0.89062500000000000        0.0000000000000000     
   9.3749999999999997E-003  0.88437500000000002        0.0000000000000000     
   2.0312500000000001E-002  0.88593750000000004        0.0000000000000000     
   2.1874999999999999E-002  0.89687499999999998        0.0000000000000000     
   1.0937499999999999E-002  0.89531249999999996        0.0000000000000000     
   4.6875000000000000E-002  0.87500000000000000        0.0000000000000000     
   6.2500000000000000E-002  0.87500000000000000        0.0000000000000000     
   6.2500000000000000E-002  0.89062500000000000        0.0000000000000000     
   4.0625000000000001E-002  0.88437500000000002        0.0000000000000000     
   5.1562499999999997E-002  0.88593750000000004        0.0000000000000000     
   5.3124999999999999E-002  0.89687499999999998        0.0000000000000000     
   4.2187500000000003E-002  0.89531249999999996        0.0000000000000000     
   7.8125000000000000E-002  0.90625000000000000        0.0000000000000000     
   9.3750000000000000E-002  0.90625000000000000        0.0000000000000000     
   9.3750000000000000E-002  0.92187500000000000        0.0000000000000000     
   7.1874999999999994E-002  0.91562500000000002        0.0000000000000000     
   8.2812499999999997E-002  0.91718750000000004        0.0000000000000000     
   8.4375000000000006E-002  0.92812499999999998        0.0000000000000000     
   7.3437500000000003E-002  0.92656249999999996        0.0000000000000000     
  0.10937500000000000       0.90625000000000000        0.0000000000000000     
  0.12500000000000000       0.90625000000000000        0.0000000000000000     
  0.12500000000000000       0.92187500000000000        0.0000000000000000     
  0.10312499999999999       0.91562500000000002        0.0000000000000000     
  0.11406250000000000       0.91718750000000004        0.0000000000000000     
  0.11562500000000001       0.92812499999999998        0.0000000000000000     
  0.10468750000000000       0.92656249999999996        0.0000000000000000     
   7.8125000000000000E-002  0.87500000000000000        0.0000000000000000     
   9.3750000000000000E-002  0.87500000000000000        0.0000000000000000     
   9.3750000000000000E-002  0.89062500000000000        0.0000000000000000     
   7.1874999999999994E-002  0.88437500000000002        0.0000000000000000     
   8.2812499999999997E-002  0.88593750000000004        0.0000000000000000     
   8.4375000000000006E-002  0.89687499999999998        0.0000000000000000     
   7.3437500000000003E-002  0.89531249999999996        0.0000000000000000     
  0.10937500000000000       0.87500000000000000        0.0000000000000000     
  0.12500000000000000       0.87500000000000000        0.0000000000000000     
  0.12500000000000000       0.89062500000000000        0.0000000000000000     
  0.10312499999999999       0.88437500000000002        0.0000000000000000     
  0.11406250000000000       0.88593750000000004        0.0000000000000000     
  0.11562500000000001       0.89687499999999998        0.0000000000000000     
  0.10468750000000000       0.89531249999999996        0.0000000000000000     
  0.14062500000000000       0.96875000000000000        0.0000000000000000     
  0.15625000000000000       0.96875000000000000        0.0000000000000000     
  0.15625000000000000       0.98437500000000000        0.0000000000000000     
  0.13437499999999999       0.97812500000000002        0.0000000000000000     
  0.14531250000000001       0.97968750000000004        0.0000000000000000     
  0.14687500000000001       0.99062499999999998        0.0000000000000000     
  0.13593749999999999       0.98906249999999996        0.0000000000000000     
  0.17187500000000000       0.96875000000000000        0.0000000000000000     
  0.18750000000000000       0.96875000000000000        0.0000000000000000     
  0.18750000000000000       0.98437500000000000        0.0000000000000000     
  0.16562499999999999       0.97812500000000002        0.0000000000000000     
  0.17656250000000001       0.97968750000000004        0.0000000000000000     
[...]
 CELL_DATA       14336
 SCALARS Tumor_cells float
 LOOKUP_TABLE default
    0.63331765107250789781E-01
    0.63331764627484965491E-01
    0.63331768437553198625E-01
    0.63331768437552157791E-01
    0.63331764627489045560E-01
    0.63331765107247250945E-01
    0.63331762090666612885E-01
    0.63331760304142156737E-01
    0.63331758373220026215E-01
    0.63331758373196586631E-01
    0.63331760304154244290E-01
    0.63331762090661603004E-01
    0.63331761813047129928E-01
    0.63331761813043299658E-01
    0.63331777652552989633E-01
    0.63331780995153172387E-01
    0.63331790073441834865E-01
    0.63331792588067301053E-01
    0.63331785777817770078E-01
    0.63331789036443056351E-01
    0.63331781900968761589E-01
    0.63331775973871309859E-01
    0.63331769713531202437E-01
    0.63331767482914622103E-01
    0.63331771373139486569E-01
    0.63331770895879227479E-01
    0.63331777005988812435E-01
    0.63331778343148514843E-01
    0.63331789036443847385E-01
    0.63331785777817270477E-01
    0.63331792588067703509E-01
    0.63331790073441696087E-01
    0.63331780995154240976E-01
    0.63331777652551796143E-01
    0.63331770895881780992E-01
    0.63331771373137071834E-01
    0.63331767482917855627E-01
    0.63331769713528246468E-01
    0.63331775973872961316E-01
    0.63331781900968331378E-01
    0.63331778343149389143E-01
    0.63331777005988507123E-01
    0.63331805911378283303E-01
    0.63331807379730958862E-01
    0.63331821606032109861E-01
    0.63331821606031998839E-01
    0.63331807379731208663E-01
    0.63331805911377866969E-01
    0.63331793311654324685E-01
    0.63331789725030201987E-01
    0.63331780365940559818E-01
    0.63331780365939366328E-01
    0.63331789725030993021E-01
    0.63331793311653894474E-01
    0.63331797453226951200E-01
    0.63331797453226715278E-01
    0.63331811232491416752E-01
    0.63331820295014620847E-01
    0.63331838056442033014E-01
    0.63331844676825982399E-01
    0.63331832923208694619E-01
    0.63331840875891109999E-01
    0.63331826840703625559E-01
    0.63331813823302121613E-01
    0.63331800367894930393E-01
    0.63331794684289538511E-01
    0.63331801861639266948E-01
    0.63331798411983664110E-01
    0.63331814094910204860E-01
    0.63331817674016688269E-01
    0.63331878595629206852E-01
    0.63331896912974014469E-01
    0.63331928379097901516E-01
    0.63331941181266643293E-01
    0.63331921311583175283E-01
    0.63331936052507323276E-01
    0.63331911172926427800E-01
    0.63331887528345870431E-01
    0.63331862957274290271E-01
    0.63331851799447558271E-01
    0.63331864416881475388E-01
    0.63331856079976808771E-01
    0.63331887051705698655E-01
    0.63331894007452579909E-01
    0.63331850035047904113E-01
    0.63331857128028412607E-01
    0.63331882129739808240E-01
    0.63331885465785400791E-01
    0.63331863232859192392E-01
    0.63331864503949453216E-01
    0.63331842587462328087E-01
    0.63331832919244920865E-01
    0.63331815007766675829E-01
    0.63331812312244994967E-01
    0.63331827311923216683E-01
    0.63331828991967917264E-01
    0.63331842721055325862E-01
    0.63331844434148160117E-01
    0.63331933749196087091E-01
    0.63331950108732534832E-01
    0.63331993241121500859E-01
    0.63332002177687599098E-01
    0.63331966513658743967E-01
    0.63331972208595571638E-01
    0.63331935132918237841E-01
    0.63331915623936946291E-01
    0.63331883955911813522E-01
    0.63331876788895735686E-01
    0.63331900600505128263E-01
    0.63331899258911222850E-01
    0.63331928473787393874E-01
    0.63331933071077192721E-01
    0.63331840875891776133E-01
    0.63331832923209055441E-01
    0.63331844676826509755E-01
    0.63331838056442379958E-01
    0.63331820295015175959E-01
    0.63331811232491402874E-01
    0.63331798411984427388E-01
    0.63331801861639142048E-01
    0.63331794684290315667E-01
    0.63331800367894819370E-01
    0.63331813823302773869E-01
    0.63331826840704055770E-01
    0.63331817674017201747E-01
    0.63331814094910510171E-01
    0.63331864503949925060E-01
    0.63331863232859442192E-01
    0.63331885465785775491E-01
    0.63331882129740044163E-01
    0.63331857128028676285E-01
    0.63331850035047848602E-01
    0.63331828991968153186E-01
    0.63331827311923119539E-01
    0.63331812312245466812E-01
    0.63331815007766675829E-01
    0.63331832919245323321E-01
    0.63331842587462564009E-01
    0.63331844434148465428E-01
    0.63331842721055492396E-01
    0.63331936052508461255E-01
    0.63331921311584146728E-01
    0.63331941181267684127E-01
    0.63331928379098845205E-01
    0.63331896912974874891E-01
    0.63331878595629817474E-01
    0.63331856079977461027E-01
    0.63331864416882072133E-01
    0.63331851799448266038E-01
    0.63331862957274928649E-01
    0.63331887528346744731E-01
    0.63331911172927427001E-01
    0.63331894007453468087E-01
    0.63331887051706503566E-01
    0.63331972208596598595E-01
    0.63331966513659618268E-01
    0.63332002177688570543E-01
    0.63331993241122347404E-01
    0.63331950108733242599E-01
    0.63331933749196558936E-01
    0.63331899258911666939E-01
    0.63331900600505613985E-01
    0.63331876788896332431E-01
    0.63331883955912396389E-01
    0.63331915623937723447E-01
    0.63331935132919126019E-01
    0.63331933071077942121E-01
    0.63331928473788073886E-01
    0.63331926121832346488E-01
    0.63331931641251351661E-01
    0.63331968778176553347E-01
    0.63331968778176497836E-01
    0.63331931641251282272E-01
    0.63331926121832082810E-01
    0.63331892292325428495E-01
    0.63331884457007589506E-01
    0.63331858515584066316E-01
    0.63331858515583996927E-01
    0.63331884457007756040E-01
    0.63331892292325622784E-01
    0.63331905895083875913E-01
    0.63331905895083834279E-01
    0.63332040932665728539E-01
    0.63332057314014450489E-01
    0.63332119944464485006E-01
    0.63332125797576327431E-01
    0.63332067496015387320E-01
    0.63332064411687469252E-01
    0.63332008282622184736E-01
    0.63331990149914654809E-01
    0.63331945777068646142E-01
    0.63331941815622114222E-01
    0.63331981413440013862E-01
    0.63331987397985650690E-01
    0.63332019376456494264E-01
    0.63332022146660602036E-01
    0.63332064411688357430E-01
    0.63332067496016025698E-01
    0.63332125797577035198E-01
    0.63332119944465012362E-01
    0.63332057314014866822E-01
    0.63332040932665908950E-01
    0.63331987397985747834E-01
    0.63331981413440277540E-01
    0.63331941815622475045E-01
    0.63331945777069090231E-01
    0.63331990149915237676E-01
    0.63332008282622975770E-01
    0.63332022146661101636E-01
    0.63332019376456910598E-01
    0.63332232529589055359E-01
    0.63332248082498890374E-01
    0.63332342613890160732E-01
    0.63332342613890049710E-01
    0.63332248082498682207E-01
    0.63332232529588569636E-01
    0.63332146674930020480E-01
    0.63332128202685397667E-01
    0.63332062741619052360E-01
    0.63332062741619135626E-01
    0.63332128202685605833E-01
    0.63332146674930533958E-01
    0.63332182971096800950E-01
    0.63332182971096745439E-01
    0.63331999833160165791E-01
    0.63332032851494829417E-01
    0.63332087497322678282E-01
    0.63332110470017619064E-01
    0.63332076454088462314E-01
    0.63332102537565493350E-01
    0.63332059494034503855E-01
    0.63332018063239639560E-01
    0.63331975188037167857E-01
    0.63331955368782680282E-01
    0.63331976937236550418E-01
    0.63331961378648535255E-01
    0.63332016497860632587E-01
    0.63332028903349532611E-01
    0.63332212619765348993E-01
    0.63332270440078525242E-01
    0.63332365710795285318E-01
    0.63332405417444448403E-01
    0.63332345916405435871E-01
    0.63332390371548280550E-01
    0.63332316163770871476E-01
    0.63332244718880797985E-01
    0.63332170435042217660E-01
    0.63332136067461006212E-01
    0.63332173295306423699E-01
    0.63332145819023077937E-01
    0.63332242064977867235E-01
    0.63332263584987696925E-01
    0.63332084822530110291E-01
    0.63332116949734215683E-01
    0.63332191978255084064E-01
    0.63332210420550524854E-01
    0.63332150336374126720E-01
    0.63332162658979562764E-01
    0.63332098595710151212E-01
    0.63332063129906468468E-01
    0.63332008195457659139E-01
    0.63331994076680026007E-01
    0.63332033113108421318E-01
    0.63332026907993943521E-01
    0.63332082235080772170E-01
    0.63332091515975838525E-01
    0.63332354268229931749E-01
    0.63332413702230347385E-01
    0.63332545709467447104E-01
    0.63332579736950708749E-01
    0.63332474847664729789E-01
    0.63332496900690815611E-01
    0.63332385103428187612E-01
    0.63332322611888910990E-01
    0.63332226810778741166E-01
    0.63332201200929402751E-01
    0.63332267977284389948E-01
    0.63332254366130061318E-01
    0.63332354408893731801E-01
    0.63332371355078201369E-01
    0.63332582674547499568E-01
    0.63332681094594112103E-01
    0.63332845211506227923E-01
    0.63332910519378116110E-01
    0.63332806647855843796E-01
    0.63332879328694455245E-01
    0.63332753686027407070E-01
    0.63332633156404222197E-01
    0.63332506639923277780E-01
    0.63332448015584991152E-01
    0.63332512713383970482E-01
    0.63332466503054171691E-01
    0.63332630522077548729E-01
    0.63332666547451899053E-01
    0.63333215270388959484E-01
    0.63333375505423075702E-01
    0.63333653411259030475E-01
    0.63333754220051913242E-01
    0.63333574021908312091E-01
    0.63333686270797565077E-01
    0.63333479778460544107E-01
    0.63333282925184655743E-01
    0.63333072596194361914E-01
    0.63332975893618276286E-01
    0.63333087387066958063E-01
    0.63333014000531456800E-01
    0.63333284472605805293E-01
    0.63333342180748070094E-01
    0.63332834166126228403E-01
    0.63332939436323121285E-01
    0.63333173757902608281E-01
    0.63333231625542732446E-01
    0.63333043334936320323E-01
    0.63333076512933003666E-01
    0.63332880813731881608E-01
    0.63332774997229793201E-01
    0.63332608035310822281E-01
    0.63332564176393310595E-01
    0.63332681670594637158E-01
    0.63332657597237509983E-01
    0.63332833571616092838E-01
    0.63332862455980173944E-01
    0.63333683903614185207E-01
    0.63333861600396390568E-01
    0.63334275824852445669E-01
    0.63334364355149719295E-01
    0.63334022833291633847E-01
    0.63334061065809424407E-01
    0.63333720763723816427E-01
    0.63333550503635316353E-01
    0.63333262667759585018E-01
    0.63333192145224162517E-01
    0.63333402759594287224E-01
    0.63333368196821143714E-01
    0.63333666303038368972E-01
    0.63333711550089794029E-01
    0.63332246583952298002E-01
    0.63332282178580695531E-01
    0.63332389491305332574E-01
    0.63332406026875120997E-01
    0.63332310333947150482E-01
    0.63332311650016542837E-01
    0.63332215828961563320E-01
    0.63332179692967741080E-01
    0.63332103195178651722E-01
    0.63332092556850183573E-01
    0.63332156100042849567E-01
    0.63332159054669490139E-01
    0.63332222822603742585E-01
    0.63332230387246585268E-01
    0.63332614165152137375E-01
    0.63332685501700555775E-01
    0.63332874899968805149E-01
    0.63332911449879680799E-01
    0.63332746586796370702E-01
    0.63332754650082895287E-01
    0.63332586384372793753E-01
    0.63332518877973031923E-01
    0.63332384359658197570E-01
    0.63332362009521123158E-01
    0.63332468672570960133E-01
    0.63332465615670560655E-01
    0.63332587613434174201E-01
    0.63332603903937093048E-01
    0.63332524367951850697E-01
    0.63332563845911196698E-01
    0.63332720643880693889E-01
    0.63332733603809990286E-01
    0.63332585066644422889E-01
    0.63332573022594776391E-01
    0.63332430315115373354E-01
    0.63332389403734021260E-01
    0.63332278758148188857E-01
    0.63332271308378984553E-01
    0.63332372375838982825E-01
    0.63332389357143636932E-01
    0.63332466860031189082E-01
    0.63332472456434835140E-01
    0.63333036397437980636E-01
    0.63333124373566265786E-01
    0.63333395023734695428E-01
    0.63333436895241124187E-01
    0.63333191260310298110E-01
    0.63333188925749808740E-01
    0.63332941277462473373E-01
    0.63332857282943730293E-01
    0.63332664522673248753E-01
    0.63332642428869267981E-01
    0.63332805443364767473E-01
    0.63332816293018970311E-01
    0.63332972526362593668E-01
    0.63332989903348319016E-01
    0.63333281609795843980E-01
    0.63333418165922486520E-01
    0.63333760479067871541E-01
    0.63333830974085417176E-01
    0.63333534573294755776E-01
    0.63333549017340659559E-01
    0.63333247379175491854E-01
    0.63333126688247087799E-01
    0.63332886901796170420E-01
    0.63332845023991335420E-01
    0.63333031913426762749E-01
    0.63333019518044222917E-01
    0.63333246239573204317E-01
    0.63333277152680542144E-01
    0.63334504549329609380E-01
    0.63334753934185264446E-01
    0.63335380541173172397E-01
    0.63335501489001105879E-01
    0.63334952690795087715E-01
    0.63334960434450332523E-01
    0.63334415121632250956E-01
    0.63334210927448855721E-01
    0.63333781607931335933E-01
    0.63333710581238045201E-01
    0.63334049762315020038E-01
    0.63334027997187250514E-01
    0.63334436960777062975E-01
    0.63334489665030094252E-01
    0.63333966827058774118E-01
    0.63334152949970981550E-01
    0.63334642534144308668E-01
    0.63334741789869530848E-01
    0.63334309817145523214E-01
    0.63334323571140896392E-01
    0.63333876616253378944E-01
    0.63333713227677682078E-01
    0.63333366043008459956E-01
    0.63333315941684217854E-01
    0.63333593675417368396E-01
    0.63333588363351858708E-01
    0.63333899331967299928E-01
    0.63333939811765771477E-01
    0.63335711033956493266E-01
    0.63336084155568198040E-01
    0.63336999050854200788E-01
    0.63337200199105103682E-01
    0.63336399059075260132E-01
    0.63336425240858293395E-01
    0.63335597459170236978E-01
    0.63335295584600617702E-01
    0.63334656925156843088E-01
    0.63334558647670208265E-01
    0.63335058736185459449E-01
    0.63335025771367542413E-01
    0.63335628195517953976E-01
    0.63335709023929431805E-01
    0.63332102537567477873E-01
    0.63332076454090252549E-01
    0.63332110470019534199E-01
    0.63332087497324385250E-01
    0.63332032851496342096E-01
    0.63331999833161456426E-01
    0.63331961378649673233E-01
    0.63331976937237827174E-01
    0.63331955368783929283E-01
    0.63331975188038514002E-01
    0.63332018063241235506E-01
    0.63332059494036349601E-01
    0.63332028903351100801E-01
    0.63332016497862117510E-01
    0.63332162658981477898E-01
    0.63332150336375916955E-01
    0.63332210420552467744E-01
    0.63332191978256874298E-01
    0.63332116949735728362E-01
    0.63332084822531359292E-01
    0.63332026907995012110E-01
    0.63332033113109642564E-01
    0.63331994076681163985E-01
    0.63332008195458922017E-01
    0.63332063129907981147E-01
    0.63332098595711858180E-01
    0.63332091515977378959E-01
    0.63332082235082229338E-01
    0.63332390371551833264E-01
    0.63332345916408683273E-01
    0.63332405417447917850E-01
    0.63332365710798491087E-01
    0.63332270440081300800E-01
    0.63332212619767708217E-01
    0.63332145819025173483E-01
    0.63332173295308755168E-01
    0.63332136067463212781E-01
    0.63332170435044646273E-01
    0.63332244718883642931E-01
    0.63332316163774160511E-01
    0.63332263584990555749E-01
    0.63332242064980601159E-01
    0.63332496900694423836E-01
    0.63332474847668157603E-01
    0.63332579736954483507E-01
    0.63332545709470999817E-01
    0.63332413702233331110E-01
    0.63332354268232471384E-01
    0.63332254366132184620E-01
    0.63332267977286749172E-01
    0.63332201200931553808E-01
    0.63332226810781114268E-01
    0.63332322611891755937E-01
    0.63332385103431421136E-01
    0.63332371355081171216E-01
    0.63332354408896562870E-01
    0.63332311650018610627E-01
    0.63332310333949023984E-01
    0.63332406026877147154E-01
    0.63332389491307095053E-01
    0.63332282178582124943E-01
    0.63332246583953380470E-01
    0.63332159054670308929E-01
    0.63332156100043959790E-01
    0.63332092556851224407E-01
    0.63332103195179872968E-01
    0.63332179692969267637E-01
    0.63332215828963395188E-01
    0.63332230387248125703E-01
    0.63332222822605158119E-01
    0.63332573022596733159E-01
    0.63332585066645963323E-01
    0.63332733603811600109E-01
    0.63332720643881929012E-01
    0.63332563845912126510E-01
    0.63332524367952294786E-01
    0.63332389357143872854E-01
    0.63332372375839648959E-01
    0.63332271308379664565E-01
    0.63332278758149160303E-01
    0.63332389403735311895E-01
    0.63332430315117149711E-01
    0.63332472456436028629E-01
    0.63332466860032202161E-01
    0.63332754650087044745E-01
    0.63332746586800256483E-01
    0.63332911449884121691E-01
    0.63332874899972885219E-01
    0.63332685501703886444E-01
    0.63332614165154968444E-01
    0.63332465615672836612E-01
    0.63332468672573555279E-01
    0.63332362009523454627E-01
    0.63332384359660778839E-01
    0.63332518877976196059E-01
    0.63332586384376457489E-01
    0.63332603903940382084E-01
    0.63332587613437310581E-01
    0.63333188925754499432E-01
    0.63333191260314516957E-01
    0.63333436895245717735E-01
    0.63333395023738803253E-01
    0.63333124373569540944E-01
    0.63333036397440478638E-01
    0.63332816293020871568E-01
    0.63332805443367237719E-01
    0.63332642428871585571E-01
    0.63332664522676010432E-01
    0.63332857282947171984E-01
    0.63332941277466678343E-01
    0.63332989903351760708E-01
    0.63332972526365785559E-01
    0.63332879328700505961E-01
    0.63332806647861436544E-01
    0.63332910519384083559E-01
    0.63332845211511792916E-01
    0.63332681094598969329E-01
    0.63332582674551773927E-01
    0.63332466503057877061E-01
    0.63332512713388064429E-01
    0.63332448015588863055E-01
    0.63332506639927496628E-01
    0.63332633156409134934E-01
    0.63332753686033096963E-01
    0.63332666547456839545E-01
    0.63332630522082253299E-01
    0.63333076512939429081E-01
    0.63333043334942551450E-01
    0.63333231625549782362E-01
    0.63333173757909311252E-01
    0.63332939436328727911E-01
    0.63332834166131141140E-01
    0.63332657597241603931E-01
    0.63332681670599078050E-01
    0.63332564176397321276E-01
    0.63332608035315138273E-01
    0.63332774997234872472E-01
    0.63332880813737543746E-01
    0.63332862455985544647E-01
    0.63332833571621297009E-01
    0.63333686270807917906E-01
    0.63333574021918040420E-01
    0.63333754220062446483E-01
    0.63333653411268855948E-01
    0.63333375505431596664E-01
    0.63333215270396467367E-01
    0.63333014000537909971E-01
    0.63333087387074049612E-01
    0.63332975893624909869E-01
    0.63333072596201606119E-01
    0.63333282925193079560E-01
    0.63333479778470244681E-01
    0.63333342180756660444E-01
    0.63333284472613993188E-01
    0.63334061065820762559E-01
    0.63334022833302847100E-01
    0.63334364355162528493E-01
    0.63334275824864741389E-01
    0.63333861600406660131E-01
    0.63333683903623344547E-01
    0.63333368196828748742E-01
    0.63333402759602350218E-01
    0.63333192145231295700E-01
    0.63333262667767245557E-01
    0.63333550503644392426E-01
    0.63333720763733808434E-01
    0.63333711550099494603E-01
    0.63333666303047791990E-01
    0.63333549017348611532E-01
    0.63333534573302444071E-01
    0.63333830974094174060E-01
    0.63333760479076142702E-01
    0.63333418165929342147E-01
    0.63333281609801908574E-01
    0.63333019518049094021E-01
    0.63333031913432022431E-01
    0.63332845023995984479E-01
    0.63332886901801208057E-01
    0.63333126688253235659E-01
    0.63333247379182500136E-01
    0.63333277152687106337E-01
    0.63333246239579518710E-01
    0.63334323571150735743E-01
    0.63334309817154724187E-01
    0.63334741789879883678E-01
    0.63334642534153801074E-01
    0.63334152949978683722E-01
    0.63333966827065213412E-01
    0.63333588363357007367E-01
    0.63333593675423294211E-01
    0.63333315941689602435E-01
    0.63333366043014496793E-01
    0.63333713227685078939E-01
    0.63333876616261969295E-01