# vtk DataFile Version 3.0
LAPLACIEN  2D
ASCII
DATASET UNSTRUCTURED_GRID
 POINTS        7297  float
   1.5625000000000000E-002  0.96875000000000000        0.0000000000000000     
   3.1250000000000000E-002  0.96875000000000000        0.0000000000000000     
   3.1250000000000000E-002  0.98437500000000000        0.0000000000000000     
   9.3749999999999997E-003  0.97812500000000002        0.0000000000000000     
   2.0312500000000001E-002  0.97968750000000004        0.0000000000000000     
   2.1874999999999999E-002  0.99062499999999998        0.0000000000000000     
   1.0937499999999999E-002  0.98906249999999996        0.0000000000000000     
   4.6875000000000000E-002  0.96875000000000000        0.0000000000000000     
   6.2500000000000000E-002  0.96875000000000000        0.0000000000000000     
   6.2500000000000000E-002  0.98437500000000000        0.0000000000000000     
   4.0625000000000001E-002  0.97812500000000002        0.0000000000000000     
   5.1562499999999997E-002  0.97968750000000004        0.0000000000000000     
   5.3124999999999999E-002  0.99062499999999998        0.0000000000000000     
   4.2187500000000003E-002  0.98906249999999996        0.0000000000000000     
   1.5625000000000000E-002  0.93750000000000000        0.0000000000000000     
   3.1250000000000000E-002  0.93750000000000000        0.0000000000000000     
   3.1250000000000000E-002  0.95312500000000000        0.0000000000000000     
   9.3749999999999997E-003  0.94687500000000002        0.0000000000000000     
   2.0312500000000001E-002  0.94843750000000004        0.0000000000000000     
   2.1874999999999999E-002  0.95937499999999998        0.0000000000000000     
   1.0937499999999999E-002  0.95781249999999996        0.0000000000000000     
   4.6875000000000000E-002  0.93750000000000000        0.0000000000000000     
   6.2500000000000000E-002  0.93750000000000000        0.0000000000000000     
   6.2500000000000000E-002  0.95312500000000000        0.0000000000000000     
   4.0625000000000001E-002  0.94687500000000002        0.0000000000000000     
   5.1562499999999997E-002  0.94843750000000004        0.0000000000000000     
   5.3124999999999999E-002  0.95937499999999998        0.0000000000000000     
   4.2187500000000003E-002  0.95781249999999996        0.0000000000000000     
   7.8125000000000000E-002  0.96875000000000000        0.0000000000000000     
   9.3750000000000000E-002  0.96875000000000000        0.0000000000000000     
   9.3750000000000000E-002  0.98437500000000000        0.0000000000000000     
   7.1874999999999994E-002  0.97812500000000002        0.0000000000000000     
   8.2812499999999997E-002  0.97968750000000004        0.0000000000000000     
   8.4375000000000006E-002  0.99062499999999998        0.0000000000000000     
   7.3437500000000003E-002  0.98906249999999996        0.0000000000000000     
  0.10937500000000000       0.96875000000000000        0.0000000000000000     
  0.12500000000000000       0.96875000000000000        0.0000000000000000     
  0.12500000000000000       0.98437500000000000        0.0000000000000000     
  0.10312499999999999       0.97812500000000002        0.0000000000000000     
  0.11406250000000000       0.97968750000000004        0.0000000000000000     
  0.11562500000000001       0.99062499999999998        0.0000000000000000     
  0.10468750000000000       0.98906249999999996        0.0000000000000000     
   7.8125000000000000E-002  0.93750000000000000        0.0000000000000000     
   9.3750000000000000E-002  0.93750000000000000        0.0000000000000000     
   9.3750000000000000E-002  0.95312500000000000        0.0000000000000000     
   7.1874999999999994E-002  0.94687500000000002        0.0000000000000000     
   8.2812499999999997E-002  0.94843750000000004        0.0000000000000000     
   8.4375000000000006E-002  0.95937499999999998        0.0000000000000000     
   7.3437500000000003E-002  0.95781249999999996        0.0000000000000000     
  0.10937500000000000       0.93750000000000000        0.0000000000000000     
  0.12500000000000000       0.93750000000000000        0.0000000000000000     
  0.12500000000000000       0.95312500000000000        0.0000000000000000     
  0.10312499999999999       0.94687500000000002        0.0000000000000000     
  0.11406250000000000       0.94843750000000004        0.0000000000000000     
  0.11562500000000001       0.95937499999999998        0.0000000000000000     
  0.10468750000000000       0.95781249999999996        0.0000000000000000     
   1.5625000000000000E-002  0.90625000000000000        0.0000000000000000     
   3.1250000000000000E-002  0.90625000000000000        0.0000000000000000     
   3.1250000000000000E-002  0.92187500000000000        0.0000000000000000     
   9.3749999999999997E-003  0.91562500000000002        0.0000000000000000     
   2.0312500000000001E-002  0.91718750000000004        0.0000000000000000     
   2.1874999999999999E-002  0.92812499999999998        0.0000000000000000     
   1.0937499999999999E-002  0.92656249999999996        0.0000000000000000     
   4.6875000000000000E-002  0.90625000000000000        0.0000000000000000     
   6.2500000000000000E-002  0.90625000000000000        0.0000000000000000     
   6.2500000000000000E-002  0.92187500000000000        0.0000000000000000     
   4.0625000000000001E-002  0.91562500000000002        0.0000000000000000     
   5.1562499999999997E-002  0.91718750000000004        0.0000000000000000     
   5.3124999999999999E-002  0.92812499999999998        0.0000000000000000     
   4.2187500000000003E-002  0.92656249999999996        0.0000000000000000     
   1.5625000000000000E-002  0.87500000000000000        0.0000000000000000     
   3.1250000000000000E-002  0.87500000000000000        0.0000000000000000     
   3.1250000000000000E-002  0.89062500000000000        0.0000000000000000     
   9.3749999999999997E-003  0.88437500000000002        0.0000000000000000     
   2.0312500000000001E-002  0.88593750000000004        0.0000000000000000     
   2.1874999999999999E-002  0.89687499999999998        0.0000000000000000     
   1.0937499999999999E-002  0.89531249999999996        0.0000000000000000     
   4.6875000000000000E-002  0.87500000000000000        0.0000000000000000     
   6.2500000000000000E-002  0.87500000000000000        0.0000000000000000     
   6.2500000000000000E-002  0.89062500000000000        0.0000000000000000     
   4.0625000000000001E-002  0.88437500000000002        0.0000000000000000     
   5.1562499999999997E-002  0.88593750000000004        0.0000000000000000     
   5.3124999999999999E-002  0.89687499999999998        0.0000000000000000     
   4.2187500000000003E-002  0.89531249999999996        0.0000000000000000     
   7.8125000000000000E-002  0.90625000000000000        0.0000000000000000     
   9.3750000000000000E-002  0.90625000000000000        0.0000000000000000     
   9.3750000000000000E-002  0.92187500000000000        0.0000000000000000     
   7.1874999999999994E-002  0.91562500000000002        0.0000000000000000     
   8.2812499999999997E-002  0.91718750000000004        0.0000000000000000     
   8.4375000000000006E-002  0.92812499999999998        0.0000000000000000     
   7.3437500000000003E-002  0.92656249999999996        0.0000000000000000     
  0.10937500000000000       0.90625000000000000        0.0000000000000000     
  0.12500000000000000       0.90625000000000000        0.0000000000000000     
  0.12500000000000000       0.92187500000000000        0.0000000000000000     
  0.10312499999999999       0.91562500000000002        0.0000000000000000     
  0.11406250000000000       0.91718750000000004        0.0000000000000000     
  0.11562500000000001       0.92812499999999998        0.0000000000000000     
  0.10468750000000000       0.92656249999999996        0.0000000000000000     
   7.8125000000000000E-002  0.87500000000000000        0.0000000000000000     
   9.3750000000000000E-002  0.87500000000000000        0.0000000000000000     
   9.3750000000000000E-002  0.89062500000000000        0.0000000000000000     
   7.1874999999999994E-002  0.88437500000000002        0.0000000000000000     
   8.2812499999999997E-002  0.88593750000000004        0.0000000000000000     
   8.4375000000000006E-002  0.89687499999999998        0.0000000000000000     
   7.3437500000000003E-002  0.89531249999999996        0.0000000000000000     
  0.10937500000000000       0.87500000000000000        0.0000000000000000     
  0.12500000000000000       0.87500000000000000        0.0000000000000000     
  0.12500000000000000       0.89062500000000000        0.0000000000000000     
  0.10312499999999999       0.88437500000000002        0.0000000000000000     
  0.11406250000000000       0.88593750000000004        0.0000000000000000     
  0.11562500000000001       0.89687499999999998        0.0000000000000000     
  0.10468750000000000       0.89531249999999996        0.0000000000000000     
  0.14062500000000000       0.96875000000000000        0.0000000000000000     
  0.15625000000000000       0.96875000000000000        0.0000000000000000     
  0.15625000000000000       0.98437500000000000        0.0000000000000000     
  0.13437499999999999       0.97812500000000002        0.0000000000000000     
  0.14531250000000001       0.97968750000000004        0.0000000000000000     
  0.14687500000000001       0.99062499999999998        0.0000000000000000     
  0.13593749999999999       0.98906249999999996        0.0000000000000000     
  0.17187500000000000       0.96875000000000000        0.0000000000000000     
  0.18750000000000000       0.96875000000000000        0.0000000000000000     
  0.18750000000000000       0.98437500000000000        0.0000000000000000     
  0.16562499999999999       0.97812500000000002        0.0000000000000000     
  0.17656250000000001       0.97968750000000004        0.0000000000000000     
  0.17812500000000001       0.99062499999999998        0.0000000000000000     
[...]
 CELL_DATA       14336
 SCALARS Tumor_cells float
 LOOKUP_TABLE default
    0.14721906592326068058E-14
   -0.27937755948275145912E-15
    0.30603599979890167443E-15
    0.94303296314567231793E-15
    0.16095034308847390561E-14
    0.17658319338442398754E-14
   -0.29736019471472167546E-14
    0.19948708965152632036E-14
    0.15889342132243032863E-14
    0.20677666589526746195E-14
    0.22542192794224350014E-14
   -0.13412745777033584458E-14
   -0.10696411119854019311E-14
    0.16647654131039082939E-15
   -0.26972604202959911577E-14
    0.32722997744545638056E-14
   -0.10564251304201707669E-14
   -0.21387975216554583508E-15
    0.17362888304728093762E-14
    0.12832792269668790833E-14
   -0.15790433488383108142E-15
    0.10387612983107647175E-14
    0.36450216709741140505E-15
    0.53801510836158870104E-14
   -0.34593383996427061743E-14
   -0.11753808182142053097E-14
    0.11420830462061786346E-14
    0.30323856089215428899E-15
   -0.72933472331915010540E-15
    0.20538867707302735088E-14
    0.61410893902483068630E-15
   -0.16400682903484281833E-14
    0.17463682642038172161E-14
   -0.18656018240710774817E-14
   -0.25433027692634792514E-14
   -0.36768868648973296044E-15
    0.26850522513570349209E-14
    0.83935176920232278364E-15
    0.26512746506521214704E-14
   -0.56515755710384109706E-15
   -0.90896362654547595807E-15
    0.32651492813077175475E-14
    0.22525172699097001426E-14
    0.37814541003233919456E-14
    0.51196910970449593643E-15
    0.45809183632332538979E-15
    0.48343751381635613596E-14
    0.16562020430709226966E-14
    0.87613864035843524429E-15
    0.22750244373288499483E-14
   -0.23168325093052389223E-14
   -0.39076702074658101904E-14
    0.15181852270808229762E-14
   -0.40681355285824831094E-15
   -0.15611814278862259025E-14
   -0.10716123848408266416E-14
    0.48359521600599465522E-15
    0.43883111687572453864E-14
    0.14296932236327680484E-15
    0.11725253737079099207E-14
    0.19122679744038102650E-14
   -0.71409531066651564290E-15
   -0.19881009074776522961E-14
   -0.15323273738980672912E-14
    0.14783209263527400214E-14
   -0.16132946134376307919E-14
   -0.51375095703707545798E-15
   -0.12812281780808771831E-14
   -0.12524580184818880739E-14
    0.15964551057547943469E-14
   -0.25392584180281834529E-14
    0.27480150520480849923E-14
   -0.30367360766503633120E-14
    0.12286609294898100876E-14
    0.21645222256610933548E-14
   -0.76434946786625104222E-15
   -0.49140381101134616851E-15
   -0.20273947575550174535E-14
   -0.13610975441064243350E-14
   -0.25153752369469760951E-14
    0.13146773347693080639E-14
    0.10843869850239042662E-14
    0.53242620484001037899E-15
   -0.24605706446541365061E-15
   -0.20215519626095592946E-14
   -0.20492528172519787834E-14
   -0.15757298755913142498E-14
    0.38641250413691422972E-14
   -0.22244461244696050255E-14
   -0.23441885594288305848E-14
   -0.10708779578896666515E-14
   -0.49970735653124268950E-15
    0.20856863095573203487E-15
   -0.14295748826376968387E-14
    0.39239273324921586543E-14
   -0.15034583349944208633E-14
    0.76425324131133487425E-15
    0.16501240711326458338E-14
    0.15605441838175441915E-14
    0.36121244010262173266E-14
   -0.96229977133059606419E-15
    0.23282691770493667728E-14
    0.47452204117275848214E-15
   -0.24339352140485768893E-14
    0.28352315918702273250E-14
   -0.98484128535897885653E-15
   -0.10443300670935176647E-14
    0.22703798866855690024E-14
    0.14609700260528440844E-14
    0.16494124262823535240E-15
    0.21000004352279182115E-14
   -0.10974104171887203598E-14
   -0.21660359969466972215E-14
   -0.39647278108020459618E-15
    0.53287276684555232913E-15
    0.14089098750208737269E-14
    0.50097761428752108738E-14
   -0.95796345222244368807E-15
   -0.50458530453574267463E-15
    0.14380045489399027480E-14
   -0.12047307728984664755E-14
   -0.17953706149067312113E-15
   -0.10783071644686533507E-14
   -0.12818503313574048449E-14
   -0.59362078437331233261E-16
    0.36601719112023183126E-15
   -0.30799220811765901635E-14
   -0.10681543864729865340E-14
    0.25775626069173046807E-14
    0.52536438821358485935E-15
   -0.30154262131166826096E-14
   -0.96106590223368529493E-15
   -0.16399939608976251795E-15
    0.28661731474571798554E-14
    0.13342275786928212224E-14
    0.16631720372373203557E-15
    0.74472846136646097038E-15
    0.18359648843130799080E-14
    0.20625464428469771243E-14
   -0.50438227767475784308E-15
    0.51083341961169449561E-15
    0.26012422868110976556E-14
    0.18212754240823282851E-14
   -0.49641430685711240925E-15
    0.99668046587671828798E-15
   -0.13288664433643060690E-14
    0.42239745980935044763E-15
   -0.19634653507680124777E-14
   -0.35993385787594192835E-14
   -0.19724615433957651915E-14
   -0.27971638734231861392E-14
    0.19410282180705482185E-14
   -0.70948061342145741045E-15
    0.33904162885430700065E-14
   -0.78636828351887401962E-15
    0.63650521981981611860E-15
   -0.44657312838202410206E-15
    0.87545253020830897172E-15
    0.21796678455162177276E-14
   -0.96104806867524247176E-15
    0.20368963178960463336E-14
    0.49684291358662973787E-15
    0.39893916066769680394E-14
    0.17570340036670704991E-15
    0.52731825967322795350E-15
    0.47626073215807577273E-15
   -0.19941135734914795549E-14
    0.23473572782835649297E-14
   -0.82696443207765257052E-15
   -0.43733823905676901857E-15
    0.17145278476600753279E-14
    0.26653671296949513180E-14
    0.17435461790849830281E-15
   -0.67434263136557457934E-15
    0.50953541990056125172E-15
    0.16707888832820576531E-14
    0.33788657911293695461E-14
    0.22333359521007515378E-15
    0.35616967505358070136E-14
   -0.31269994263871691399E-14
    0.13009317558877082328E-14
    0.13341342400950016044E-14
    0.17263415939037788419E-14
   -0.21796150008623510081E-14
    0.18337017380352913096E-14
   -0.12077642357082621022E-15
    0.46442033669991165114E-14
    0.49385197080457628981E-16
   -0.48939450263766221194E-14
    0.14996456036107582850E-15
    0.27918283766227714329E-14
   -0.41470030289414444964E-15
    0.14486188788676787833E-14
   -0.97396589381501325916E-15
   -0.34912556325543191409E-15
   -0.14922879436965418671E-14
   -0.36605120053509922496E-16
    0.33950459277624865242E-14
   -0.51491207653134225231E-14
   -0.22155849929301913817E-14
    0.18810827895263297322E-14
    0.18708243629983414794E-14
    0.75858041543102190544E-16
    0.30487110279739551314E-14
   -0.26518975967605887408E-16
    0.17252829143247354303E-14
   -0.38260399361230118893E-15
   -0.10041069723869422431E-14
    0.11512109264889264986E-14
    0.95853375288487057496E-15
    0.22486398426098889351E-14
   -0.56921236368813693845E-15
    0.50882145895233620207E-15
   -0.11343597252872948656E-14
   -0.12585374528801777086E-14
    0.28258115469337230795E-14
   -0.57226607732878872986E-15
    0.17203715215544850350E-14
    0.12703580714573849747E-14
   -0.37769991558470456041E-15
   -0.10193477006518076703E-14
   -0.20338394506919722512E-14
   -0.37953379874363170598E-15
   -0.53393317587933989920E-15
    0.53957330741278961804E-14
    0.91638749428191741529E-15
    0.33396926990511860556E-14
   -0.42248706342585737377E-15
   -0.10685831231656025038E-14
   -0.51895892157096428300E-15
    0.36489734408324759208E-15
    0.18604048263617308428E-14
   -0.17578236024655350388E-14
    0.11967725051212923557E-14
   -0.18698216745222127598E-14
    0.30892834232111543143E-14
   -0.11083428864339837147E-14
    0.43030295616059378969E-14
   -0.28567343943825741249E-14
    0.22170947642157330568E-15
   -0.22423767884399287056E-14
   -0.14872910235009250754E-15
    0.22413371760731304492E-14
    0.21650217571587489330E-14
    0.18266316043127005676E-14
   -0.26928935263439338270E-14
    0.43700695537114469013E-15
   -0.99528379070550197931E-16
    0.30402935189980292123E-14
    0.24306538029243360413E-14
   -0.15743647575378940567E-14
   -0.96746425342466485834E-15
   -0.62710742998715815035E-15
    0.14736808431513677374E-14
   -0.26926073321057338987E-14
    0.18585647817847902034E-14
   -0.24198609278019929851E-14
    0.14157886273988182618E-14
    0.49816538585927296302E-15
    0.56257164135285433620E-15
    0.78618979975634137478E-15
   -0.28140128378403781249E-14
   -0.11228389133650801702E-14
    0.88180076533082648254E-15
    0.11082083095798860848E-15
    0.35404445035184953330E-15
    0.12064949731406521832E-14
    0.11914342758454020519E-14
    0.40390774285519612233E-14
    0.13729666230385700518E-14
   -0.10185864821382856734E-14
    0.81318304677469641077E-15
   -0.16984816099783138656E-14
   -0.63119773382085291798E-15
    0.34224604284870605550E-14
   -0.64727076762616057619E-15
    0.34336984947954413051E-14
    0.28763019373577646950E-14
    0.30039505567194143736E-14
    0.33015598169873106035E-14
   -0.13891042690109436023E-14
    0.11735793500961739278E-14
   -0.13187003700419634983E-14
   -0.33029160636490543558E-14
   -0.15321725569482159945E-14
    0.20223584433929458503E-14
    0.32205902040350942328E-14
    0.34482318383497156956E-14
   -0.26406465315001210291E-14
    0.47104116984335692006E-16
   -0.16125145695193890197E-15
    0.18668952029138345576E-14
   -0.12017259035469407471E-14
    0.75302746262800855212E-15
   -0.10265094121156470452E-15
   -0.26303014509148209878E-14
   -0.53896422015492105522E-15
    0.15471363000061955228E-14
   -0.12359855428383566491E-14
    0.67059475218922277247E-15
   -0.19535694773534178167E-14
    0.96759075219239993397E-15
    0.26049675298305793566E-14
   -0.31940166261901958608E-14
   -0.16043081712243134711E-14
    0.38000138352930989949E-14
    0.64613848621423655699E-15
   -0.13063590139600580508E-14
   -0.23829471260198094243E-15
   -0.14860434425971045921E-14
   -0.13234388971049673172E-14
    0.13062396176713884834E-14
    0.12383008910128337641E-14
   -0.15887422401640286838E-14
   -0.23889105044217707824E-14
    0.71977213724421625794E-15
   -0.36066005519180693123E-14
    0.20412267944391301754E-14
   -0.86914710757889039048E-15
   -0.11837966254430939446E-14
    0.25862472970356191424E-14
    0.36171952213594721602E-14
    0.29969837350919036333E-15
   -0.28354823018597076918E-14
   -0.10779851389376072235E-15
    0.15654644240787317431E-14
   -0.45938593106221609795E-15
   -0.31394826648171134462E-14
    0.22858162313711306014E-14
   -0.35240865279757733250E-14
   -0.17540911399325895313E-15
   -0.80130239585268861449E-15
   -0.91000519497269875389E-15
    0.93328780863661645568E-15
    0.96282545300523142821E-15
   -0.21074830600459388435E-14
    0.12732407994753862100E-14
    0.58528128235174176009E-15
    0.10980631289316570822E-14
   -0.37343377411466837410E-14
    0.37502061909307059339E-15
    0.11019022993247157361E-14
    0.20428369071027762345E-14
    0.41899092077832188374E-15
    0.13023633814366485409E-14
    0.21289909381305989777E-14
    0.12936731236704019189E-15
   -0.48331753360569158692E-15
    0.11884656512682098251E-14
   -0.45846269654471179453E-15
   -0.18324066727264794390E-15
    0.27807223389518284099E-15
   -0.11975033751693927107E-14
    0.98413607266393788884E-15
   -0.63287288104128381364E-15
    0.10565993098259837702E-14
    0.10645881801824125881E-14
    0.12521715489091486541E-14
    0.40738211690353481336E-15
   -0.19986434211070860600E-14
   -0.49711486466120614936E-15
   -0.25876247910002318010E-14
    0.17496326447187043407E-14
    0.67278965742259351209E-15
   -0.53008034330628384943E-15
   -0.41164187169098702907E-14
    0.24163990913436089421E-14
    0.17637436129348103498E-14
   -0.19002310397272571851E-14
   -0.31357490145063066899E-14
    0.44268346126557130063E-14
    0.14230229183245981432E-14
    0.24087888405413424366E-14
    0.91646476588432533775E-15
   -0.49346287871841204708E-15
   -0.11708539428857894323E-14
    0.24789717198637552556E-14
    0.79362978574236976182E-15
    0.22407217157615070934E-15
    0.31991161273285636759E-15
   -0.14051259788961719332E-14
   -0.35451889351396651815E-14
   -0.18994785334315067978E-14
    0.11251083003037183164E-14
    0.36384951859922090688E-14
    0.69669903439862444853E-15
    0.17036303736108247884E-14
    0.18283807277617091498E-14
   -0.38577734139956478801E-15
   -0.19029807770380807899E-14
    0.10378862198227258751E-14
    0.15968021621308969015E-15
    0.62960777378057062381E-15
    0.38843290162935140909E-14
    0.12755762212178180269E-14
    0.15058220157097319582E-14
   -0.60238535349750096856E-16
    0.58042848533634112521E-15
    0.65513158369782855445E-15
    0.18704532463721051763E-15
   -0.19737682899240264190E-14
   -0.17468242126729576394E-14
    0.18860336064510119577E-14
    0.44934528099483311526E-14
   -0.71719458135539860900E-15
    0.13040094566163396698E-14
    0.36260839519061427730E-14
   -0.15567546762655281842E-14
    0.12156404517897004563E-14
   -0.62731325723501631345E-14
    0.91898904753981119064E-15
    0.87835017122179394099E-16
   -0.13776564940204110919E-14
    0.84200737034994661527E-15
    0.25155946643456373825E-14
   -0.36172490494989529563E-14
    0.27703590955129549118E-14
    0.20267917782361248344E-15
    0.68597516621943355162E-16
   -0.71186744492161773055E-15
    0.49908075247069675474E-15
    0.90908181491576586756E-15
    0.34466075306449954160E-14
    0.41115180788329820059E-15
    0.25417418455004979525E-15
    0.24056188716616949061E-14
    0.14397084117158197699E-14
    0.30917095058637900616E-14
   -0.29513938307900013240E-14
    0.11202364980623867054E-14
    0.56247596600900157103E-15
    0.21210111771557429851E-14
   -0.68292050758034476242E-15
   -0.29453638877669563385E-14
    0.16271357258329898137E-14
    0.98515636411206948716E-15
   -0.12734912466213301737E-15
   -0.35450204701869773696E-15
    0.22585762092315082749E-14
    0.59573193408779198087E-15
    0.27808378425086202133E-15
    0.24797579025756390113E-14
    0.16185160327395841997E-14
   -0.98190975595735425761E-16
   -0.24539876503569472276E-14
    0.19518278955281574533E-15
    0.22527944432261232492E-14
   -0.12187645144728372742E-14
   -0.13506789413256435595E-14
   -0.15206823438638119832E-14
    0.29843044609524996312E-15
    0.37162622284189970768E-14
    0.11836798604349865443E-14
    0.22755313121833392818E-14
    0.26356861521011211031E-14
   -0.44293916260265053321E-15
   -0.62754551270598098027E-16
   -0.83215504023954116632E-15
    0.16209100810764803111E-14
   -0.10866109831179501873E-14
    0.91478296898499328639E-15
   -0.25213656624501769051E-14
    0.38954897530289519092E-14
   -0.10924473053786022784E-14
    0.15331443741263122422E-15
    0.24561436748887490560E-15
    0.17716001023195591269E-14
   -0.19094029839917301836E-16
    0.58184589481065339271E-15
   -0.92931202765478016744E-15
   -0.28203843453243100811E-14
    0.23662041992974312139E-15
    0.26486714839515689832E-14
   -0.87753544618932196622E-16
    0.15692120496516405412E-14
   -0.21065163094719590268E-14
    0.24292341386114796510E-14
    0.22131458837389715585E-14
    0.28248831085667778794E-16
   -0.33043436783189169949E-14
   -0.11459560531784222607E-14
   -0.31613019838441463604E-14
    0.10128544435049250452E-15
    0.20069381057235099658E-15
   -0.15187903553859004099E-14
    0.67654796196096665048E-17
   -0.11991435639017688960E-14
    0.12501550712757674365E-14
   -0.10509300086134806177E-14
    0.10073372539572704588E-14
   -0.18294410305060765707E-14
   -0.70547508300604793548E-15
   -0.10943354604506365735E-14
    0.92502432550201589604E-15
    0.40367961988331456788E-14
    0.19459894272946133561E-14
    0.37874412402041071511E-14
    0.51442947867216973508E-14
   -0.33408931167187791837E-14
   -0.13814101144009383156E-14
   -0.30494557179945673095E-14
   -0.10549991015019041418E-14
    0.90617902933292939907E-15
    0.30421531031225262056E-14
   -0.16661338043036316782E-14
    0.21107684311372357527E-14
   -0.36975048164235584227E-14
   -0.92743892771835998705E-15
    0.11128326715921539148E-14
    0.69532147920136624789E-15
   -0.82343942612756625336E-15
   -0.24964148644150408871E-14
    0.24106021721439071689E-14
   -0.30594143932572561273E-14
    0.12768893446959024506E-14
    0.12491718757948249900E-15
    0.33696107944666471937E-15
    0.51043042106729440707E-15
   -0.16727081140728167353E-14
   -0.23968048242412622764E-14
    0.11934937439902013513E-14
    0.15301846367651923378E-14
   -0.48388956267516867402E-15
   -0.11091591798997900243E-14
   -0.11246916000884867717E-14
   -0.14695128273056962360E-14
    0.15007379855893532238E-14
   -0.18580486024621486232E-14
    0.99219937904165957051E-15
    0.23466723064903040980E-14
   -0.33817880592341101604E-15
    0.51158085084896586141E-15
   -0.20257304728112831301E-14
   -0.20177578598914660170E-14
    0.81632793962593751221E-15
    0.95136337685254638060E-16
   -0.25632841751019947349E-14
   -0.94513488820528734821E-15
   -0.17449105922196600150E-14
   -0.12845468317834424528E-14
   -0.37222593424673904450E-14
   -0.10294609225853346338E-14
    0.16722655587688258361E-14
   -0.18089777690500947867E-14
   -0.41195553511751341204E-15
   -0.12621030382279503745E-14
   -0.10889117178430813904E-14
   -0.16135827266538922318E-14
   -0.59265277439926247185E-14
   -0.15371337363042512561E-14
   -0.33788617870188426895E-15
    0.48640677206184105346E-15
   -0.39904371253631362800E-14
   -0.44860268713204405631E-15
    0.28952489027882608786E-14
    0.17533184837446995819E-14
    0.85637436649422754257E-15
   -0.17721486694600939879E-15
    0.19414837942328570788E-14
    0.10467494826719119149E-14
    0.13229561412391628353E-14
    0.12748990508033535050E-14
   -0.42541260383653661035E-14
   -0.15066238405985380692E-14
    0.38484883480735104039E-15
   -0.31311405346893743195E-14
    0.23492198452704991902E-14
   -0.99850717079815274494E-15
    0.10282108528441179316E-14
   -0.96929004300844926323E-15
    0.33635574529145809544E-14
    0.22221026774936688673E-14
    0.35962738018771320603E-14
    0.11239802240159975203E-14
   -0.77447582267888493605E-15
    0.31668186644059758040E-14
   -0.43876264393518901374E-15
    0.85300350294105836107E-15
   -0.19881222763414939704E-16
    0.19885529702152807294E-14
   -0.89097110676013204865E-15
    0.27172352448569775665E-15
    0.24733834481298546902E-14
   -0.51481943538997068150E-14
    0.19222496997317589733E-14
   -0.21882413477095975712E-14
    0.83033472341780343734E-15
    0.23629487937692477020E-14
    0.14892066095063606382E-14
   -0.43328631967094378970E-15
    0.14453015758986657572E-14
   -0.24989833543666121601E-14
   -0.30647400369671553941E-14
   -0.30006481399705024168E-15
   -0.30434237336811070793E-15
   -0.12176388803166655363E-14
   -0.29296220579978939868E-14
    0.25000226839409410757E-14
    0.93936742781681697951E-15
   -0.51739070814731409691E-15
    0.26721343709537562021E-15
   -0.91967800429678311162E-15
   -0.10440344183740901472E-14
    0.21084166377237677580E-14
   -0.36944056645332040874E-15
   -0.25295749094604563216E-14
    0.11523600182169420838E-14
    0.11042773190306076441E-14
    0.78157229712558125039E-15
   -0.19774139925974641498E-14
    0.87831304987858603412E-15
   -0.21404002103818029519E-14
   -0.12225542324623908033E-14
    0.75723590171863662855E-15
   -0.27078789651434527026E-14
    0.23904565584094047921E-14
    0.35791074319380998620E-14
   -0.84870311009788442267E-15
    0.17315641383566732845E-14
    0.13674795766533561808E-14
   -0.22535409942175352283E-15
    0.31363263810060884341E-14
    0.33185460072611437496E-14
    0.85354079267786892203E-15
   -0.11444481705574201827E-14
   -0.28506146108793648924E-14
    0.14609826565015472739E-14
   -0.21687708482791438960E-14
   -0.79398417692127844929E-16
    0.18670753806547544555E-15
    0.34417051587800587098E-14
    0.15855754110049607304E-15
    0.35346749036596714917E-14
    0.19785130533516693401E-14
   -0.44872309594199330941E-16
   -0.21719346484180669777E-14
    0.28043025697960200570E-14
    0.21320078900912409265E-14
    0.34100942654844984310E-14
   -0.12794819089054127846E-14
    0.19477906422421686287E-14
   -0.71350546146211962947E-15