# vtk DataFile Version 3.0
LAPLACIEN  2D
ASCII
DATASET UNSTRUCTURED_GRID
 POINTS        1616  float
  0.45880792999999997       0.87913892999999999        0.0000000000000000     
  0.40372658000000000       0.18243693000000000        0.0000000000000000     
  0.52563972999999997       0.19039755999999999        0.0000000000000000     
  0.45642953000000003       0.24226190000000000        0.0000000000000000     
  0.51984098000000001       0.24548566999999999        0.0000000000000000     
  0.21212766999999999       0.18957676000000001        0.0000000000000000     
  0.28573643999999998       0.48586826999999999        0.0000000000000000     
  0.49667887999999999       0.82979849000000006        0.0000000000000000     
  0.22848407000000001       0.23366793000000000        0.0000000000000000     
  0.27860389000000002       0.86069733000000004        0.0000000000000000     
  0.36563702999999997       0.80971340999999997        0.0000000000000000     
  0.28045499000000002       0.80393031999999998        0.0000000000000000     
  0.40374228000000001       0.78127665000000002        0.0000000000000000     
  0.56160891999999996       0.55341227999999998        0.0000000000000000     
  0.37210935000000001       0.26787699999999998        0.0000000000000000     
  0.49899838000000002       0.57286409999999999        0.0000000000000000     
  0.41023869000000002       0.33464665999999998        0.0000000000000000     
  0.33484156999999998       0.29151022999999998        0.0000000000000000     
  0.46758665999999999       0.58262307999999996        0.0000000000000000     
  0.43303693999999998       0.36569945999999998        0.0000000000000000     
  0.25741280000000000       0.61805882999999995        0.0000000000000000     
  0.28853707000000001       0.59423020000000004        0.0000000000000000     
  0.67837254000000002       0.45038665999999999        0.0000000000000000     
  0.42159046000000000       0.50697913999999999        0.0000000000000000     
  0.60276470999999998       0.73940291000000002        0.0000000000000000     
  0.30758273000000003       0.77844542000000005        0.0000000000000000     
  0.45367541000000000       0.31842187000000000        0.0000000000000000     
  0.36974101999999998       0.35807864000000000        0.0000000000000000     
  0.26919625000000003       0.65312176000000000        0.0000000000000000     
  0.61908110999999999       0.42741791000000001        0.0000000000000000     
  0.54442267000000000       0.74200747000000000        0.0000000000000000     
  0.58930464999999999       0.41588288000000001        0.0000000000000000     
  0.51511633000000001       0.74331579000000003        0.0000000000000000     
  0.12878382999999999       0.33122940000000001        0.0000000000000000     
  0.15534365000000000       0.71749246000000000        0.0000000000000000     
  0.64877724999999997       0.30161799000000000        0.0000000000000000     
  0.58853643000000000       0.28101930000000003        0.0000000000000000     
  0.56390348000000001       0.30132482999999999        0.0000000000000000     
  0.29605991999999998       0.44474459999999999        0.0000000000000000     
  0.29900669000000002       0.52983276000000001        0.0000000000000000     
  0.55954318999999997       0.48654808999999999        0.0000000000000000     
  0.42341458999999998       0.38785072999999998        0.0000000000000000     
  0.45806291999999998       0.35892998999999998        0.0000000000000000     
  0.47820750000000001       0.31147424000000001        0.0000000000000000     
  0.36344222999999998       0.38139388000000002        0.0000000000000000     
  0.17186508000000000       0.28159534000000003        0.0000000000000000     
  0.18029876000000000       0.33292397000000001        0.0000000000000000     
  0.20696366999999999       0.71822465999999996        0.0000000000000000     
  0.61326404999999995       0.34468346000000000        0.0000000000000000     
  0.29887186999999998       0.42337377999999998        0.0000000000000000     
  0.33271837999999998       0.44383096000000000        0.0000000000000000     
  0.31835012000000001       0.54267131999999996        0.0000000000000000     
  0.54882964999999995       0.45462609999999998        0.0000000000000000     
  0.20448143999999999       0.28717446000000002        0.0000000000000000     
  0.20634120000000000       0.33378063000000002        0.0000000000000000     
  0.23301781999999999       0.71859421999999995        0.0000000000000000     
  0.58606499999999995       0.35199907000000002        0.0000000000000000     
  0.20841100000000001       0.45369578999999999        0.0000000000000000     
  0.24778198000000001       0.77708496000000005        0.0000000000000000     
  0.30748062999999998       0.61002621000000001        0.0000000000000000     
  0.23337332000000000       0.41981835000000001        0.0000000000000000     
  0.25985113999999998       0.75924943000000000        0.0000000000000000     
  0.24610213000000000       0.40254353999999998        0.0000000000000000     
  0.37350351999999998       0.50127178999999999        0.0000000000000000     
  0.43235204999999999       0.78236391000000005        0.0000000000000000     
  0.30749858000000002       0.28582627999999999        0.0000000000000000     
  0.30336816000000000       0.64635111000000001        0.0000000000000000     
  0.31418906000000002       0.43625961000000002        0.0000000000000000     
  0.27223414000000001       0.78063022000000004        0.0000000000000000     
  0.22829299000000000       0.75089561000000005        0.0000000000000000     
  0.26580239000000000       0.42989294000000000        0.0000000000000000     
  0.37369119000000001       0.51975733999999996        0.0000000000000000     
  0.39681665999999999       0.51027884000000001        0.0000000000000000     
  0.32086795000000001       0.65137668999999998        0.0000000000000000     
  0.31757218999999998       0.62987181000000003        0.0000000000000000     
  0.32959777000000001       0.42500900000000003        0.0000000000000000     
  0.24663835000000001       0.74537787000000000        0.0000000000000000     
  0.26354222999999999       0.41075105000000001        0.0000000000000000     
  0.28343712999999998       0.43221330000000002        0.0000000000000000     
  0.34682245000000000       0.43182289000000001        0.0000000000000000     
  0.35306810000000000       0.45344571000000000        0.0000000000000000     
  0.57327218000000002       0.15829040000000000        0.0000000000000000     
  0.51473097999999995       0.12621746000000000        0.0000000000000000     
  0.72829681999999996       0.40151571000000003        0.0000000000000000     
  0.42703184999999999       0.53501600999999999        0.0000000000000000     
  0.32612607999999998       0.75472421999999995        0.0000000000000000     
   9.9814849999999997E-002  0.28081352999999998        0.0000000000000000     
  0.13945825000000001       0.78732252999999996        0.0000000000000000     
  0.44199519999999998       0.38275643999999998        0.0000000000000000     
  0.40132215999999998       0.36508836000000000        0.0000000000000000     
  0.43963142999999999       0.34043466999999999        0.0000000000000000     
  0.47160058999999999       0.33493045999999999        0.0000000000000000     
  0.45615203999999998       0.28038164999999998        0.0000000000000000     
  0.34321279999999998       0.35314412000000001        0.0000000000000000     
  0.29178279000000001       0.56170810000000004        0.0000000000000000     
  0.49833080000000002       0.48416767999999999        0.0000000000000000     
  0.46386271000000001       0.46452802999999998        0.0000000000000000     
  0.44722043000000000       0.45300645000000000        0.0000000000000000     
  0.46562803000000003       0.44419790999999997        0.0000000000000000     
  0.43925322000000000       0.48229485999999999        0.0000000000000000     
  0.49117628000000002       0.45665803999999999        0.0000000000000000     
  0.43435156000000003       0.46523363000000001        0.0000000000000000     
  0.19405754000000000       0.31093060000000000        0.0000000000000000     
  0.22069087000000001       0.66905079000000001        0.0000000000000000     
  0.30776597999999999       0.59042684000000001        0.0000000000000000     
  0.29541507000000000       0.57849362000000004        0.0000000000000000     
  0.28335474999999999       0.61970232999999997        0.0000000000000000     
  0.29935165000000002       0.62852803999999995        0.0000000000000000     
  0.28459435999999999       0.64121777000000002        0.0000000000000000     
  0.26698675999999999       0.63435282999999998        0.0000000000000000     
  0.24031983000000001       0.64700659000000005        0.0000000000000000     
  0.33118850000000000       0.50233682999999996        0.0000000000000000     
  0.35257061000000001       0.51072803000000000        0.0000000000000000     
  0.29038973000000001       0.78732479000000000        0.0000000000000000     
  0.28737915000000003       0.76752330999999996        0.0000000000000000     
  0.21978159000000000       0.73315437000000006        0.0000000000000000     
  0.18119734000000001       0.76257752999999995        0.0000000000000000     
  0.20353571000000001       0.75186065999999996        0.0000000000000000     
  0.39122694000000002       0.49007234000000000        0.0000000000000000     
  0.59140473999999998       0.13507609000000001        0.0000000000000000     
  0.53156702000000000        9.7663528999999999E-002   0.0000000000000000     
  0.76346223999999996       0.39657278000000001        0.0000000000000000     
  0.41119013999999998       0.52354409999999996        0.0000000000000000     
   7.2558165999999993E-002  0.26885883999999999        0.0000000000000000     
  0.10497347000000000       0.79895936000000001        0.0000000000000000     
[...]
 CELL_DATA        2963
 SCALARS Nutrients float
 LOOKUP_TABLE default
    0.25705271441247749209E+02
    0.24492164583145886070E+02
    0.22045609930923411923E+02
    0.23076290618237106145E+02
    0.22512691324560773154E+02
    0.26878305474913460671E+02
    0.23857953055381422303E+02
    0.22192409085596448648E+02
    0.24461246503045984468E+02
    0.15480477948256595511E+02
    0.24687971787525647471E+02
    0.21476959739666604321E+02
    0.20926668629844062508E+02
    0.23613244197226403998E+02
    0.24405910146065824762E+02
    0.20575831055884620469E+02
    0.15555053678547640317E+02
    0.23803598896561478426E+02
    0.27474469378608912251E+02
    0.20994328254306783066E+02
    0.23601883971576814503E+02
    0.16566955800971616242E+02
    0.16925549635124809811E+02
    0.21588359891407158386E+02
    0.19644067355497497829E+02
    0.31499365676573049200E+02
    0.19291640422654591447E+02
    0.27226688113657402823E+02
    0.22621136010058840782E+02
    0.16873827654855983127E+02
    0.24301766091882736731E+02
    0.23479813598171659805E+02
    0.22601605707154298841E+02
    0.18733617236377547499E+02
    0.19930024793799471894E+02
    0.18206767058400036063E+02
    0.21659565728849599964E+02
    0.18158239973081613527E+02
    0.18062915854245641611E+02
    0.23194487726209406020E+02
    0.17481494937671161694E+02
    0.22410719133663437930E+02
    0.21077001881332964928E+02
    0.17250643391503835744E+02
    0.24056894386430741406E+02
    0.16416089681509202336E+02
    0.18257264577415082130E+02
    0.23823501192100607682E+02
    0.16690849981767343024E+02
    0.24169817387411779208E+02
    0.17051723326836622618E+02
    0.15377175850501190624E+02
    0.15785097099883882876E+02
    0.15526477006803974135E+02
    0.21532811260944761500E+02
    0.20748255989611546823E+02
    0.17130032868647475652E+02
    0.16666465032697619364E+02
    0.15439668269233292719E+02
    0.21600458682008142119E+02
    0.15685977371640223765E+02
    0.25001937903248336426E+02
    0.25280806119345026417E+02
    0.23131439033046451215E+02
    0.21951592569209221750E+02
    0.16016844785970302922E+02
    0.20412918666490298847E+02
    0.15525426220634484409E+02
    0.21338956920470337764E+02
    0.23669490608870315640E+02
    0.17778304176870090458E+02
    0.15906749910314964325E+02
    0.18972931143583515734E+02
    0.18620864897882430711E+02
    0.15477237279111976775E+02
    0.15500926145483520102E+02
    0.16362065776688503149E+02
    0.15403788733075199247E+02
    0.15974509203190670803E+02
    0.16137633096840087177E+02
    0.23223975528519968492E+02
    0.16876952458276768709E+02
    0.15556203851331654064E+02
    0.15723234559746797956E+02
    0.17591956852413002110E+02
    0.24670416466381656306E+02
    0.27376296212981902300E+02
    0.21884406746889073503E+02
    0.20384956211398428394E+02
    0.27458621726858638112E+02
    0.20459341522392509916E+02
    0.16925453643103594459E+02
    0.17032503532705337790E+02
    0.16540841744341548747E+02
    0.18318895911582647074E+02
    0.17333890605733078161E+02
    0.16405118528288227253E+02
    0.20548745951111094143E+02
    0.16482778916244331668E+02
    0.20941109304902461474E+02
    0.19357100541568698304E+02
    0.20044723621060803964E+02
    0.16905035276137805766E+02
    0.20904738441711174346E+02
    0.22794321701765280608E+02
    0.25662130644844179272E+02
    0.21357785085831192617E+02
    0.27675155806416430693E+02
    0.16668384149111862058E+02
    0.21640568836661568497E+02
    0.23802590570221767052E+02
    0.20598216392033616984E+02
    0.18896604437716508329E+02
    0.21352590710401660345E+02
    0.24093714344814792128E+02
    0.20673469974319026221E+02
    0.27165063847514616668E+02
    0.25676305949578317467E+02
    0.15625508471879687278E+02
    0.15746723596905630060E+02
    0.20388179540783806232E+02
    0.24864239975312269593E+02
    0.15377331594113490709E+02
    0.18572454717032382376E+02
    0.15652933172984843324E+02
    0.19368525561739556196E+02
    0.27306283047905765216E+02
    0.16255894457841478129E+02
    0.25767742612621614029E+02
    0.15474417715304369381E+02
    0.17008674804189517715E+02
    0.16805422153293957166E+02
    0.22930707471144589960E+02
    0.16968203983345443220E+02
    0.20759721652312027373E+02
    0.15836831944820252360E+02
    0.15835858735992278667E+02
    0.27829779410184485755E+02
    0.22883435335056180548E+02
    0.25048779840509428851E+02
    0.15416829817086014742E+02
    0.17640678523410649348E+02
    0.20119765306442943142E+02
    0.15940385741540017861E+02
    0.16173149219596194115E+02
    0.17339492417040183625E+02
    0.24594735415192356953E+02
    0.17091085194189901131E+02
    0.21184906362733816110E+02
    0.19216125752785785608E+02
    0.22346530444314211650E+02
    0.20474622403184799424E+02
    0.16114498324556937092E+02
    0.17508919937084780116E+02
    0.18522426569553200437E+02
    0.15872823280724963624E+02
    0.15621975220489630942E+02
    0.18589039564004668392E+02
    0.18571949871582777547E+02
    0.18525049084899347207E+02
    0.18563959040364199637E+02
    0.19227789820082325178E+02
    0.18237833584564761225E+02
    0.20702092073835778763E+02
    0.21061651539376377684E+02
    0.16425095897104814213E+02
    0.15546421231455761713E+02
    0.16725879052608981112E+02
    0.15597146521154289900E+02
    0.16945233241381945533E+02
    0.15936945944186200919E+02
    0.18650602614867761275E+02
    0.16359099954385083464E+02
    0.17430730633792428819E+02
    0.15800068770089811920E+02
    0.15589135907176302709E+02
    0.22489031436752838999E+02
    0.20965616028439821861E+02
    0.23670857371111527101E+02
    0.15353765981865480583E+02
    0.15537278857164888990E+02
    0.17777003346361617275E+02
    0.18571828168885250676E+02
    0.20697319206516471723E+02
    0.15902942252096936571E+02
    0.16029066506863458130E+02
    0.21732030691636406772E+02
    0.30849084253331017891E+02
    0.15972022485396086822E+02
    0.17457959211104164154E+02
    0.23372863835414275258E+02
    0.22429418532451354196E+02
    0.27372616869389506888E+02
    0.15318418962086289170E+02
    0.22313592586729736666E+02
    0.15511505975067755969E+02
    0.22251824306529101705E+02
    0.17034453710810559812E+02
    0.19962415448224437142E+02
    0.15606782941746924820E+02
    0.17991971742303146442E+02
    0.17433827057302647034E+02
    0.22770734666560667137E+02
    0.17218832775594812290E+02
    0.17834035180270944920E+02
    0.17496216065102519366E+02
    0.17778679791335413540E+02
    0.17457568143188129994E+02
    0.21340119370502140583E+02
    0.15346172572195525774E+02
    0.15528072741517565447E+02
    0.16718731732512452481E+02
    0.17303077460707136481E+02
    0.23410060676945619207E+02
    0.24540980790309099291E+02
    0.21518170403308765515E+02
    0.18813600057096660834E+02
    0.21685753018139823922E+02
    0.23081313304414511123E+02
    0.15847870748498419147E+02
    0.24126320114588594379E+02
    0.24288775550797968350E+02
    0.27127644400074274245E+02
    0.15461175348802319363E+02
    0.15574363595132124871E+02
    0.23573186733333486131E+02
    0.25651569219585585557E+02
    0.17077923843828017425E+02
    0.17039264341840873129E+02
    0.20990990680499344023E+02
    0.16831194258953900089E+02
    0.19034556040727263593E+02
    0.21417144144281941465E+02
    0.22536282678871209839E+02
    0.20131221885549404504E+02
    0.21562992359317178170E+02
    0.26309745848485114550E+02
    0.22617519092182639895E+02
    0.17808724079254659500E+02
    0.20705827841391407418E+02
    0.15759387384341492222E+02
    0.17062500632599217454E+02
    0.23642577472338107469E+02
    0.22417888968682749606E+02
    0.16334509300298396539E+02
    0.31604958944029860390E+02
    0.21941865890555497742E+02
    0.16204551582522618958E+02
    0.31157505359087426910E+02
    0.21911144457219752013E+02
    0.15687057911727174897E+02
    0.21578428047041779081E+02
    0.30552789950655743212E+02
    0.19994278500263536813E+02
    0.17149250212488936995E+02
    0.19265126372871719695E+02
    0.17397485054568726071E+02
    0.30775616670288698629E+02
    0.16079004650627624073E+02
    0.20258598060702531996E+02
    0.15914114874723940929E+02
    0.15802452151459185359E+02
    0.15701245349984990440E+02
    0.16794747569805430487E+02
    0.16592538528624547922E+02
    0.15525292123256795307E+02
    0.19352322114857702928E+02
    0.15942162229522931938E+02
    0.17875722718115746090E+02
    0.17164935124839040270E+02
    0.21461072344465847550E+02
    0.22090897199313850763E+02
    0.16105406527869849498E+02
    0.17475811126327094769E+02
    0.17655820828110481813E+02
    0.23471515390623878261E+02
    0.17356441092659981251E+02
    0.21015725503085036507E+02
    0.15314061648203120214E+02
    0.17257081390208441007E+02
    0.25837510064473665494E+02
    0.16456166633674754962E+02
    0.21958403436273318476E+02
    0.19484798426892773193E+02
    0.17299661931932142522E+02
    0.15418767052906989790E+02
    0.22325403687662717545E+02
    0.17297326271556400457E+02
    0.30557772292941461245E+02
    0.19705000872985376503E+02
    0.19801405515167843419E+02
    0.19728240994513480899E+02
    0.19231117696262817418E+02
    0.22700539509953905792E+02
    0.17531787465562054251E+02
    0.23885882886226578847E+02
    0.17145292401521139425E+02
    0.18804506092257920358E+02
    0.18700013934994693443E+02
    0.18441591075828615232E+02
    0.18256359008502055730E+02
    0.18435704165521784148E+02
    0.19921009060688454895E+02
    0.25962414840396245808E+02
    0.23343387174380076488E+02
    0.15439158708850067470E+02
    0.17339738295334768736E+02
    0.17159778695924295278E+02
    0.17039271538002658701E+02
    0.21918766993762947237E+02
    0.15649797822243806777E+02
    0.17754642028464978409E+02
    0.22963428577940295128E+02
    0.17621366845506113208E+02
    0.22045404111430613625E+02
    0.25829307007425800435E+02
    0.17208490107779457645E+02
    0.27013129605545188383E+02
    0.26320530843602156779E+02
    0.20967491843069794299E+02
    0.20734782205945332834E+02
    0.19933924419578723075E+02
    0.20899645414348302808E+02
    0.20348761803705812667E+02
    0.24981147789242850621E+02
    0.20709328387792712789E+02
    0.22415800205739714102E+02
    0.20961451566476810626E+02
    0.23364890679971562548E+02
    0.26278867271275412776E+02
    0.15617858822145736397E+02
    0.15862029795293162593E+02
    0.24759975753091037376E+02
    0.24188626872843904891E+02
    0.17619494388005971786E+02
    0.17314960531020577861E+02
    0.16860820980525303980E+02
    0.20404776634308948502E+02
    0.24294638196615352399E+02
    0.20125882406593763818E+02
    0.20835466377362113377E+02
    0.25294888387476007097E+02
    0.29166058096835762115E+02
    0.20522120469276611487E+02
    0.15642432000453830199E+02
    0.17576579197289039058E+02
    0.16508450282873312176E+02
    0.20712795419231689209E+02
    0.19711901920020213907E+02
    0.26588046311744367500E+02
    0.26092323415276162279E+02
    0.23148510037337260314E+02
    0.22833186366688472901E+02
    0.15735446611510738535E+02
    0.15471945940492631166E+02
    0.15461784306594438476E+02
    0.16042789350012171212E+02
    0.15832608726156662371E+02
    0.16186882792037931011E+02
    0.16499989149119155485E+02
    0.16058128065745933100E+02
    0.16409566036355716534E+02
    0.18125785034897852199E+02
    0.16763444184964214401E+02
    0.15543772078682238202E+02
    0.16292871070734712191E+02
    0.17247055767152506434E+02
    0.16877592246321707847E+02
    0.20201390922660820593E+02
    0.16758738641544169923E+02
    0.17609111683172255169E+02
    0.16950328139706684283E+02
    0.17307320859680174863E+02
    0.17159892330165707364E+02
    0.18067299446539642815E+02
    0.18382646133047980896E+02
    0.17605179030121639983E+02
    0.16432455800059162954E+02
    0.17889062991325054952E+02
    0.18892279560170123887E+02
    0.17213603760240236085E+02
    0.16524281667363265313E+02
    0.21893274818389613756E+02
    0.21466981557001197700E+02
    0.21056306708132925820E+02
    0.18740521022144623231E+02
    0.16713561315799939422E+02
    0.16491245567179483089E+02
    0.17251023166966334088E+02
    0.16487043416918730543E+02
    0.16974819031557924376E+02
    0.17338716476412198375E+02
    0.17267825774938341254E+02
    0.17082988197412610987E+02
    0.17423263165574606859E+02
    0.17891396610479404217E+02
    0.19252886609355805092E+02
    0.17727732354891532651E+02
    0.26515846898677946086E+02
    0.18288597037143475177E+02
    0.15861065253248620266E+02
    0.15495850847285970175E+02
    0.15542660831482363548E+02
    0.15517347842349051845E+02
    0.21283625281546733277E+02
    0.21282011900257970183E+02
    0.21014646404587079331E+02
    0.20137981992823039690E+02
    0.21243605711141434256E+02
    0.22015173775009632351E+02
    0.22289828641145692956E+02
    0.25347150123007853750E+02
    0.22250366369243074871E+02
    0.24241487152462401156E+02
    0.15597156702193665012E+02
    0.15805808262154759092E+02
    0.27271367508043169892E+02
    0.15416962005455658868E+02
    0.23479707249253639390E+02
    0.24149265564169908771E+02
    0.22630292209839197426E+02
    0.30578115767588528229E+02
    0.31033452051131206417E+02
    0.16250362411017615472E+02
    0.16069018599434262029E+02
    0.26748727211430455952E+02
    0.19788053440077778333E+02
    0.27015992870214081023E+02
    0.26984492373346650851E+02
    0.25842159702167695201E+02
    0.15674561552174015588E+02
    0.15633495913344869876E+02
    0.15435888653064541387E+02
    0.15696342390227234986E+02
    0.15980334244039704927E+02
    0.15644205623096198110E+02
    0.15475755627107298906E+02
    0.15315403682684571862E+02
    0.15342952465302003517E+02
    0.15309595773625549242E+02
    0.15411266752639738442E+02
    0.15386678901396120267E+02
    0.16324479541887189527E+02
    0.17025694054675490463E+02
    0.16170686545847953397E+02
    0.16140752247439600353E+02
    0.16349561020691396607E+02
    0.16290298655163347519E+02
    0.16751021560304380387E+02
    0.17808259076460284831E+02
    0.16619267394997468301E+02
    0.18474577277981026668E+02
    0.18123663554043009327E+02
    0.18796175960161875196E+02
    0.15479841423332489470E+02
    0.15684958900689057515E+02
    0.16088451890681678691E+02
    0.16629796186260374924E+02
    0.16397432076996246053E+02
    0.16348784405454505730E+02
    0.19713456210166683036E+02
    0.18519570529599274522E+02
    0.20218256083363087328E+02
    0.19243933509703101237E+02
    0.22608628565627753915E+02
    0.24214491247986323685E+02
    0.21937634562870055532E+02
    0.22181213954602977623E+02
    0.21232730324134703181E+02
    0.21047600274719908242E+02
    0.22643273198153114123E+02
    0.19448372762266824765E+02
    0.17770900576853119190E+02
    0.17605219270662445297E+02
    0.19304053208496991800E+02
    0.21360720795688227014E+02
    0.18495718671423077240E+02
    0.17944498642227419083E+02
    0.18485664265070901990E+02
    0.16757864454426186995E+02
    0.17980683239806236173E+02
    0.17629264657941327243E+02
    0.15995571216759726596E+02
    0.15578395907072746240E+02
    0.16300125702960084340E+02
    0.16076332053960285862E+02
    0.15675683274208401130E+02
    0.15579449213184675571E+02
    0.15689983993891750913E+02
    0.15931920513016342156E+02
    0.15717688584507962801E+02
    0.15721424911326977281E+02
    0.19940905688082100511E+02
    0.20013001311213994171E+02
    0.23101430879338376911E+02
    0.23200482913663240225E+02
    0.22175453829220625579E+02
    0.22407456878264053302E+02
    0.16179832197519694148E+02
    0.16439322499019805690E+02
    0.23818854610875387579E+02
    0.24344424647660154903E+02
    0.23435258277741191080E+02
    0.31481495663664951223E+02
    0.31055674622121124173E+02
    0.27529986288470965405E+02
    0.27294763921701765241E+02
    0.27278460638106846403E+02
    0.15987471770587898590E+02
    0.17531451250365158501E+02
    0.16790604167572318772E+02
    0.17792887383220673314E+02
    0.20470655605347666040E+02
    0.20422136231010927787E+02
    0.19985324596892272808E+02
    0.19557414068741273638E+02
    0.22342600744466206919E+02
    0.22459709166366607747E+02
    0.21408307949119567581E+02
    0.21332005809144718000E+02
    0.20150991748410778115E+02
    0.19714694245488587399E+02
    0.20478995713207794438E+02
    0.19239356772865644274E+02
    0.17634437450790059643E+02
    0.17119405269227186750E+02
    0.18370457318557075865E+02
    0.17403866720564277415E+02
    0.17680076366868618720E+02
    0.16275774802482679604E+02
    0.17146645329712217887E+02
    0.16791198487388982130E+02
    0.15551299583550987293E+02
    0.15712044111796361179E+02
    0.15457880165486344026E+02
    0.15615170828105116030E+02
    0.15480841418425988820E+02
    0.15420890722680102414E+02
    0.16109800202912449407E+02
    0.15655567175785924050E+02
    0.16376946293015276268E+02
    0.16041501949043336595E+02
    0.16650996401988088280E+02
    0.18225934689905912478E+02
    0.16499071500882354968E+02
    0.16374173366209763714E+02
    0.16592466926423455220E+02
    0.16820495624539187673E+02
    0.24202980409356264602E+02
    0.24139897107971531653E+02
    0.22682568208655801811E+02
    0.27564017955836121132E+02
    0.25716480525571572713E+02
    0.24506959692477071400E+02
    0.23450165249205859652E+02
    0.25117273380832571661E+02
    0.24817074081765682081E+02
    0.24196162620361601370E+02
    0.22002693140455782839E+02
    0.22934134387303330982E+02
    0.23683061400193686552E+02
    0.22522520408126563751E+02
    0.15839397252648396375E+02
    0.16679450184791868139E+02
    0.16996393190555217245E+02
    0.17246127583292487628E+02
    0.17024853820275019700E+02
    0.18308158209751251633E+02
    0.17841567989070515665E+02
    0.17113401215003168687E+02
    0.20515204716309970223E+02
    0.19729598498061410083E+02
    0.18104303705239146893E+02
    0.19497691005745398485E+02
    0.18666760250494888851E+02
    0.18328628878664648738E+02
    0.19369491895742658727E+02
    0.21014968034467798930E+02
    0.20232569810352195816E+02
    0.18838755007380196815E+02
    0.16205923199939594070E+02
    0.18330338727573014523E+02
    0.17497696016130845464E+02
    0.18604231013665000205E+02
    0.18346392025863895725E+02
    0.17672728207058092664E+02
    0.18745451495711307643E+02
    0.19223343186734062726E+02
    0.17063093169797291182E+02
    0.16946157946912322245E+02
    0.17431347385828726004E+02
    0.16724514380267454072E+02
    0.18162526470598194805E+02
    0.16959102113136143686E+02
    0.16580423312314298556E+02
    0.16371320993214467876E+02
    0.16738188214540556942E+02
    0.16567200615830014243E+02
    0.15658284620267201248E+02
    0.15519847874024927492E+02
    0.15448459871370864960E+02
    0.15482101068760323770E+02
    0.15546060085487106051E+02
    0.15505383990796911320E+02
    0.15728888042008019710E+02
    0.15909863104017775370E+02
    0.25836969705100703010E+02
    0.26598775936812984355E+02
    0.16319925299588042833E+02
    0.16754915080524781956E+02
    0.18859819618096377525E+02
    0.18086794244060566683E+02
    0.21251662763355810171E+02
    0.18262715833260870113E+02
    0.18401595671106008467E+02
    0.17036253982186305933E+02
    0.19490419042431543772E+02
    0.18746637167388865208E+02
    0.24632755605524405240E+02
    0.23577205339825912489E+02
    0.17961723634563970364E+02
    0.18502610255346450430E+02
    0.26183606686707797451E+02
    0.24950692528059974507E+02
    0.27354925803168228526E+02
    0.26346705706371043476E+02
    0.25587619211232063066E+02
    0.23601474997496190156E+02
    0.18700397297148413145E+02
    0.19463687717374202890E+02
    0.18518340689209455974E+02
    0.18723936658800337085E+02
    0.18782283582506995145E+02
    0.18684647912981116491E+02
    0.19267274749062639927E+02
    0.18932657721948672247E+02
    0.18076393912520671847E+02
    0.19291481028095748940E+02
    0.17198297537211448827E+02
    0.18081523805288696849E+02
    0.18418799061939232331E+02
    0.19836756624239285429E+02