# vtk DataFile Version 3.0
LAPLACIEN  2D
ASCII
DATASET UNSTRUCTURED_GRID
 POINTS        1616  float
  0.45880792999999997       0.87913892999999999        0.0000000000000000     
  0.40372658000000000       0.18243693000000000        0.0000000000000000     
  0.52563972999999997       0.19039755999999999        0.0000000000000000     
  0.45642953000000003       0.24226190000000000        0.0000000000000000     
  0.51984098000000001       0.24548566999999999        0.0000000000000000     
  0.21212766999999999       0.18957676000000001        0.0000000000000000     
  0.28573643999999998       0.48586826999999999        0.0000000000000000     
  0.49667887999999999       0.82979849000000006        0.0000000000000000     
  0.22848407000000001       0.23366793000000000        0.0000000000000000     
  0.27860389000000002       0.86069733000000004        0.0000000000000000     
  0.36563702999999997       0.80971340999999997        0.0000000000000000     
  0.28045499000000002       0.80393031999999998        0.0000000000000000     
  0.40374228000000001       0.78127665000000002        0.0000000000000000     
  0.56160891999999996       0.55341227999999998        0.0000000000000000     
  0.37210935000000001       0.26787699999999998        0.0000000000000000     
  0.49899838000000002       0.57286409999999999        0.0000000000000000     
  0.41023869000000002       0.33464665999999998        0.0000000000000000     
  0.33484156999999998       0.29151022999999998        0.0000000000000000     
  0.46758665999999999       0.58262307999999996        0.0000000000000000     
  0.43303693999999998       0.36569945999999998        0.0000000000000000     
  0.25741280000000000       0.61805882999999995        0.0000000000000000     
  0.28853707000000001       0.59423020000000004        0.0000000000000000     
  0.67837254000000002       0.45038665999999999        0.0000000000000000     
  0.42159046000000000       0.50697913999999999        0.0000000000000000     
  0.60276470999999998       0.73940291000000002        0.0000000000000000     
  0.30758273000000003       0.77844542000000005        0.0000000000000000     
  0.45367541000000000       0.31842187000000000        0.0000000000000000     
  0.36974101999999998       0.35807864000000000        0.0000000000000000     
  0.26919625000000003       0.65312176000000000        0.0000000000000000     
  0.61908110999999999       0.42741791000000001        0.0000000000000000     
  0.54442267000000000       0.74200747000000000        0.0000000000000000     
  0.58930464999999999       0.41588288000000001        0.0000000000000000     
  0.51511633000000001       0.74331579000000003        0.0000000000000000     
  0.12878382999999999       0.33122940000000001        0.0000000000000000     
  0.15534365000000000       0.71749246000000000        0.0000000000000000     
  0.64877724999999997       0.30161799000000000        0.0000000000000000     
  0.58853643000000000       0.28101930000000003        0.0000000000000000     
  0.56390348000000001       0.30132482999999999        0.0000000000000000     
  0.29605991999999998       0.44474459999999999        0.0000000000000000     
  0.29900669000000002       0.52983276000000001        0.0000000000000000     
  0.55954318999999997       0.48654808999999999        0.0000000000000000     
  0.42341458999999998       0.38785072999999998        0.0000000000000000     
  0.45806291999999998       0.35892998999999998        0.0000000000000000     
  0.47820750000000001       0.31147424000000001        0.0000000000000000     
  0.36344222999999998       0.38139388000000002        0.0000000000000000     
  0.17186508000000000       0.28159534000000003        0.0000000000000000     
  0.18029876000000000       0.33292397000000001        0.0000000000000000     
  0.20696366999999999       0.71822465999999996        0.0000000000000000     
  0.61326404999999995       0.34468346000000000        0.0000000000000000     
  0.29887186999999998       0.42337377999999998        0.0000000000000000     
  0.33271837999999998       0.44383096000000000        0.0000000000000000     
  0.31835012000000001       0.54267131999999996        0.0000000000000000     
  0.54882964999999995       0.45462609999999998        0.0000000000000000     
  0.20448143999999999       0.28717446000000002        0.0000000000000000     
  0.20634120000000000       0.33378063000000002        0.0000000000000000     
  0.23301781999999999       0.71859421999999995        0.0000000000000000     
  0.58606499999999995       0.35199907000000002        0.0000000000000000     
  0.20841100000000001       0.45369578999999999        0.0000000000000000     
  0.24778198000000001       0.77708496000000005        0.0000000000000000     
  0.30748062999999998       0.61002621000000001        0.0000000000000000     
  0.23337332000000000       0.41981835000000001        0.0000000000000000     
  0.25985113999999998       0.75924943000000000        0.0000000000000000     
  0.24610213000000000       0.40254353999999998        0.0000000000000000     
  0.37350351999999998       0.50127178999999999        0.0000000000000000     
  0.43235204999999999       0.78236391000000005        0.0000000000000000     
  0.30749858000000002       0.28582627999999999        0.0000000000000000     
  0.30336816000000000       0.64635111000000001        0.0000000000000000     
  0.31418906000000002       0.43625961000000002        0.0000000000000000     
  0.27223414000000001       0.78063022000000004        0.0000000000000000     
  0.22829299000000000       0.75089561000000005        0.0000000000000000     
  0.26580239000000000       0.42989294000000000        0.0000000000000000     
  0.37369119000000001       0.51975733999999996        0.0000000000000000     
  0.39681665999999999       0.51027884000000001        0.0000000000000000     
  0.32086795000000001       0.65137668999999998        0.0000000000000000     
  0.31757218999999998       0.62987181000000003        0.0000000000000000     
  0.32959777000000001       0.42500900000000003        0.0000000000000000     
  0.24663835000000001       0.74537787000000000        0.0000000000000000     
  0.26354222999999999       0.41075105000000001        0.0000000000000000     
  0.28343712999999998       0.43221330000000002        0.0000000000000000     
  0.34682245000000000       0.43182289000000001        0.0000000000000000     
  0.35306810000000000       0.45344571000000000        0.0000000000000000     
  0.57327218000000002       0.15829040000000000        0.0000000000000000     
  0.51473097999999995       0.12621746000000000        0.0000000000000000     
  0.72829681999999996       0.40151571000000003        0.0000000000000000     
  0.42703184999999999       0.53501600999999999        0.0000000000000000     
  0.32612607999999998       0.75472421999999995        0.0000000000000000     
   9.9814849999999997E-002  0.28081352999999998        0.0000000000000000     
  0.13945825000000001       0.78732252999999996        0.0000000000000000     
  0.44199519999999998       0.38275643999999998        0.0000000000000000     
  0.40132215999999998       0.36508836000000000        0.0000000000000000     
  0.43963142999999999       0.34043466999999999        0.0000000000000000     
  0.47160058999999999       0.33493045999999999        0.0000000000000000     
  0.45615203999999998       0.28038164999999998        0.0000000000000000     
  0.34321279999999998       0.35314412000000001        0.0000000000000000     
  0.29178279000000001       0.56170810000000004        0.0000000000000000     
  0.49833080000000002       0.48416767999999999        0.0000000000000000     
  0.46386271000000001       0.46452802999999998        0.0000000000000000     
  0.44722043000000000       0.45300645000000000        0.0000000000000000     
  0.46562803000000003       0.44419790999999997        0.0000000000000000     
  0.43925322000000000       0.48229485999999999        0.0000000000000000     
  0.49117628000000002       0.45665803999999999        0.0000000000000000     
  0.43435156000000003       0.46523363000000001        0.0000000000000000     
  0.19405754000000000       0.31093060000000000        0.0000000000000000     
  0.22069087000000001       0.66905079000000001        0.0000000000000000     
  0.30776597999999999       0.59042684000000001        0.0000000000000000     
  0.29541507000000000       0.57849362000000004        0.0000000000000000     
  0.28335474999999999       0.61970232999999997        0.0000000000000000     
  0.29935165000000002       0.62852803999999995        0.0000000000000000     
  0.28459435999999999       0.64121777000000002        0.0000000000000000     
  0.26698675999999999       0.63435282999999998        0.0000000000000000     
  0.24031983000000001       0.64700659000000005        0.0000000000000000     
  0.33118850000000000       0.50233682999999996        0.0000000000000000     
  0.35257061000000001       0.51072803000000000        0.0000000000000000     
  0.29038973000000001       0.78732479000000000        0.0000000000000000     
  0.28737915000000003       0.76752330999999996        0.0000000000000000     
  0.21978159000000000       0.73315437000000006        0.0000000000000000     
  0.18119734000000001       0.76257752999999995        0.0000000000000000     
  0.20353571000000001       0.75186065999999996        0.0000000000000000     
  0.39122694000000002       0.49007234000000000        0.0000000000000000     
  0.59140473999999998       0.13507609000000001        0.0000000000000000     
  0.53156702000000000        9.7663528999999999E-002   0.0000000000000000     
  0.76346223999999996       0.39657278000000001        0.0000000000000000     
  0.41119013999999998       0.52354409999999996        0.0000000000000000     
   7.2558165999999993E-002  0.26885883999999999        0.0000000000000000     
  0.10497347000000000       0.79895936000000001        0.0000000000000000     
[...]
 CELL_DATA        2963
 SCALARS Nutrients float
 LOOKUP_TABLE default
    0.25705225188127709401E+02
    0.24490057281357344721E+02
    0.22045263623282181698E+02
    0.23075596728969717475E+02
    0.22511714022791792900E+02
    0.26878162279164197201E+02
    0.23857852614760979293E+02
    0.22190410669419165401E+02
    0.24461229916116192129E+02
    0.15463358772827476173E+02
    0.24687405391872459859E+02
    0.21476494565082198562E+02
    0.20926468772717207401E+02
    0.23612469433528911367E+02
    0.24405885882791732655E+02
    0.20575656796790514846E+02
    0.15541366237526210270E+02
    0.23803366695341278358E+02
    0.27474299063452619407E+02
    0.20993300782488507394E+02
    0.23601285644864926638E+02
    0.16536911521239264999E+02
    0.16894910610848263843E+02
    0.21587275424155500048E+02
    0.19641804345792088782E+02
    0.31481540047531048288E+02
    0.19289077778932810503E+02
    0.27226554700672728870E+02
    0.22620763985472340352E+02
    0.16872369983791376313E+02
    0.24286680603003254930E+02
    0.23479786659235006852E+02
    0.22600847794765229537E+02
    0.18730359098555901198E+02
    0.19928462116914609226E+02
    0.18203596968413219059E+02
    0.21658985564489007913E+02
    0.18154236812306940863E+02
    0.18062787649039293569E+02
    0.23114478289258549637E+02
    0.17481341866030554399E+02
    0.22409895730919490831E+02
    0.21075422008235690896E+02
    0.17248772807969423582E+02
    0.24056870732548848224E+02
    0.16408694150066061468E+02
    0.18257134295217902320E+02
    0.23823436633193566081E+02
    0.16689550628600287041E+02
    0.24169787923426156340E+02
    0.17045855769067774332E+02
    0.15376967206983934489E+02
    0.15784916164415475848E+02
    0.15526074561110569050E+02
    0.21532446302290203732E+02
    0.20737485582125390948E+02
    0.17129884022010227085E+02
    0.16662414585420432189E+02
    0.15428205306276236541E+02
    0.21600288681029553572E+02
    0.15675857284526212965E+02
    0.25000893364555430765E+02
    0.25280763062143119413E+02
    0.23131408298832944581E+02
    0.21951065315853480087E+02
    0.16008137750118660136E+02
    0.20409779290565783327E+02
    0.15514732802775291987E+02
    0.21255191991229050785E+02
    0.23669308126982883778E+02
    0.17778172101340313560E+02
    0.15897489499654449574E+02
    0.18972454174219159029E+02
    0.18619961683821848908E+02
    0.15460726033485176600E+02
    0.15484147898356104278E+02
    0.16333520444141623074E+02
    0.15390462765477231244E+02
    0.15974303621908294559E+02
    0.16129446881692501847E+02
    0.23223930942991582782E+02
    0.16870681338289454487E+02
    0.15545406404172002368E+02
    0.15700737266862109465E+02
    0.17589226752099641260E+02
    0.24669823726008441866E+02
    0.27375976666289943751E+02
    0.21883188105566091508E+02
    0.20383383453277552633E+02
    0.27458556881709682784E+02
    0.20458565783402562488E+02
    0.16919317982210600348E+02
    0.16995043000328969640E+02
    0.16536223449764477778E+02
    0.18317241893126364971E+02
    0.17329953256483680235E+02
    0.16376093570279810052E+02
    0.20548098342440912489E+02
    0.16481753474820493466E+02
    0.20940829279499432403E+02
    0.19356818408724056013E+02
    0.20043773459906848444E+02
    0.16898990713373603256E+02
    0.20904237021936989294E+02
    0.22752089367695113253E+02
    0.25661994679907483174E+02
    0.21357282785469159592E+02
    0.27675088954490057347E+02
    0.16661655955162945730E+02
    0.21640296985325100820E+02
    0.23802332963084385398E+02
    0.20597982350383055916E+02
    0.18896483649345867661E+02
    0.21352371042242669574E+02
    0.24093645276457888116E+02
    0.20673260369594995467E+02
    0.27165030405110027090E+02
    0.25676269118802327540E+02
    0.15604674874733428069E+02
    0.15735845300077464515E+02
    0.20387955570702459340E+02
    0.24864141318866387564E+02
    0.15376972579624499815E+02
    0.18568997088027970221E+02
    0.15652744522649912895E+02
    0.19365874363998813124E+02
    0.27306121799000937500E+02
    0.16247982963737886308E+02
    0.25742581103110254048E+02
    0.15462724301711931574E+02
    0.17006189922158686301E+02
    0.16801502996778925336E+02
    0.22843763474535705882E+02
    0.16965620712178768770E+02
    0.20747872263613480470E+02
    0.15827074587256241500E+02
    0.15825980890523794642E+02
    0.27814678964200972189E+02
    0.22883304466835902247E+02
    0.25026214139749633603E+02
    0.15405010659111876947E+02
    0.17638601836809574053E+02
    0.20052321092395015256E+02
    0.15931652686360122217E+02
    0.16165961182764114312E+02
    0.17337310759841773944E+02
    0.24594302628641909081E+02
    0.17088697432073391980E+02
    0.21184726106547117297E+02
    0.19197374886924674087E+02
    0.22345767844864877105E+02
    0.20410466321372560117E+02
    0.16106705052960951008E+02
    0.17506858780648073548E+02
    0.18522033443052752233E+02
    0.15872221923706119284E+02
    0.15621702884720974680E+02
    0.18588576757551908969E+02
    0.18571592550863627480E+02
    0.18524681379791424263E+02
    0.18563538786672744152E+02
    0.19227469566687819480E+02
    0.18235974530294324580E+02
    0.20690462191720232710E+02
    0.21061333387445554166E+02
    0.16418857761704455100E+02
    0.15546203124535947993E+02
    0.16722252676641062408E+02
    0.15577629959537061310E+02
    0.16942564650329533293E+02
    0.15911473067580455876E+02
    0.18650250478519829755E+02
    0.16358086241173690922E+02
    0.17425595521830118173E+02
    0.15799453388922346520E+02
    0.15588647985309890487E+02
    0.22488005348991830346E+02
    0.20965206282497252488E+02
    0.23670227794649292719E+02
    0.15353544264434084710E+02
    0.15519246083539792735E+02
    0.17774901233509766030E+02
    0.18568120988888164646E+02
    0.20697061522135772549E+02
    0.15902257733506381499E+02
    0.16028300006156321444E+02
    0.21722230041009645163E+02
    0.30834159365069339742E+02
    0.15963225249903246095E+02
    0.17457817487472837570E+02
    0.23371494465361369208E+02
    0.22334859562409491218E+02
    0.27372397573070220034E+02
    0.15318157019207793823E+02
    0.22269204587601180378E+02
    0.15511270568685288751E+02
    0.22182476788475621987E+02
    0.17031098527337988457E+02
    0.19954987937327992142E+02
    0.15606406179292912739E+02
    0.17989116837473162036E+02
    0.17432690123033985685E+02
    0.22770304520194152076E+02
    0.17213341136082114247E+02
    0.17790419242776099651E+02
    0.17454828192232881179E+02
    0.17774110619597220051E+02
    0.17414846200923040698E+02
    0.21258112926436183443E+02
    0.15345840294281948957E+02
    0.15527618311789387562E+02
    0.16688919208298447217E+02
    0.17273318183521560343E+02
    0.23409749735313180707E+02
    0.24539219191014606025E+02
    0.21517795647270475001E+02
    0.18810403289974143348E+02
    0.21674771120922308398E+02
    0.23040533901800245076E+02
    0.15838633740824400675E+02
    0.24124319981331630913E+02
    0.24287358115578246753E+02
    0.27119496324898442197E+02
    0.15449956635989503084E+02
    0.15564072253593778328E+02
    0.23571974075676941141E+02
    0.25639217268087833190E+02
    0.17075256560268705641E+02
    0.17036679086706236319E+02
    0.20977390901404987744E+02
    0.16827999974457515719E+02
    0.19029821785087538188E+02
    0.21416876657832382591E+02
    0.22505487664702481965E+02
    0.20129327641209062705E+02
    0.21544172564899021438E+02
    0.26309682260313696389E+02
    0.22563178098275852079E+02
    0.17775868526172917683E+02
    0.20628868295959790657E+02
    0.15749938865413492195E+02
    0.17061059941506499626E+02
    0.23566946190996794996E+02
    0.22346640870814930224E+02
    0.16306913336769735423E+02
    0.31586651593787159698E+02
    0.21915458132571025374E+02
    0.16197884349602116316E+02
    0.31134407529943377568E+02
    0.21833107147431327633E+02
    0.15665137261975157656E+02
    0.21577611169746472086E+02
    0.30539616079691327855E+02
    0.19926266157125443357E+02
    0.17146937401085640573E+02
    0.19263902834941607267E+02
    0.17392256839150284975E+02
    0.30753721373326975197E+02
    0.16052598684109373295E+02
    0.20257812984515489063E+02
    0.15889168647498408404E+02
    0.15779135268972044770E+02
    0.15679311454872593146E+02
    0.16793457550041935633E+02
    0.16559919765757076249E+02
    0.15524867574487267063E+02
    0.19292471657168132282E+02
    0.15917140588299650616E+02
    0.17850799793010860839E+02
    0.17125366448819725917E+02
    0.21460372828685361668E+02
    0.22058088060123576923E+02
    0.16078987596818485883E+02
    0.17449300263365373098E+02
    0.17627072099882539646E+02
    0.23471236911371235578E+02
    0.17355118539004209310E+02
    0.21015098711643648954E+02
    0.15313777795555649774E+02
    0.17229605638077011065E+02
    0.25837371254448651570E+02
    0.16451099397483194053E+02
    0.21951897364365109411E+02
    0.19483585151292150073E+02
    0.17271537938999212969E+02
    0.15418565370093698874E+02
    0.22264863914103546705E+02
    0.17270048129750882993E+02
    0.30532499900575498231E+02
    0.19703560847801238509E+02
    0.19800136656636968979E+02
    0.19727162485983992468E+02
    0.19205894322795032281E+02
    0.22700416104854141963E+02
    0.17529606282168089137E+02
    0.23808673813172074318E+02
    0.17116283933045991716E+02
    0.18803961295985157420E+02
    0.18655774753769481578E+02
    0.18418711238729386537E+02
    0.18253800598926236631E+02
    0.18407100339537041833E+02
    0.19906722620853390282E+02
    0.25955744892420934633E+02
    0.23334215613969977454E+02
    0.15438762422394951557E+02
    0.17307869086005680970E+02
    0.17159466160734545781E+02
    0.17006178638620546906E+02
    0.21895330588250288884E+02
    0.15637525929037899175E+02
    0.17750055123064420570E+02
    0.22938825998422583297E+02
    0.17595285088380592242E+02
    0.22045030773233396104E+02
    0.25829260931256552425E+02
    0.17203002217279824038E+02
    0.26993682616845635636E+02
    0.26259420949051783367E+02
    0.20967289701234175681E+02
    0.20727483957339146059E+02
    0.19932063083312559826E+02
    0.20895797342983669864E+02
    0.20348531547326658142E+02
    0.24980675864621069593E+02
    0.20704054505051672663E+02
    0.22413976542287503690E+02
    0.20927427410834575028E+02
    0.23357642318669260106E+02
    0.26277682904037796163E+02
    0.15606824864286883425E+02
    0.15852945432113946467E+02
    0.24759359137212378243E+02
    0.24187995961186466332E+02
    0.17617104902588941684E+02
    0.17314794643966465060E+02
    0.16857916310555591366E+02
    0.20394105360188309106E+02
    0.24289090280814630063E+02
    0.20125740130875115597E+02
    0.20835226826002507750E+02
    0.25288424982838236588E+02
    0.29145377067031795093E+02
    0.20521097793647836482E+02
    0.15621359781685484336E+02
    0.17546254503416133019E+02
    0.16501277933745193138E+02
    0.20708481999820509856E+02
    0.19711541494335424574E+02
    0.26587878656886278605E+02
    0.26092150746439710218E+02
    0.23148262218802088341E+02
    0.22832958810784557357E+02
    0.15734895624728020280E+02
    0.15471524825035050554E+02
    0.15461488179392896214E+02
    0.16042399778728750448E+02
    0.15832085626055516059E+02
    0.16186270022652816891E+02
    0.16498853714888028321E+02
    0.16057403329072304388E+02
    0.16408757274622786326E+02
    0.18123860701736116852E+02
    0.16763272141108270574E+02
    0.15543581927434981793E+02
    0.16292699914579877429E+02
    0.17243852291855624514E+02
    0.16873253153258541914E+02
    0.20141508692942878156E+02
    0.16724102082334322716E+02
    0.17564651607091469998E+02
    0.16917193557481013499E+02
    0.17266047990485645869E+02
    0.17124484919005446670E+02
    0.18018814143084757262E+02
    0.18341770421881481212E+02
    0.17571715641209063818E+02
    0.16403430544848649930E+02
    0.17842507563002715898E+02
    0.18836506235836086631E+02
    0.17176054553894193333E+02
    0.16493629035207650446E+02
    0.21892555775708512300E+02
    0.21466435490126201557E+02
    0.21055594388833963393E+02
    0.18738287412228284978E+02
    0.16709107973746665010E+02
    0.16485993892687400120E+02
    0.17247564850956717208E+02
    0.16481503045449883871E+02
    0.16971844944337320271E+02
    0.17336119651484747095E+02
    0.17265323198176478314E+02
    0.17079965358473948811E+02
    0.17421021311392003383E+02
    0.17889326679327204772E+02
    0.19251680377877448791E+02
    0.17725275244573555966E+02
    0.26515697390363822450E+02
    0.18286619156981213763E+02
    0.15851158605019069370E+02
    0.15483942333984964890E+02
    0.15525518525246258861E+02
    0.15502641369882553590E+02
    0.21283426940361675150E+02
    0.21281830813226907395E+02
    0.21014424496879151150E+02
    0.20137746883149844734E+02
    0.21243162124763774301E+02
    0.22014844268270682193E+02
    0.22289551989829927692E+02
    0.25347022753957450192E+02
    0.22250135624408720503E+02
    0.24241307329746319965E+02
    0.15576878732399924488E+02
    0.15782072408948891962E+02
    0.27265877400732485114E+02
    0.15404795013851835250E+02
    0.23478904765799349263E+02
    0.24148035100432707623E+02
    0.22629590833309432441E+02
    0.30552513391441756596E+02
    0.31015764676229331087E+02
    0.16222708389655828398E+02
    0.16042750313769417403E+02
    0.26748640118826280343E+02
    0.19787800801166113729E+02
    0.27015815608167965678E+02
    0.26984396284482023987E+02
    0.25842098615870362721E+02
    0.15674019528078872554E+02
    0.15632998476091987783E+02
    0.15435547107499681729E+02
    0.15695976994255707027E+02
    0.15979801040807323886E+02
    0.15643778213206820382E+02
    0.15475424962869544387E+02
    0.15315172954536320660E+02
    0.15342637183437606296E+02
    0.15309348486577599502E+02
    0.15411028536009718337E+02
    0.15386413848068340116E+02
    0.16323907821610177393E+02
    0.17024500582108586855E+02
    0.16169813015027781233E+02
    0.16139934215548255025E+02
    0.16348691549511823240E+02
    0.16289371613200017919E+02
    0.16750074018839633538E+02
    0.17806407651518245672E+02
    0.16618613794236264170E+02
    0.18473033782281458315E+02
    0.18122072871230450630E+02
    0.18793066113785297233E+02
    0.15479643656397728435E+02
    0.15684747900637344031E+02
    0.16080902654421308284E+02
    0.16624224465725948363E+02
    0.16391947431958978854E+02
    0.16342467943423539367E+02
    0.19648626479505480802E+02
    0.18470127496146794499E+02
    0.20154903314933562797E+02
    0.19187926189372344510E+02
    0.22608035929118209140E+02
    0.24214138872892682741E+02
    0.21937109158765256467E+02
    0.22180652251128975649E+02
    0.21231987642257610815E+02
    0.21046655608783503055E+02
    0.22642865374454292038E+02
    0.19447156432326835329E+02
    0.17768161862812100082E+02
    0.17602193606760099698E+02
    0.19302647099638697625E+02
    0.21359348268082690936E+02
    0.18493801521760001805E+02
    0.17941376771836438309E+02
    0.18483649042995537570E+02
    0.16753066811568491090E+02
    0.17977793715438476596E+02
    0.17625680001919015183E+02
    0.15986717495019773239E+02
    0.15565015657732004684E+02
    0.16293190843716413241E+02
    0.16067605359417203914E+02
    0.15663980300136266521E+02
    0.15565842178945313634E+02
    0.15678620891589607922E+02
    0.15922465249974676382E+02
    0.15707495227951341121E+02
    0.15710638093839234486E+02
    0.19940662472479989020E+02
    0.20012753953759577996E+02
    0.23101314576674170098E+02
    0.23200259985614508196E+02
    0.22174964588013050815E+02
    0.22407108626247346450E+02
    0.16151691505070179034E+02
    0.16408654898478168604E+02
    0.23818006773963666944E+02
    0.24342880905732336316E+02
    0.23434658362142492649E+02
    0.31460978825623019617E+02
    0.31036899022906524692E+02
    0.27529910088422077763E+02
    0.27294613128531391766E+02
    0.27278396241778672504E+02
    0.15987175216652627086E+02
    0.17530731209329925235E+02
    0.16789812428932251009E+02
    0.17792401484516293664E+02
    0.20396255905394660601E+02
    0.20350913917351824978E+02
    0.19931320649172779014E+02
    0.19505380673355819710E+02
    0.22341925326853328215E+02
    0.22459193096371336651E+02
    0.21407510676657182103E+02
    0.21331330838803431504E+02
    0.20150026092548241508E+02
    0.19713692625298378402E+02
    0.20478112235147705178E+02
    0.19237635035200675304E+02
    0.17631234746035108429E+02
    0.17115583703309834362E+02
    0.18367575857735772615E+02
    0.17400284833809852358E+02
    0.17676057568236842599E+02
    0.16268005503771473030E+02
    0.17141932313728940329E+02
    0.16786279073282855734E+02
    0.15536409410694975719E+02
    0.15700798205889196169E+02
    0.15444719100427482417E+02
    0.15603807462259227989E+02
    0.15467581670041836261E+02
    0.15406812881478904487E+02
    0.16101203755652381489E+02
    0.15643969340066211871E+02
    0.16369364976763797870E+02
    0.16032691367768986623E+02
    0.16644365899475307202E+02
    0.18222060700559527646E+02
    0.16491842231127709084E+02
    0.16366580673060020956E+02
    0.16585773842621023277E+02
    0.16814161105241833383E+02
    0.24202846525360047991E+02
    0.24139784830998166854E+02
    0.22682399503389159889E+02
    0.27563987748163693681E+02
    0.25716403652624812537E+02
    0.24506822834682374435E+02
    0.23450006297927387777E+02
    0.25117162544091161891E+02
    0.24816915478083739544E+02
    0.24195998939305727760E+02
    0.22002456063454925328E+02
    0.22933936325898226727E+02
    0.23682830549042023449E+02
    0.22522160836594462552E+02
    0.15838993264371490355E+02
    0.16678899294022919264E+02
    0.16995838545498333616E+02
    0.17245439996924925907E+02
    0.17024399105411038846E+02
    0.18307864240103643994E+02
    0.17840548117534162031E+02
    0.17112539037105847228E+02
    0.20445170082963127101E+02
    0.19672859091865731784E+02
    0.18101864009218186169E+02
    0.19495968364594233435E+02
    0.18664702739635192330E+02
    0.18326275962531635599E+02
    0.19367968435200609179E+02
    0.21013747681689398661E+02
    0.20230932116032821710E+02
    0.18836222253440912056E+02
    0.16198154716375238849E+02
    0.18327076441357007752E+02
    0.17493290233398017364E+02
    0.18600812029089322408E+02
    0.18343618011748482388E+02
    0.17668996164954609895E+02
    0.18743106467441553065E+02
    0.19221249484523468709E+02
    0.17058606516761980032E+02
    0.16941200382192249663E+02
    0.17427139183045749604E+02
    0.16718611691295560462E+02
    0.18159232459668292137E+02
    0.16953786128851106696E+02
    0.16573928275895738693E+02
    0.16364497327186491304E+02
    0.16732720838190036972E+02
    0.16561029620931165596E+02
    0.15646442935484646597E+02
    0.15506237229977973158E+02
    0.15432586010917793473E+02
    0.15468115003577780797E+02
    0.15527145413102685367E+02
    0.15487727141494506355E+02
    0.15717814611427050053E+02
    0.15900153408711176439E+02
    0.25836850754522203033E+02
    0.26598638021325239578E+02
    0.16312524085809165797E+02
    0.16748769481072301346E+02
    0.18857179633114970585E+02
    0.18083537173657472152E+02
    0.21250112290666663739E+02
    0.18259034643734413095E+02
    0.18398135422111625559E+02
    0.17030786297123615469E+02
    0.19488118721205243133E+02
    0.18743666970477189437E+02
    0.24632554238337792896E+02
    0.23576949372292453688E+02
    0.17958091825581263379E+02
    0.18499614263607984554E+02
    0.26183502690645209299E+02
    0.24950522601672048495E+02
    0.27354847603213965357E+02
    0.26346583738383372975E+02
    0.25587457729789068850E+02
    0.23601177016602914449E+02
    0.18699867108732497911E+02
    0.19462992886283291938E+02
    0.18517959991786572260E+02
    0.18723547464580441613E+02
    0.18781679243136441215E+02
    0.18684226560044493226E+02
    0.19266296780863758187E+02
    0.18932019270484822471E+02
    0.18043627297343878269E+02
    0.19272095337735873244E+02
    0.17169970741377532875E+02
    0.18055115431830728312E+02
    0.18393535309675485223E+02
    0.19819689988500112321E+02