# vtk DataFile Version 3.0
LAPLACIEN  2D
ASCII
DATASET UNSTRUCTURED_GRID
 POINTS        1616  float
  0.45880792999999997       0.87913892999999999        0.0000000000000000     
  0.40372658000000000       0.18243693000000000        0.0000000000000000     
  0.52563972999999997       0.19039755999999999        0.0000000000000000     
  0.45642953000000003       0.24226190000000000        0.0000000000000000     
  0.51984098000000001       0.24548566999999999        0.0000000000000000     
  0.21212766999999999       0.18957676000000001        0.0000000000000000     
  0.28573643999999998       0.48586826999999999        0.0000000000000000     
  0.49667887999999999       0.82979849000000006        0.0000000000000000     
  0.22848407000000001       0.23366793000000000        0.0000000000000000     
  0.27860389000000002       0.86069733000000004        0.0000000000000000     
  0.36563702999999997       0.80971340999999997        0.0000000000000000     
  0.28045499000000002       0.80393031999999998        0.0000000000000000     
  0.40374228000000001       0.78127665000000002        0.0000000000000000     
  0.56160891999999996       0.55341227999999998        0.0000000000000000     
  0.37210935000000001       0.26787699999999998        0.0000000000000000     
  0.49899838000000002       0.57286409999999999        0.0000000000000000     
  0.41023869000000002       0.33464665999999998        0.0000000000000000     
  0.33484156999999998       0.29151022999999998        0.0000000000000000     
  0.46758665999999999       0.58262307999999996        0.0000000000000000     
  0.43303693999999998       0.36569945999999998        0.0000000000000000     
  0.25741280000000000       0.61805882999999995        0.0000000000000000     
  0.28853707000000001       0.59423020000000004        0.0000000000000000     
  0.67837254000000002       0.45038665999999999        0.0000000000000000     
  0.42159046000000000       0.50697913999999999        0.0000000000000000     
  0.60276470999999998       0.73940291000000002        0.0000000000000000     
  0.30758273000000003       0.77844542000000005        0.0000000000000000     
  0.45367541000000000       0.31842187000000000        0.0000000000000000     
  0.36974101999999998       0.35807864000000000        0.0000000000000000     
  0.26919625000000003       0.65312176000000000        0.0000000000000000     
  0.61908110999999999       0.42741791000000001        0.0000000000000000     
  0.54442267000000000       0.74200747000000000        0.0000000000000000     
  0.58930464999999999       0.41588288000000001        0.0000000000000000     
  0.51511633000000001       0.74331579000000003        0.0000000000000000     
  0.12878382999999999       0.33122940000000001        0.0000000000000000     
  0.15534365000000000       0.71749246000000000        0.0000000000000000     
  0.64877724999999997       0.30161799000000000        0.0000000000000000     
  0.58853643000000000       0.28101930000000003        0.0000000000000000     
  0.56390348000000001       0.30132482999999999        0.0000000000000000     
  0.29605991999999998       0.44474459999999999        0.0000000000000000     
  0.29900669000000002       0.52983276000000001        0.0000000000000000     
  0.55954318999999997       0.48654808999999999        0.0000000000000000     
  0.42341458999999998       0.38785072999999998        0.0000000000000000     
  0.45806291999999998       0.35892998999999998        0.0000000000000000     
  0.47820750000000001       0.31147424000000001        0.0000000000000000     
  0.36344222999999998       0.38139388000000002        0.0000000000000000     
  0.17186508000000000       0.28159534000000003        0.0000000000000000     
  0.18029876000000000       0.33292397000000001        0.0000000000000000     
  0.20696366999999999       0.71822465999999996        0.0000000000000000     
  0.61326404999999995       0.34468346000000000        0.0000000000000000     
  0.29887186999999998       0.42337377999999998        0.0000000000000000     
  0.33271837999999998       0.44383096000000000        0.0000000000000000     
  0.31835012000000001       0.54267131999999996        0.0000000000000000     
  0.54882964999999995       0.45462609999999998        0.0000000000000000     
  0.20448143999999999       0.28717446000000002        0.0000000000000000     
  0.20634120000000000       0.33378063000000002        0.0000000000000000     
  0.23301781999999999       0.71859421999999995        0.0000000000000000     
  0.58606499999999995       0.35199907000000002        0.0000000000000000     
  0.20841100000000001       0.45369578999999999        0.0000000000000000     
  0.24778198000000001       0.77708496000000005        0.0000000000000000     
  0.30748062999999998       0.61002621000000001        0.0000000000000000     
  0.23337332000000000       0.41981835000000001        0.0000000000000000     
  0.25985113999999998       0.75924943000000000        0.0000000000000000     
  0.24610213000000000       0.40254353999999998        0.0000000000000000     
  0.37350351999999998       0.50127178999999999        0.0000000000000000     
  0.43235204999999999       0.78236391000000005        0.0000000000000000     
  0.30749858000000002       0.28582627999999999        0.0000000000000000     
  0.30336816000000000       0.64635111000000001        0.0000000000000000     
  0.31418906000000002       0.43625961000000002        0.0000000000000000     
  0.27223414000000001       0.78063022000000004        0.0000000000000000     
  0.22829299000000000       0.75089561000000005        0.0000000000000000     
  0.26580239000000000       0.42989294000000000        0.0000000000000000     
  0.37369119000000001       0.51975733999999996        0.0000000000000000     
  0.39681665999999999       0.51027884000000001        0.0000000000000000     
  0.32086795000000001       0.65137668999999998        0.0000000000000000     
  0.31757218999999998       0.62987181000000003        0.0000000000000000     
  0.32959777000000001       0.42500900000000003        0.0000000000000000     
  0.24663835000000001       0.74537787000000000        0.0000000000000000     
  0.26354222999999999       0.41075105000000001        0.0000000000000000     
  0.28343712999999998       0.43221330000000002        0.0000000000000000     
  0.34682245000000000       0.43182289000000001        0.0000000000000000     
  0.35306810000000000       0.45344571000000000        0.0000000000000000     
  0.57327218000000002       0.15829040000000000        0.0000000000000000     
  0.51473097999999995       0.12621746000000000        0.0000000000000000     
  0.72829681999999996       0.40151571000000003        0.0000000000000000     
  0.42703184999999999       0.53501600999999999        0.0000000000000000     
  0.32612607999999998       0.75472421999999995        0.0000000000000000     
   9.9814849999999997E-002  0.28081352999999998        0.0000000000000000     
  0.13945825000000001       0.78732252999999996        0.0000000000000000     
  0.44199519999999998       0.38275643999999998        0.0000000000000000     
  0.40132215999999998       0.36508836000000000        0.0000000000000000     
  0.43963142999999999       0.34043466999999999        0.0000000000000000     
  0.47160058999999999       0.33493045999999999        0.0000000000000000     
  0.45615203999999998       0.28038164999999998        0.0000000000000000     
  0.34321279999999998       0.35314412000000001        0.0000000000000000     
  0.29178279000000001       0.56170810000000004        0.0000000000000000     
  0.49833080000000002       0.48416767999999999        0.0000000000000000     
  0.46386271000000001       0.46452802999999998        0.0000000000000000     
  0.44722043000000000       0.45300645000000000        0.0000000000000000     
  0.46562803000000003       0.44419790999999997        0.0000000000000000     
  0.43925322000000000       0.48229485999999999        0.0000000000000000     
  0.49117628000000002       0.45665803999999999        0.0000000000000000     
  0.43435156000000003       0.46523363000000001        0.0000000000000000     
  0.19405754000000000       0.31093060000000000        0.0000000000000000     
  0.22069087000000001       0.66905079000000001        0.0000000000000000     
  0.30776597999999999       0.59042684000000001        0.0000000000000000     
  0.29541507000000000       0.57849362000000004        0.0000000000000000     
  0.28335474999999999       0.61970232999999997        0.0000000000000000     
  0.29935165000000002       0.62852803999999995        0.0000000000000000     
  0.28459435999999999       0.64121777000000002        0.0000000000000000     
  0.26698675999999999       0.63435282999999998        0.0000000000000000     
  0.24031983000000001       0.64700659000000005        0.0000000000000000     
  0.33118850000000000       0.50233682999999996        0.0000000000000000     
  0.35257061000000001       0.51072803000000000        0.0000000000000000     
  0.29038973000000001       0.78732479000000000        0.0000000000000000     
  0.28737915000000003       0.76752330999999996        0.0000000000000000     
  0.21978159000000000       0.73315437000000006        0.0000000000000000     
  0.18119734000000001       0.76257752999999995        0.0000000000000000     
  0.20353571000000001       0.75186065999999996        0.0000000000000000     
  0.39122694000000002       0.49007234000000000        0.0000000000000000     
  0.59140473999999998       0.13507609000000001        0.0000000000000000     
  0.53156702000000000        9.7663528999999999E-002   0.0000000000000000     
  0.76346223999999996       0.39657278000000001        0.0000000000000000     
  0.41119013999999998       0.52354409999999996        0.0000000000000000     
   7.2558165999999993E-002  0.26885883999999999        0.0000000000000000     
  0.10497347000000000       0.79895936000000001        0.0000000000000000     
[...]
 CELL_DATA        2963
 SCALARS Nutrients float
 LOOKUP_TABLE default
    0.25705104142264282530E+02
    0.24480647498102957371E+02
    0.22043477934511724214E+02
    0.23072963618766756611E+02
    0.22507560875427820690E+02
    0.26877687233506964759E+02
    0.23857494954219198746E+02
    0.22180287523345704415E+02
    0.24461197791672795177E+02
    0.15057676171832490297E+02
    0.24685303983581015075E+02
    0.21473873682829641041E+02
    0.20925577164336953473E+02
    0.23609031567707116750E+02
    0.24405836782735413237E+02
    0.20574919173294645702E+02
    0.15244829618819068173E+02
    0.23802347365716602923E+02
    0.27473737811506016016E+02
    0.20986003657226621755E+02
    0.23597954903420340855E+02
    0.15761185242467918854E+02
    0.16074228263341602485E+02
    0.21579780843355564457E+02
    0.19621096735770738206E+02
    0.31386463088283033329E+02
    0.19273737405600915196E+02
    0.27226132660061093560E+02
    0.22618849609508856702E+02
    0.16864118275646372780E+02
    0.24179111833147207022E+02
    0.23479724841655027490E+02
    0.22596211461721473768E+02
    0.18696726481652834906E+02
    0.19920227671907301925E+02
    0.18182923051939457793E+02
    0.21655551771623301249E+02
    0.18109375982959054596E+02
    0.18062384040474324109E+02
    0.22237624839458305814E+02
    0.17480843401871950960E+02
    0.22406497344595660337E+02
    0.21063361393578304614E+02
    0.17237626901531168500E+02
    0.24056821196270984586E+02
    0.16301582837700721029E+02
    0.18256718723150910932E+02
    0.23823279543607423392E+02
    0.16682379405560798347E+02
    0.24169725099734471030E+02
    0.16968987709178271928E+02
    0.15376273545654706609E+02
    0.15784332678067078959E+02
    0.15524417180653557580E+02
    0.21530515253279993715E+02
    0.20637822447977274720E+02
    0.17129411479902259430E+02
    0.16612659290755580344E+02
    0.15218561147261022271E+02
    0.21599670889942768071E+02
    0.15502343872389714008E+02
    0.24996467981510903655E+02
    0.25280658472671433401E+02
    0.23131335731350393559E+02
    0.21948668647176884150E+02
    0.15870174551169030863E+02
    0.20386364604746518125E+02
    0.15328436882931489649E+02
    0.19869405873350725500E+02
    0.23668566430828608560E+02
    0.17777758547794530131E+02
    0.15744009922074647889E+02
    0.18970292559180194303E+02
    0.18615518077692822629E+02
    0.15074859571286852500E+02
    0.15086578351575790080E+02
    0.15564547000839144886E+02
    0.15117366714277338247E+02
    0.15973599126836829143E+02
    0.16005673783965239210E+02
    0.23223821327537677917E+02
    0.16785062775360724885E+02
    0.15353900979515080039E+02
    0.15108773519222767234E+02
    0.17561914428986089121E+02
    0.24666804240297544482E+02
    0.27374795375946284537E+02
    0.21874931123692789470E+02
    0.20370562918055313162E+02
    0.27458380050193142097E+02
    0.20453783028213035067E+02
    0.16837717692248787671E+02
    0.15972776837180573395E+02
    0.16475220991320611574E+02
    0.18304658411683909947E+02
    0.17283130108384963108E+02
    0.15601122551555702600E+02
    0.20544249028458963835E+02
    0.16476359179514542319E+02
    0.20939569858508917832E+02
    0.19355758500861725224E+02
    0.20037594240177874383E+02
    0.16815603677378611280E+02
    0.20901461133520982116E+02
    0.22347858104184155081E+02
    0.25661514232098593169E+02
    0.21354533145587563325E+02
    0.27674908931734414352E+02
    0.16568509899750104353E+02
    0.21639058200844452529E+02
    0.23801215690944708570E+02
    0.20597058963472122173E+02
    0.18896087657032069274E+02
    0.21351469792487346666E+02
    0.24093456259914894702E+02
    0.20672491409385827410E+02
    0.27164951611306683787E+02
    0.25676185620092727646E+02
    0.15069777925115188211E+02
    0.15519017236165430162E+02
    0.20387127675692241269E+02
    0.24863807714086494371E+02
    0.15375559830610297851E+02
    0.18532608839762570341E+02
    0.15652130038886257424E+02
    0.19340734484781599178E+02
    0.27305589881482518422E+02
    0.16128375413363773561E+02
    0.25561084952077386845E+02
    0.15243247806932620492E+02
    0.16984291982395763654E+02
    0.16754196737332261335E+02
    0.21827141588571802089E+02
    0.16942175171787877019E+02
    0.20636847489248697940E+02
    0.15642423270390992229E+02
    0.15639484378090811489E+02
    0.27722695805580141126E+02
    0.22882839491831202139E+02
    0.24860332553681590895E+02
    0.15183822127895298948E+02
    0.17621421213496851976E+02
    0.18701874127205375231E+02
    0.15774350915972350506E+02
    0.16049133524267627848E+02
    0.17319341197951413136E+02
    0.24592272770226436762E+02
    0.17068155884279072154E+02
    0.21184091980409586853E+02
    0.18987169068038785014E+02
    0.22342095322090091969E+02
    0.19215871229308454815E+02
    0.15975997734224206326E+02
    0.17490294987383723679E+02
    0.18520419541290365828E+02
    0.15869441695088493560E+02
    0.15620691719164060629E+02
    0.18586538674044696506E+02
    0.18570181706730217286E+02
    0.18523215424061490353E+02
    0.18561760387518035031E+02
    0.19226209613266064480E+02
    0.18220779039145607925E+02
    0.20599381997210763018E+02
    0.21059810735399356219E+02
    0.16325275244027150023E+02
    0.15545456018742648041E+02
    0.16680548861833482732E+02
    0.15084339068168324260E+02
    0.16917723925675108632E+02
    0.15218586464331766095E+02
    0.18648861198323661625E+02
    0.16352791400117038023E+02
    0.17362012451791517975E+02
    0.15796611466806105284E+02
    0.15586539549227220292E+02
    0.22481346507899182541E+02
    0.20963065410580075110E+02
    0.23667986033301509963E+02
    0.15352791656317155145E+02
    0.15077641846371129475E+02
    0.17762222860966843996E+02
    0.18543432635748178683E+02
    0.20696072917669727786E+02
    0.15899008067651040577E+02
    0.16024553324671547472E+02
    0.21638960034001105015E+02
    0.30754472960573899343E+02
    0.15807191293948241295E+02
    0.17457369182276998743E+02
    0.23365564017325016977E+02
    0.21056620279208164703E+02
    0.27371622341113614141E+02
    0.15317219480332795456E+02
    0.21819525479373947263E+02
    0.15510443520573286236E+02
    0.21346065836167785079E+02
    0.16993934088707295160E+02
    0.19900610748839039132E+02
    0.15604870126153690180E+02
    0.17970784170524556345E+02
    0.17426650809942540121E+02
    0.22768030294955611481E+02
    0.17142799867069353326E+02
    0.16678916643415700349E+02
    0.16364396441487322420E+02
    0.17720230970585593155E+02
    0.16275473282303472899E+02
    0.19938179173648094888E+02
    0.15344563372778473820E+02
    0.15525696852932373559E+02
    0.15922315349063023149E+02
    0.16551028521803047511E+02
    0.23408769406562200288E+02
    0.24531733683621059328E+02
    0.21515897937630221293E+02
    0.18777829110364788079E+02
    0.21592923273423760833E+02
    0.22662756396780071810E+02
    0.15689449853363623077E+02
    0.24115280280585530193E+02
    0.24281552885264481745E+02
    0.27074320653518824997E+02
    0.15247977517313122675E+02
    0.15389885671957172164E+02
    0.23566940697828531626E+02
    0.25559263043518704706E+02
    0.17050009757790675735E+02
    0.17012970813691474348E+02
    0.20868386907314462775E+02
    0.16794090092131860104E+02
    0.18997141970838843150E+02
    0.21415672563627708769E+02
    0.22228043024511226378E+02
    0.20113167478297402369E+02
    0.21385535612767583302E+02
    0.26309507610294733837E+02
    0.21995201477406482127E+02
    0.17037685963952171164E+02
    0.19225731750300269596E+02
    0.15597391974949600169E+02
    0.17052929104493504298E+02
    0.22799784135558443410E+02
    0.21502968267466528118E+02
    0.15547737736417118981E+02
    0.31489107784578202143E+02
    0.21678196252187724724E+02
    0.16091998393355368080E+02
    0.31006310392891155203E+02
    0.20762941897404971314E+02
    0.15090404776551523014E+02
    0.21572307830401936002E+02
    0.30470005910155673945E+02
    0.18539798614825166112E+02
    0.17127447813477207461E+02
    0.19255363675461079964E+02
    0.17327094739256470035E+02
    0.30630331138114971878E+02
    0.15323928757900436182E+02
    0.20252919929519826781E+02
    0.15210202437695702571E+02
    0.15156980472736428567E+02
    0.15103861427101012538E+02
    0.16786340315342261675E+02
    0.15655496098916200864E+02
    0.15523097821533077934E+02
    0.17969050498432377339E+02
    0.15237973509140251949E+02
    0.17532002597389361398E+02
    0.16049289006986509065E+02
    0.21455993676144831994E+02
    0.21748761877898864725E+02
    0.15351187862853945987E+02
    0.17092758449788686193E+02
    0.17213959312774822052E+02
    0.23469946872959987161E+02
    0.17347840414965439493E+02
    0.21011473518099204938E+02
    0.15312736957256428028E+02
    0.16843970806889721814E+02
    0.25836884972617951917E+02
    0.16380995379681206003E+02
    0.21908835231020528767E+02
    0.19476272297014741497E+02
    0.16866540786581627032E+02
    0.15417901426328256775E+02
    0.21580565339966909733E+02
    0.16890807364605922913E+02
    0.30388296761783077926E+02
    0.19694536718470704528E+02
    0.19792462594493656525E+02
    0.19720899817690860090E+02
    0.18901682830124929779E+02
    0.22700024184562984431E+02
    0.17516232133820803796E+02
    0.23040650184001400191E+02
    0.16676558413906775513E+02
    0.18801390722089326601E+02
    0.17656923351383714049E+02
    0.18139508899464214409E+02
    0.18228999716274483234E+02
    0.18022305628159127622E+02
    0.19760023996802306812E+02
    0.25916187518299651060E+02
    0.23265252699409231241E+02
    0.15437153940411825204E+02
    0.16776794512394353376E+02
    0.17158215238738989683E+02
    0.16304513880775338919E+02
    0.21669111226417928862E+02
    0.15380077212384511753E+02
    0.17695995599284902511E+02
    0.22716919499680262362E+02
    0.17249951193881173594E+02
    0.22043161981635510216E+02
    0.25829138852813041893E+02
    0.17132033830858588885E+02
    0.26864804197836640753E+02
    0.25781872845226214253E+02
    0.20966532378261149461E+02
    0.20663796578163324824E+02
    0.19919696081424014267E+02
    0.20866718875393285515E+02
    0.20347661932651877947E+02
    0.24979062214812483234E+02
    0.20660652574944911919E+02
    0.22403348694449814360E+02
    0.20542371634041476369E+02
    0.23305295236435600970E+02
    0.26273062936939233225E+02
    0.15403492695510543342E+02
    0.15708787580801548245E+02
    0.24757036128722372581E+02
    0.24185457921504330159E+02
    0.17595091065909276296E+02
    0.17314242377218285185E+02
    0.16829190060625958125E+02
    0.20292555120966827786E+02
    0.24253211994120039918E+02
    0.20125192054421514598E+02
    0.20834241770598257659E+02
    0.25248479191533817811E+02
    0.29023479901095356581E+02
    0.20515367908489189119E+02
    0.15075513407468916327E+02
    0.17086043150886574438E+02
    0.16394931988914720478E+02
    0.20674548729136045466E+02
    0.19710029094158606711E+02
    0.26587287139026738458E+02
    0.26091514829713734258E+02
    0.23147162995769569704E+02
    0.22831968698805614082E+02
    0.15732419781981228368E+02
    0.15469785586734541738E+02
    0.15460371755769836355E+02
    0.16040770538735074524E+02
    0.15829746951918066245E+02
    0.16183400288601738737E+02
    0.16492773743016332588E+02
    0.16053886573581202413E+02
    0.16404721126632615835E+02
    0.18112630677201202900E+02
    0.16762703366294640972E+02
    0.15542964952811532342E+02
    0.16292146568177365396E+02
    0.17209149746778678036E+02
    0.16818506007724714379E+02
    0.18944968152714181997E+02
    0.15767405699636261929E+02
    0.16391923968649223298E+02
    0.16022997633566482989E+02
    0.16153008627356314264E+02
    0.16181072410306075682E+02
    0.16791342006491994709E+02
    0.17398717810698247632E+02
    0.16749539956382456296E+02
    0.15595809819860265932E+02
    0.16646671465425178837E+02
    0.17536890977626459431E+02
    0.16170699954722355329E+02
    0.15642744463542920030E+02
    0.21888075866050591856E+02
    0.21463231264652044672E+02
    0.21051383170665957323E+02
    0.18718103916461011238E+02
    0.16651721218061631191E+02
    0.16412476837360539861E+02
    0.17208553796007155512E+02
    0.16402222326119026974E+02
    0.16941550481433608866E+02
    0.17311340216642047807E+02
    0.17242301507605237276E+02
    0.17048549067403772739E+02
    0.17401817892845031110E+02
    0.17871657664842651059E+02
    0.19243298264984051826E+02
    0.17702042993321168041E+02
    0.26515198694030804205E+02
    0.18269772027843455220E+02
    0.15667814295981788320E+02
    0.15255792898326310691E+02
    0.15112524873256168334E+02
    0.15173986742311045717E+02
    0.21282714926398782040E+02
    0.21281174590403935554E+02
    0.21013536442189387543E+02
    0.20136871709825783228E+02
    0.21240804753752662748E+02
    0.22013245343560086553E+02
    0.22288273903431761624E+02
    0.25346569030510092801E+02
    0.22249133573210983172E+02
    0.24240589303299174162E+02
    0.15060041179250140075E+02
    0.15147865833411005454E+02
    0.27238648880734828595E+02
    0.15171401307961561500E+02
    0.23475850126974354026E+02
    0.24143120691561414048E+02
    0.22626827761098383007E+02
    0.30406177026631127092E+02
    0.30919641514112839786E+02
    0.15469684751263150346E+02
    0.15326776700257084940E+02
    0.26748386152633482737E+02
    0.19786865927948369404E+02
    0.27015202044831664097E+02
    0.26984104771917348131E+02
    0.25841920229508250628E+02
    0.15671605694442815704E+02
    0.15630828702622382664E+02
    0.15434209643442795112E+02
    0.15694492022478570448E+02
    0.15977393915494788601E+02
    0.15641973082847886900E+02
    0.15474136635028800768E+02
    0.15314381555960007830E+02
    0.15341442379061225765E+02
    0.15308480387630183372E+02
    0.15410194802895007982E+02
    0.15385454506115854301E+02
    0.16321271045166653835E+02
    0.17018036407564334667E+02
    0.16165406560902333410E+02
    0.16135862273510191756E+02
    0.16344283052856070526E+02
    0.16284619976913909056E+02
    0.16745177707777742171E+02
    0.17795587216691846066E+02
    0.16615501026750127522E+02
    0.18464514246576637646E+02
    0.18113146347337174547E+02
    0.18773286535180549350E+02
    0.15478994458360677555E+02
    0.15684028000343451126E+02
    0.15954173241506843794E+02
    0.16545469843510332453E+02
    0.16313049536161233988E+02
    0.16246290093598915405E+02
    0.18274581021049151275E+02
    0.17289894671989895159E+02
    0.18896894165175091018E+02
    0.17943220606328679878E+02
    0.22604617669725346474E+02
    0.24212455859584324003E+02
    0.21934098527597118533E+02
    0.22177401999733724836E+02
    0.21227229504015337369E+02
    0.21040121089237416641E+02
    0.22640837711874578275E+02
    0.19438637121010231112E+02
    0.17740651277666980690E+02
    0.17570245061420031618E+02
    0.19292194730592981955E+02
    0.21349505165302424814E+02
    0.18477649676716136895E+02
    0.17908308668695532617E+02
    0.18466214350314860582E+02
    0.16689659098178481145E+02
    0.17948111574253161393E+02
    0.17585202119017296241E+02
    0.15831159579566806528E+02
    0.15276731504687102614E+02
    0.16184130294976224462E+02
    0.15919425032307707113E+02
    0.15427032078280438654E+02
    0.15267532208198009158E+02
    0.15456663316755793858E+02
    0.15758890756534652766E+02
    0.15529571418682259321E+02
    0.15509801915215451373E+02
    0.19939763042331950516E+02
    0.20011834786216905258E+02
    0.23100917757018052612E+02
    0.23199299470309583171E+02
    0.22172398840695731081E+02
    0.22405415825061091084E+02
    0.15375146295259947138E+02
    0.15556137901343841889E+02
    0.23814821867567491864E+02
    0.24336450972631450185E+02
    0.23432507770066983710E+02
    0.31349810447808934555E+02
    0.30934160385645427027E+02
    0.27529697939663151374E+02
    0.27294123734282127458E+02
    0.27278218337994800891E+02
    0.15986025921353393286E+02
    0.17527263905680456446E+02
    0.16785881879927003979E+02
    0.17790250337804103253E+02
    0.18986858134439586365E+02
    0.18982791586034718279E+02
    0.18856633727786448418E+02
    0.18408509824967616453E+02
    0.22337859985541310692E+02
    0.22456302678674845197E+02
    0.21402326986265382658E+02
    0.21327130161320376089E+02
    0.20143745107352483359E+02
    0.19707040201363223986E+02
    0.20472537188030180744E+02
    0.19223740396080877701E+02
    0.17596557893720110144E+02
    0.17070294015359490203E+02
    0.18338582872912201793E+02
    0.17359377144054004560E+02
    0.17629325704644596584E+02
    0.16143283637836184141E+02
    0.17081815694787671589E+02
    0.16720753900410294079E+02
    0.15197319009102665532E+02
    0.15475635300828633589E+02
    0.15174481212354637094E+02
    0.15388542627543777996E+02
    0.15192519851702803280E+02
    0.15107060559609044148E+02
    0.15958554833470300238E+02
    0.15416688777861818238E+02
    0.16251961360990776484E+02
    0.15888473160654745797E+02
    0.16548089549819930966E+02
    0.18179320316345023656E+02
    0.16386035006816978665E+02
    0.16251664954704978072E+02
    0.16487203459549224505E+02
    0.16725598629510137982E+02
    0.24202350559592165524E+02
    0.24139391040770444619E+02
    0.22681737172890624521E+02
    0.27563919928483834099E+02
    0.25716163502916160155E+02
    0.24506314063638289014E+02
    0.23449386713836702256E+02
    0.25116777595930390277E+02
    0.24816311368340347343E+02
    0.24195359227224162879E+02
    0.22001420840060809780E+02
    0.22933110301437569234E+02
    0.23681841292740863025E+02
    0.22520408086800269842E+02
    0.15837296380899442028E+02
    0.16676376913916751477E+02
    0.16993296299398377158E+02
    0.17242146649048663676E+02
    0.17022403379335656837E+02
    0.18306707273278707504E+02
    0.17835307701101235978E+02
    0.17108190186957976664E+02
    0.19109816372810104923E+02
    0.18484395502951080914E+02
    0.18078660414137704748E+02
    0.19482066890772536283E+02
    0.18646702760555140088E+02
    0.18304334429014218699E+02
    0.19356225179694277472E+02
    0.21005266668017362974E+02
    0.20218162611576545373E+02
    0.18812283754670399816E+02
    0.16070997548396377397E+02
    0.18292847816853488041E+02
    0.17439887890150618688E+02
    0.18565009499955991146E+02
    0.18316013114035087028E+02
    0.17626443626541799858E+02
    0.18721513075339082377E+02
    0.19202999876721435157E+02
    0.17001757358454881341E+02
    0.16875840192142771201E+02
    0.17376464775560116038E+02
    0.16634868103968805997E+02
    0.18124272308465432246E+02
    0.16882291166634086466E+02
    0.16477935231916429615E+02
    0.16259020355807702884E+02
    0.16656845981921719613E+02
    0.16470584721577232301E+02
    0.15408487221707044768E+02
    0.15216223677604368447E+02
    0.15070476372308521107E+02
    0.15167608776942739013E+02
    0.15059045694111775404E+02
    0.15061423605072493004E+02
    0.15500876941977418610E+02
    0.15724336445361144499E+02
    0.25836444105022856377E+02
    0.26598185773872923932E+02
    0.16195436197346285923E+02
    0.16661480951860838218E+02
    0.18831883243301987818E+02
    0.18048900737514188108E+02
    0.21238535117918686979E+02
    0.18218851842737123548E+02
    0.18361281298432174935E+02
    0.16957367788693776589E+02
    0.19467548389914618667E+02
    0.18713973160534244755E+02
    0.24631746208502878659E+02
    0.23575827180574563613E+02
    0.17917822861929160183E+02
    0.18469234523748340848E+02
    0.26183162136382716056E+02
    0.24949870902052268207E+02
    0.27354625217215481570E+02
    0.26346179837569518867E+02
    0.25586866588066325079E+02
    0.23599838803916227903E+02
    0.18697398878959088364E+02
    0.19459412323870406425E+02
    0.18516419136289922420E+02
    0.18721935640938106360E+02
    0.18778728963326390300E+02
    0.18682428492699798994E+02
    0.19260731251025116961E+02
    0.18928834321324600865E+02
    0.17547534381201835174E+02
    0.19054703686267725260E+02
    0.16755717013666107107E+02
    0.17705699889520108314E+02
    0.18072010945978256302E+02
    0.19638895743115075021E+02