# vtk DataFile Version 3.0
LAPLACIEN  2D
ASCII
DATASET UNSTRUCTURED_GRID
 POINTS        1616  float
  0.45880792999999997       0.87913892999999999        0.0000000000000000     
  0.40372658000000000       0.18243693000000000        0.0000000000000000     
  0.52563972999999997       0.19039755999999999        0.0000000000000000     
  0.45642953000000003       0.24226190000000000        0.0000000000000000     
  0.51984098000000001       0.24548566999999999        0.0000000000000000     
  0.21212766999999999       0.18957676000000001        0.0000000000000000     
  0.28573643999999998       0.48586826999999999        0.0000000000000000     
  0.49667887999999999       0.82979849000000006        0.0000000000000000     
  0.22848407000000001       0.23366793000000000        0.0000000000000000     
  0.27860389000000002       0.86069733000000004        0.0000000000000000     
  0.36563702999999997       0.80971340999999997        0.0000000000000000     
  0.28045499000000002       0.80393031999999998        0.0000000000000000     
  0.40374228000000001       0.78127665000000002        0.0000000000000000     
  0.56160891999999996       0.55341227999999998        0.0000000000000000     
  0.37210935000000001       0.26787699999999998        0.0000000000000000     
  0.49899838000000002       0.57286409999999999        0.0000000000000000     
  0.41023869000000002       0.33464665999999998        0.0000000000000000     
  0.33484156999999998       0.29151022999999998        0.0000000000000000     
  0.46758665999999999       0.58262307999999996        0.0000000000000000     
  0.43303693999999998       0.36569945999999998        0.0000000000000000     
  0.25741280000000000       0.61805882999999995        0.0000000000000000     
  0.28853707000000001       0.59423020000000004        0.0000000000000000     
  0.67837254000000002       0.45038665999999999        0.0000000000000000     
  0.42159046000000000       0.50697913999999999        0.0000000000000000     
  0.60276470999999998       0.73940291000000002        0.0000000000000000     
  0.30758273000000003       0.77844542000000005        0.0000000000000000     
  0.45367541000000000       0.31842187000000000        0.0000000000000000     
  0.36974101999999998       0.35807864000000000        0.0000000000000000     
  0.26919625000000003       0.65312176000000000        0.0000000000000000     
  0.61908110999999999       0.42741791000000001        0.0000000000000000     
  0.54442267000000000       0.74200747000000000        0.0000000000000000     
  0.58930464999999999       0.41588288000000001        0.0000000000000000     
  0.51511633000000001       0.74331579000000003        0.0000000000000000     
  0.12878382999999999       0.33122940000000001        0.0000000000000000     
  0.15534365000000000       0.71749246000000000        0.0000000000000000     
  0.64877724999999997       0.30161799000000000        0.0000000000000000     
  0.58853643000000000       0.28101930000000003        0.0000000000000000     
  0.56390348000000001       0.30132482999999999        0.0000000000000000     
  0.29605991999999998       0.44474459999999999        0.0000000000000000     
  0.29900669000000002       0.52983276000000001        0.0000000000000000     
  0.55954318999999997       0.48654808999999999        0.0000000000000000     
  0.42341458999999998       0.38785072999999998        0.0000000000000000     
  0.45806291999999998       0.35892998999999998        0.0000000000000000     
  0.47820750000000001       0.31147424000000001        0.0000000000000000     
  0.36344222999999998       0.38139388000000002        0.0000000000000000     
  0.17186508000000000       0.28159534000000003        0.0000000000000000     
  0.18029876000000000       0.33292397000000001        0.0000000000000000     
  0.20696366999999999       0.71822465999999996        0.0000000000000000     
  0.61326404999999995       0.34468346000000000        0.0000000000000000     
  0.29887186999999998       0.42337377999999998        0.0000000000000000     
  0.33271837999999998       0.44383096000000000        0.0000000000000000     
  0.31835012000000001       0.54267131999999996        0.0000000000000000     
  0.54882964999999995       0.45462609999999998        0.0000000000000000     
  0.20448143999999999       0.28717446000000002        0.0000000000000000     
  0.20634120000000000       0.33378063000000002        0.0000000000000000     
  0.23301781999999999       0.71859421999999995        0.0000000000000000     
  0.58606499999999995       0.35199907000000002        0.0000000000000000     
  0.20841100000000001       0.45369578999999999        0.0000000000000000     
  0.24778198000000001       0.77708496000000005        0.0000000000000000     
  0.30748062999999998       0.61002621000000001        0.0000000000000000     
  0.23337332000000000       0.41981835000000001        0.0000000000000000     
  0.25985113999999998       0.75924943000000000        0.0000000000000000     
  0.24610213000000000       0.40254353999999998        0.0000000000000000     
  0.37350351999999998       0.50127178999999999        0.0000000000000000     
  0.43235204999999999       0.78236391000000005        0.0000000000000000     
  0.30749858000000002       0.28582627999999999        0.0000000000000000     
  0.30336816000000000       0.64635111000000001        0.0000000000000000     
  0.31418906000000002       0.43625961000000002        0.0000000000000000     
  0.27223414000000001       0.78063022000000004        0.0000000000000000     
  0.22829299000000000       0.75089561000000005        0.0000000000000000     
  0.26580239000000000       0.42989294000000000        0.0000000000000000     
  0.37369119000000001       0.51975733999999996        0.0000000000000000     
  0.39681665999999999       0.51027884000000001        0.0000000000000000     
  0.32086795000000001       0.65137668999999998        0.0000000000000000     
  0.31757218999999998       0.62987181000000003        0.0000000000000000     
  0.32959777000000001       0.42500900000000003        0.0000000000000000     
  0.24663835000000001       0.74537787000000000        0.0000000000000000     
  0.26354222999999999       0.41075105000000001        0.0000000000000000     
  0.28343712999999998       0.43221330000000002        0.0000000000000000     
  0.34682245000000000       0.43182289000000001        0.0000000000000000     
  0.35306810000000000       0.45344571000000000        0.0000000000000000     
  0.57327218000000002       0.15829040000000000        0.0000000000000000     
  0.51473097999999995       0.12621746000000000        0.0000000000000000     
  0.72829681999999996       0.40151571000000003        0.0000000000000000     
  0.42703184999999999       0.53501600999999999        0.0000000000000000     
  0.32612607999999998       0.75472421999999995        0.0000000000000000     
   9.9814849999999997E-002  0.28081352999999998        0.0000000000000000     
  0.13945825000000001       0.78732252999999996        0.0000000000000000     
  0.44199519999999998       0.38275643999999998        0.0000000000000000     
  0.40132215999999998       0.36508836000000000        0.0000000000000000     
  0.43963142999999999       0.34043466999999999        0.0000000000000000     
  0.47160058999999999       0.33493045999999999        0.0000000000000000     
  0.45615203999999998       0.28038164999999998        0.0000000000000000     
  0.34321279999999998       0.35314412000000001        0.0000000000000000     
  0.29178279000000001       0.56170810000000004        0.0000000000000000     
  0.49833080000000002       0.48416767999999999        0.0000000000000000     
  0.46386271000000001       0.46452802999999998        0.0000000000000000     
  0.44722043000000000       0.45300645000000000        0.0000000000000000     
  0.46562803000000003       0.44419790999999997        0.0000000000000000     
  0.43925322000000000       0.48229485999999999        0.0000000000000000     
  0.49117628000000002       0.45665803999999999        0.0000000000000000     
  0.43435156000000003       0.46523363000000001        0.0000000000000000     
  0.19405754000000000       0.31093060000000000        0.0000000000000000     
  0.22069087000000001       0.66905079000000001        0.0000000000000000     
  0.30776597999999999       0.59042684000000001        0.0000000000000000     
  0.29541507000000000       0.57849362000000004        0.0000000000000000     
  0.28335474999999999       0.61970232999999997        0.0000000000000000     
  0.29935165000000002       0.62852803999999995        0.0000000000000000     
  0.28459435999999999       0.64121777000000002        0.0000000000000000     
  0.26698675999999999       0.63435282999999998        0.0000000000000000     
  0.24031983000000001       0.64700659000000005        0.0000000000000000     
  0.33118850000000000       0.50233682999999996        0.0000000000000000     
  0.35257061000000001       0.51072803000000000        0.0000000000000000     
  0.29038973000000001       0.78732479000000000        0.0000000000000000     
  0.28737915000000003       0.76752330999999996        0.0000000000000000     
  0.21978159000000000       0.73315437000000006        0.0000000000000000     
  0.18119734000000001       0.76257752999999995        0.0000000000000000     
  0.20353571000000001       0.75186065999999996        0.0000000000000000     
  0.39122694000000002       0.49007234000000000        0.0000000000000000     
  0.59140473999999998       0.13507609000000001        0.0000000000000000     
  0.53156702000000000        9.7663528999999999E-002   0.0000000000000000     
  0.76346223999999996       0.39657278000000001        0.0000000000000000     
  0.41119013999999998       0.52354409999999996        0.0000000000000000     
   7.2558165999999993E-002  0.26885883999999999        0.0000000000000000     
  0.10497347000000000       0.79895936000000001        0.0000000000000000     
[...]
 CELL_DATA        2963
 SCALARS Tumor_cells float
 LOOKUP_TABLE default
    0.10922550050958844266E-30
    0.85724059164146958088E-16
    0.46385680922430183069E-19
    0.50849192151386205160E-20
    0.10025354587164849152E-17
    0.15771359355128115022E-25
    0.18698037507160024106E-24
    0.20559687808810759650E-14
    0.66549190561802006523E-37
    0.15538104021747801108E-03
    0.81968572882426415353E-22
    0.70755651603664707617E-18
    0.30360900738941231895E-21
    0.66143145617355995516E-19
    0.29476618623098615655E-35
    0.70624620434371455424E-22
    0.36195847655818151373E-04
    0.22432016734872422322E-21
    0.29823288281612119834E-26
    0.17692619577224036752E-14
    0.12143522574358160594E-17
    0.92590940840742586709E-02
    0.49677994705575545531E-01
    0.45889721031572474650E-15
    0.90191403957789461114E-12
    0.47311106318538324192E-10
    0.60497938144905271362E-12
    0.33605111397845757774E-27
    0.59621024960314182331E-19
    0.21354375402061854964E-13
    0.74351155651556968330E-07
    0.54296896486013180568E-33
    0.15099017436232788736E-16
    0.17043362939729057749E-10
    0.27369925804281178279E-14
    0.88474809231930961577E-11
    0.65166256167153785981E-17
    0.11436806214379425447E-09
    0.27227977726762074317E-26
    0.30939688593367578942E-02
    0.27979189209977997486E-24
    0.19309914032209278869E-18
    0.21239219789342004476E-13
    0.17611594341897391256E-12
    0.11443817878761860065E-33
    0.28726330049108023451E-07
    0.20456305063653185064E-25
    0.64653622694559907344E-31
    0.53758090304415903897E-14
    0.16665777422302648602E-33
    0.51543565426997982678E-08
    0.77574538363759669497E-25
    0.68769967281971943721E-25
    0.77990695915517702316E-20
    0.94405239761610013958E-19
    0.39551121530459841072E-08
    0.19895189804256357653E-25
    0.87016409113679469096E-08
    0.24612415668712721165E-05
    0.85794187485690627303E-23
    0.10497224207475397122E-05
    0.77883827170692837997E-19
    0.19408530781569797534E-31
    0.51272880438418403385E-32
    0.27718414957419984318E-19
    0.24642604347595766939E-06
    0.27210976593346383410E-11
    0.10611634880799052842E-05
    0.60600635875511316142E-01
    0.15536322708058964294E-21
    0.32581332840247904204E-26
    0.68333952857649000009E-06
    0.24413255481712884224E-19
    0.45598071315653336948E-16
    0.11750163138739036744E-03
    0.12632109616260046446E-03
    0.84644618282911400498E-02
    0.18781651932815449432E-04
    0.54153484271507455675E-23
    0.49632867514850996495E-07
    0.33454285365025062470E-30
    0.21211649565703846824E-07
    0.18882086480003557646E-05
    0.14496190235010943809E-02
    0.77316682068973649229E-10
    0.12731371604362901147E-18
    0.14909751039815873200E-23
    0.89377242336494228358E-15
    0.54187184791909527157E-13
    0.10854254362458214353E-28
    0.77003379441537855381E-16
    0.44368864341729169014E-08
    0.24891914752071003791E-01
    0.28450108117879240635E-07
    0.32100400690029685438E-13
    0.14574267125243296442E-08
    0.82378449045942825357E-02
    0.19070184658025976519E-16
    0.85400287183527015306E-15
    0.12921115608773555257E-19
    0.13302073540527424312E-23
    0.48931440481458726975E-15
    0.24314405213403378549E-07
    0.28902923815560604412E-17
    0.14137821980051437859E-03
    0.60108426402798266506E-24
    0.20021547879789041720E-17
    0.91636203885649139592E-30
    0.10663837470174808448E-07
    0.86247688967721478006E-20
    0.40665447579916741233E-21
    0.24704581273377254235E-21
    0.29320128667111724614E-25
    0.81521388065289454746E-21
    0.13803821969042408502E-29
    0.29743843025312038670E-23
    0.30472558531873297831E-31
    0.25266907279572311828E-33
    0.77876132844082628700E-03
    0.13025996419820676798E-04
    0.35513839915887483385E-23
    0.88145508153352234788E-25
    0.12559429460828911512E-21
    0.40399012506340248282E-10
    0.26503439720376822502E-24
    0.40811747930670123641E-11
    0.92474035993840069905E-26
    0.11002566426023384714E-06
    0.67826793725119448168E-06
    0.48512155070970816817E-05
    0.38732988970388127950E-11
    0.44220046158486263187E-08
    0.65082102801882670690E-02
    0.12016976912264214943E-10
    0.11882045262144614952E-07
    0.58789373826962551788E-05
    0.50085171545968581243E-05
    0.41174145240830851253E-08
    0.13948333958527172493E-23
    0.58198911485803791791E-06
    0.36071122079644898117E-05
    0.86467629422892443618E-12
    0.95987138192903775913E-01
    0.30044883345198448959E-05
    0.48575371543297570913E-06
    0.27219665397341223250E-12
    0.68534206703033645723E-20
    0.14049021805694238713E-11
    0.25916198023059118905E-24
    0.25645963260993449894E-06
    0.40637096745348059974E-18
    0.10256753068518552341E+00
    0.81272196118894881153E-06
    0.75250612399780593935E-13
    0.89505305630302233649E-22
    0.25425129142839517223E-17
    0.20049604149591002789E-21
    0.50964664566503646219E-20
    0.43758383454833350305E-23
    0.67247370724371094014E-23
    0.56697950813193142946E-21
    0.91547270948072463322E-22
    0.84506950209593144776E-12
    0.23391125164562422208E-07
    0.82464301632908654396E-19
    0.11852849414477203209E-06
    0.38898040509485520450E-23
    0.25463204599346853367E-08
    0.40427024224187112439E-03
    0.26563379226509131057E-10
    0.40955067733923003481E-02
    0.18038030695906257238E-22
    0.27358668467650049801E-15
    0.16895593397305428774E-08
    0.50435643215956629833E-18
    0.17148526289194477520E-19
    0.16960582311734673931E-15
    0.55618743215000980490E-18
    0.54575784478946384485E-22
    0.42841793441717130666E-24
    0.22062672822870560722E-03
    0.51768026938145104491E-12
    0.21613538682822816743E-10
    0.87730475102961156852E-23
    0.20705193213499275356E-17
    0.10357111882350277287E-16
    0.21951904935463743939E-08
    0.80687751810970789036E-10
    0.18218508860749605195E-05
    0.22209273982334453704E-25
    0.11265677597091556040E-16
    0.21539172778087239263E-01
    0.43781191187512384742E-24
    0.28862328830272731456E-23
    0.27531308335941790440E-03
    0.17162700838464273112E-22
    0.39141914458095906568E-02
    0.95604987152435682779E-09
    0.12837372282588450093E-08
    0.90672048645528256264E-20
    0.39394323705095830632E-11
    0.15103458318606670282E-14
    0.16190430008236912658E-18
    0.50504991681746296333E-08
    0.61612098737887789623E-01
    0.45409319306104291292E-01
    0.36405108766736581538E-09
    0.33609299191942006158E-01
    0.37078129518142766141E-01
    0.28274826704410444061E-22
    0.44286928351918601424E-20
    0.20064615591372833570E-01
    0.72425400201783243781E-01
    0.66704936957638380026E-25
    0.24202381577756519263E-17
    0.13558049238955090129E-18
    0.18522046425086090377E-10
    0.13311873011172527929E-07
    0.94369166691413795670E-04
    0.31400395083296289732E-06
    0.20156490586568757071E-15
    0.21406474981604465834E-18
    0.55452595890271246765E-10
    0.21598956720621008903E-05
    0.47628675592843939772E-06
    0.16620047387423825810E-17
    0.83232491495201991747E-08
    0.45936019165531565962E-10
    0.14464307152206298458E-10
    0.79029683081066004688E-07
    0.66840584217272031300E-09
    0.10363572859616312263E-09
    0.10237805781386805458E-19
    0.21690994151953217839E-04
    0.17067062678292384431E-12
    0.77209986174481799796E-06
    0.33437877715511511456E-30
    0.69546803247060257156E-03
    0.82818569159170213334E-01
    0.62204098175989319675E-01
    0.15882589591168431044E-06
    0.25402848480586911800E-13
    0.13339558671053306296E-02
    0.35869494961311768066E-02
    0.15183605090263575452E-01
    0.32161528711146668143E-10
    0.93421998053643937103E-05
    0.47756389538060132796E-06
    0.36592332041313129079E-09
    0.11718625346956394045E-01
    0.14606820537811219564E-02
    0.93897132936589120395E-16
    0.28786245685179808045E-10
    0.83485129436365448918E-01
    0.45360500181992388275E-12
    0.48514194839072291961E-14
    0.12022027119757141934E-08
    0.21713228329032776983E-08
    0.79379904029067398924E-02
    0.80729470414765195381E-16
    0.42267493608929042337E-02
    0.19427840689656592724E-02
    0.10463613681256909473E-02
    0.55815300188093570455E-14
    0.14612606144163193742E-01
    0.90278949293437699309E-20
    0.83622321190946063973E-01
    0.35596757540136479518E-02
    0.15430065194904751921E-05
    0.23580833710488038890E-01
    0.42155723931908536140E-16
    0.36253467717802747466E-04
    0.80657976055545557020E-02
    0.44227595607358269228E-05
    0.74972544671645662711E-04
    0.13853106722855717949E-20
    0.92273545267292094517E-14
    0.11030090833253772078E-16
    0.79628792290556271084E-23
    0.10216935775627137509E-04
    0.20859480129022840465E-24
    0.50622573265553916979E-07
    0.17147856988597547945E-09
    0.13484521077912555972E-14
    0.35525186013812781423E-04
    0.56147489621537814347E-25
    0.18469504682558427183E-02
    0.91190065826763174904E-05
    0.50505149219796700211E-09
    0.52342847019619225796E-14
    0.14306435491594809950E-14
    0.28482606430867967902E-15
    0.14439379595448146467E-04
    0.17326942789088051137E-26
    0.72239863043514525606E-12
    0.12807470855462498201E-02
    0.79457946225498245728E-04
    0.97975144006552545050E-19
    0.16204791887856390131E+00
    0.15073434551233385149E-05
    0.18669542046391990847E-10
    0.57289332144617460146E-04
    0.32665604217855466811E-07
    0.37121729482353983896E-11
    0.81980819596092859201E-09
    0.83297854940485100134E-21
    0.68718697998262781926E-03
    0.68641833568658396551E-20
    0.65268280962504253082E-02
    0.39560819953753653268E-05
    0.25241896448268858768E-04
    0.47313140999784030748E-09
    0.27037726218027076621E-05
    0.39995949872714981214E-05
    0.20046710794894407635E-18
    0.81695303575829550688E-29
    0.69170581524723000861E-08
    0.14664436406744375731E-07
    0.40054955748851574931E-04
    0.24118919220235936625E-22
    0.44258451328098260334E-09
    0.43472486618312134588E-13
    0.44055868966189705739E-11
    0.30742981557294396508E-22
    0.36827420179642532509E-24
    0.73253132130381168660E-10
    0.15131976074974753025E-14
    0.95471166290576152109E-04
    0.10375655861385357840E-09
    0.69516243231078961562E-21
    0.40444141220266001830E-05
    0.12857158178499478205E-06
    0.29917450218679969343E-21
    0.23412607648228397139E-20
    0.16951852658661219397E-10
    0.12338886041450547861E-23
    0.12110062762760326358E-09
    0.51832586749380070923E-08
    0.39849564127878685112E-11
    0.33818832969110074100E-23
    0.11116998099299768158E-20
    0.51506841371900649422E-11
    0.19882914575015662106E-09
    0.10216648923565281923E-15
    0.80814251546067943175E-03
    0.20037273065419438614E-03
    0.91568739219704064724E-07
    0.16376762035657036494E-10
    0.21918451750291577565E-20
    0.13847437436381477984E-24
    0.87985589963575532363E-24
    0.42188244360318409749E-20
    0.13758784620258868050E-20
    0.35883471116672602089E-18
    0.92504523314306911912E-21
    0.20524620385247368473E-21
    0.31065431526671805988E-19
    0.42197255702372861479E-18
    0.60977726220270479630E-17
    0.10259097563045869898E-14
    0.20741226923125427123E-16
    0.69131271387361841411E-16
    0.78257278546324834426E-13
    0.65743363319389622005E-24
    0.59449422069009346156E-25
    0.21913015197728880084E-24
    0.36027058385001924455E-09
    0.53045473302901147256E-08
    0.17540575399954178026E+00
    0.18580660062345152189E-01
    0.40000137774844735095E-01
    0.39555880500279881617E-01
    0.27390758510300570322E-01
    0.51360722303103248376E-01
    0.59709082665587484562E-01
    0.14152109903582119066E+00
    0.10299360793748450760E+00
    0.18448915228456982257E-01
    0.48818904413509126017E-01
    0.74512754853513232800E-01
    0.42261056733006716057E-01
    0.20026493348556249213E-01
    0.32082117541429948256E-16
    0.39158170593411862370E-17
    0.26877216939527402076E-16
    0.27132675280862783104E-11
    0.13457587218733251551E-07
    0.46718088573616015869E-07
    0.68738698010240147557E-09
    0.63229581626777838242E-07
    0.21647927430954827141E-09
    0.55071493207634650332E-10
    0.20156080480852410826E-10
    0.26411585040805769269E-09
    0.31520006990368296618E-11
    0.34930909434280566527E-11
    0.19759585194646459913E-14
    0.22259864932527574243E-10
    0.14572249711627806164E-25
    0.24360668677665417748E-11
    0.36080501985140166455E-05
    0.79209854248599456618E-05
    0.17249907268801744622E-03
    0.58222875901743516281E-04
    0.38868317456861031021E-24
    0.39901239246009346657E-23
    0.25167592011919074535E-21
    0.59030701667451594624E-23
    0.55576207473337883016E-18
    0.35121822656965598976E-19
    0.87190021784797790045E-20
    0.16259218095285111822E-23
    0.82107426281735486114E-21
    0.79647779969969139971E-22
    0.68374391614438778577E-03
    0.24397075207225013029E-02
    0.10388261072764665431E-12
    0.68701173122647424724E-05
    0.89056594440634607185E-20
    0.35939637978206481940E-19
    0.35857138181291364605E-19
    0.10471284934215221507E-08
    0.25890441886582076191E-09
    0.71593080044217109054E-02
    0.46108489285837748334E-02
    0.10522405631469234684E-28
    0.80215186435214051638E-24
    0.99772221845858365033E-25
    0.79655791129096805973E-27
    0.25685633974249442398E-27
    0.73537916138672618284E-19
    0.71192828027308229575E-19
    0.82139176999586134722E-21
    0.11823463043681363470E-19
    0.95882716386066417426E-18
    0.53449893691503891352E-19
    0.94441927747760444846E-21
    0.13841726673477615020E-24
    0.60864962494778888899E-22
    0.69774452826313691862E-24
    0.48521465230970200687E-23
    0.24579949403538786856E-22
    0.22022040262974210022E-17
    0.37339329626250630219E-14
    0.49092441533066531366E-16
    0.32907931660789909511E-16
    0.14689358782820003447E-15
    0.15259128603924922283E-15
    0.50050024679141959798E-15
    0.89876374225932553419E-13
    0.11615615435470245207E-16
    0.72775693533067871400E-14
    0.14014058506757705802E-13
    0.40962949268907015517E-11
    0.21834444650377866534E-24
    0.43015557480474953818E-23
    0.10640670483183262151E-05
    0.43602100044175555187E-07
    0.10350273611196013237E-06
    0.17879852417832794309E-06
    0.78465133719191851314E-01
    0.87799661820039620608E-01
    0.14789525421204163802E+00
    0.11162701827251825248E+00
    0.27289693725562961220E-17
    0.51543181862440663098E-20
    0.19549507448266264612E-17
    0.37558783991043334261E-17
    0.69819587359700280771E-16
    0.62057403493531548395E-15
    0.57943538779391618727E-19
    0.76348039936840618811E-14
    0.54160529355766367004E-10
    0.17249560009903928330E-09
    0.40696425503119448817E-13
    0.62368443716702344809E-14
    0.89959606121986688868E-12
    0.11812542185429421969E-09
    0.22255067623353729076E-11
    0.12635844772889339007E-07
    0.63329158373392955080E-10
    0.41498492828661296340E-09
    0.14383925472657214675E-05
    0.33474563345253277233E-04
    0.27438319448665197184E-06
    0.10740443352299558958E-05
    0.13430301747115267274E-04
    0.40781413395783914729E-04
    0.82784962557766073342E-05
    0.16161796552074371805E-05
    0.16967243478600068532E-05
    0.44835155780979550280E-05
    0.12793098968184204903E-23
    0.21142330316728761384E-23
    0.30483449295155333902E-24
    0.87679970047497551219E-21
    0.29036921941788565375E-18
    0.39175725921824858114E-19
    0.75297708081429898935E-02
    0.13111586304954628984E-01
    0.17834972198091375760E-20
    0.84426367079675454163E-18
    0.24866509253176503353E-21
    0.13643578117831122454E-09
    0.41826661941715502843E-09
    0.79969815194790771311E-29
    0.18121177626766927908E-26
    0.24922410110039746572E-28
    0.21241958413415923932E-20
    0.19627113892444539661E-16
    0.73636519361478379281E-16
    0.51858473248169029424E-18
    0.61212748840884574630E-01
    0.99901590520924815619E-01
    0.18520562545776925178E+00
    0.18073232262169164342E+00
    0.10513327234315097422E-16
    0.10676630374677828772E-17
    0.18635946346268762164E-15
    0.23981286361440232100E-16
    0.59961771354067752038E-15
    0.49451115894143407037E-15
    0.17214113389950848407E-15
    0.12035211446538410895E-12
    0.21998878648097442112E-09
    0.17440072174743504947E-08
    0.23098264136902804410E-10
    0.60321757172593069312E-09
    0.50622911182656604655E-09
    0.42811378312653496798E-06
    0.40966634238280315368E-08
    0.13672029849979552448E-07
    0.79781208298747364788E-04
    0.11203988897666784829E-04
    0.20698426264683101033E-04
    0.66462386907157008602E-05
    0.22710316461927546348E-04
    0.37601418092338840789E-04
    0.67911888212429073281E-06
    0.98824476047988773483E-05
    0.25416294769642428591E-06
    0.56521073446074609210E-06
    0.66806462863883097251E-07
    0.24130796586952093757E-09
    0.64332932809670458863E-07
    0.14529158761459544559E-06
    0.93053550650278419573E-07
    0.33932777316530926934E-07
    0.32773216770425484977E-23
    0.37840251246322019513E-24
    0.46969017433381744073E-22
    0.49056557352724815672E-33
    0.69598426081956891587E-26
    0.41132435420966643993E-23
    0.26043260011830049228E-22
    0.42143049435046377947E-24
    0.12481463199338329684E-22
    0.25864767655757405946E-22
    0.14648330629752962566E-20
    0.23031085633471873135E-21
    0.69760540951709365408E-21
    0.30520819326616102798E-19
    0.73373079898073992148E-19
    0.18369171982245145220E-17
    0.24686305845248935416E-17
    0.19450937831285641998E-16
    0.43726790994228955942E-18
    0.21205497791692055200E-20
    0.24564268663554590015E-15
    0.19578035006659256532E-15
    0.12093438343419669889E+00
    0.16416280056303522716E+00
    0.17351516127723071051E-10
    0.19338263691658898163E-12
    0.16443802469873571664E-11
    0.69460306619192271398E-11
    0.66572978748533118593E-13
    0.21277770914144889040E-14
    0.32388846505382433414E-13
    0.48667003921362444149E-11
    0.48772184717298843262E-06
    0.56559245613787091459E-10
    0.15375940172577064120E-08
    0.74322389731272029717E-10
    0.24603531828056952703E-10
    0.40222382793859982536E-09
    0.41834478477799032584E-11
    0.78526497398331866286E-12
    0.47189404022195770104E-08
    0.91175914499711071948E-08
    0.13318466270392794521E-08
    0.33670935149244062028E-07
    0.60814245028310976244E-10
    0.13377899002251176982E-07
    0.84176582580158586653E-07
    0.16722424111368046702E-06
    0.24657518871864492395E-07
    0.70065554224963636277E-07
    0.13051466914213914300E-04
    0.32644671197945497772E-04
    0.86572183806542845675E-04
    0.38037566602380474092E-04
    0.39949005674395882777E-03
    0.19047946144888370569E-03
    0.79176500223491882633E-05
    0.29411758769829089423E-05
    0.17937383819427094906E-24
    0.57080753498055045185E-26
    0.25271549724615912971E-06
    0.38307241349973010928E-07
    0.56853117110829187592E-11
    0.87411272957417184641E-10
    0.12406209116852681897E-13
    0.20757965919683508338E-09
    0.10423813661946328559E-09
    0.15128546431996805581E-07
    0.12563678173178680158E-11
    0.23981752364311791128E-10
    0.44515957461612714118E-22
    0.18124915448207033263E-20
    0.20059126655083608392E-09
    0.21747608474322438096E-10
    0.40485501741718402996E-25
    0.80740767766830257651E-23
    0.64393733045151700185E-28
    0.28677012802675018545E-25
    0.13718706510157287671E-23
    0.14819871680415019760E-20
    0.56673653531936006033E-19
    0.49208820272407984758E-17
    0.30649731906055399276E-22
    0.30338914162686899291E-21
    0.43699197956129622662E-18
    0.12669002142025474437E-20
    0.19038265691860494142E-15
    0.79397168289408174815E-18
    0.40683772752453199999E-03
    0.53370453087419040113E-06
    0.39687648372849545087E-04
    0.18565595988449448407E-04
    0.10940075687209431524E-04
    0.22653125797334687900E-06