# vtk DataFile Version 3.0
LAPLACIEN  2D
ASCII
DATASET UNSTRUCTURED_GRID
 POINTS        1616  float
  0.45880792999999997       0.87913892999999999        0.0000000000000000     
  0.40372658000000000       0.18243693000000000        0.0000000000000000     
  0.52563972999999997       0.19039755999999999        0.0000000000000000     
  0.45642953000000003       0.24226190000000000        0.0000000000000000     
  0.51984098000000001       0.24548566999999999        0.0000000000000000     
  0.21212766999999999       0.18957676000000001        0.0000000000000000     
  0.28573643999999998       0.48586826999999999        0.0000000000000000     
  0.49667887999999999       0.82979849000000006        0.0000000000000000     
  0.22848407000000001       0.23366793000000000        0.0000000000000000     
  0.27860389000000002       0.86069733000000004        0.0000000000000000     
  0.36563702999999997       0.80971340999999997        0.0000000000000000     
  0.28045499000000002       0.80393031999999998        0.0000000000000000     
  0.40374228000000001       0.78127665000000002        0.0000000000000000     
  0.56160891999999996       0.55341227999999998        0.0000000000000000     
  0.37210935000000001       0.26787699999999998        0.0000000000000000     
  0.49899838000000002       0.57286409999999999        0.0000000000000000     
  0.41023869000000002       0.33464665999999998        0.0000000000000000     
  0.33484156999999998       0.29151022999999998        0.0000000000000000     
  0.46758665999999999       0.58262307999999996        0.0000000000000000     
  0.43303693999999998       0.36569945999999998        0.0000000000000000     
  0.25741280000000000       0.61805882999999995        0.0000000000000000     
  0.28853707000000001       0.59423020000000004        0.0000000000000000     
  0.67837254000000002       0.45038665999999999        0.0000000000000000     
  0.42159046000000000       0.50697913999999999        0.0000000000000000     
  0.60276470999999998       0.73940291000000002        0.0000000000000000     
  0.30758273000000003       0.77844542000000005        0.0000000000000000     
  0.45367541000000000       0.31842187000000000        0.0000000000000000     
  0.36974101999999998       0.35807864000000000        0.0000000000000000     
  0.26919625000000003       0.65312176000000000        0.0000000000000000     
  0.61908110999999999       0.42741791000000001        0.0000000000000000     
  0.54442267000000000       0.74200747000000000        0.0000000000000000     
  0.58930464999999999       0.41588288000000001        0.0000000000000000     
  0.51511633000000001       0.74331579000000003        0.0000000000000000     
  0.12878382999999999       0.33122940000000001        0.0000000000000000     
  0.15534365000000000       0.71749246000000000        0.0000000000000000     
  0.64877724999999997       0.30161799000000000        0.0000000000000000     
  0.58853643000000000       0.28101930000000003        0.0000000000000000     
  0.56390348000000001       0.30132482999999999        0.0000000000000000     
  0.29605991999999998       0.44474459999999999        0.0000000000000000     
  0.29900669000000002       0.52983276000000001        0.0000000000000000     
  0.55954318999999997       0.48654808999999999        0.0000000000000000     
  0.42341458999999998       0.38785072999999998        0.0000000000000000     
  0.45806291999999998       0.35892998999999998        0.0000000000000000     
  0.47820750000000001       0.31147424000000001        0.0000000000000000     
  0.36344222999999998       0.38139388000000002        0.0000000000000000     
  0.17186508000000000       0.28159534000000003        0.0000000000000000     
  0.18029876000000000       0.33292397000000001        0.0000000000000000     
  0.20696366999999999       0.71822465999999996        0.0000000000000000     
  0.61326404999999995       0.34468346000000000        0.0000000000000000     
  0.29887186999999998       0.42337377999999998        0.0000000000000000     
  0.33271837999999998       0.44383096000000000        0.0000000000000000     
  0.31835012000000001       0.54267131999999996        0.0000000000000000     
  0.54882964999999995       0.45462609999999998        0.0000000000000000     
  0.20448143999999999       0.28717446000000002        0.0000000000000000     
  0.20634120000000000       0.33378063000000002        0.0000000000000000     
  0.23301781999999999       0.71859421999999995        0.0000000000000000     
  0.58606499999999995       0.35199907000000002        0.0000000000000000     
  0.20841100000000001       0.45369578999999999        0.0000000000000000     
  0.24778198000000001       0.77708496000000005        0.0000000000000000     
  0.30748062999999998       0.61002621000000001        0.0000000000000000     
  0.23337332000000000       0.41981835000000001        0.0000000000000000     
  0.25985113999999998       0.75924943000000000        0.0000000000000000     
  0.24610213000000000       0.40254353999999998        0.0000000000000000     
  0.37350351999999998       0.50127178999999999        0.0000000000000000     
  0.43235204999999999       0.78236391000000005        0.0000000000000000     
  0.30749858000000002       0.28582627999999999        0.0000000000000000     
  0.30336816000000000       0.64635111000000001        0.0000000000000000     
  0.31418906000000002       0.43625961000000002        0.0000000000000000     
  0.27223414000000001       0.78063022000000004        0.0000000000000000     
  0.22829299000000000       0.75089561000000005        0.0000000000000000     
  0.26580239000000000       0.42989294000000000        0.0000000000000000     
  0.37369119000000001       0.51975733999999996        0.0000000000000000     
  0.39681665999999999       0.51027884000000001        0.0000000000000000     
  0.32086795000000001       0.65137668999999998        0.0000000000000000     
  0.31757218999999998       0.62987181000000003        0.0000000000000000     
  0.32959777000000001       0.42500900000000003        0.0000000000000000     
  0.24663835000000001       0.74537787000000000        0.0000000000000000     
  0.26354222999999999       0.41075105000000001        0.0000000000000000     
  0.28343712999999998       0.43221330000000002        0.0000000000000000     
  0.34682245000000000       0.43182289000000001        0.0000000000000000     
  0.35306810000000000       0.45344571000000000        0.0000000000000000     
  0.57327218000000002       0.15829040000000000        0.0000000000000000     
  0.51473097999999995       0.12621746000000000        0.0000000000000000     
  0.72829681999999996       0.40151571000000003        0.0000000000000000     
  0.42703184999999999       0.53501600999999999        0.0000000000000000     
  0.32612607999999998       0.75472421999999995        0.0000000000000000     
   9.9814849999999997E-002  0.28081352999999998        0.0000000000000000     
  0.13945825000000001       0.78732252999999996        0.0000000000000000     
  0.44199519999999998       0.38275643999999998        0.0000000000000000     
  0.40132215999999998       0.36508836000000000        0.0000000000000000     
  0.43963142999999999       0.34043466999999999        0.0000000000000000     
  0.47160058999999999       0.33493045999999999        0.0000000000000000     
  0.45615203999999998       0.28038164999999998        0.0000000000000000     
  0.34321279999999998       0.35314412000000001        0.0000000000000000     
  0.29178279000000001       0.56170810000000004        0.0000000000000000     
  0.49833080000000002       0.48416767999999999        0.0000000000000000     
  0.46386271000000001       0.46452802999999998        0.0000000000000000     
  0.44722043000000000       0.45300645000000000        0.0000000000000000     
  0.46562803000000003       0.44419790999999997        0.0000000000000000     
  0.43925322000000000       0.48229485999999999        0.0000000000000000     
  0.49117628000000002       0.45665803999999999        0.0000000000000000     
  0.43435156000000003       0.46523363000000001        0.0000000000000000     
  0.19405754000000000       0.31093060000000000        0.0000000000000000     
  0.22069087000000001       0.66905079000000001        0.0000000000000000     
  0.30776597999999999       0.59042684000000001        0.0000000000000000     
  0.29541507000000000       0.57849362000000004        0.0000000000000000     
  0.28335474999999999       0.61970232999999997        0.0000000000000000     
  0.29935165000000002       0.62852803999999995        0.0000000000000000     
  0.28459435999999999       0.64121777000000002        0.0000000000000000     
  0.26698675999999999       0.63435282999999998        0.0000000000000000     
  0.24031983000000001       0.64700659000000005        0.0000000000000000     
  0.33118850000000000       0.50233682999999996        0.0000000000000000     
  0.35257061000000001       0.51072803000000000        0.0000000000000000     
  0.29038973000000001       0.78732479000000000        0.0000000000000000     
  0.28737915000000003       0.76752330999999996        0.0000000000000000     
  0.21978159000000000       0.73315437000000006        0.0000000000000000     
  0.18119734000000001       0.76257752999999995        0.0000000000000000     
  0.20353571000000001       0.75186065999999996        0.0000000000000000     
  0.39122694000000002       0.49007234000000000        0.0000000000000000     
  0.59140473999999998       0.13507609000000001        0.0000000000000000     
  0.53156702000000000        9.7663528999999999E-002   0.0000000000000000     
  0.76346223999999996       0.39657278000000001        0.0000000000000000     
  0.41119013999999998       0.52354409999999996        0.0000000000000000     
   7.2558165999999993E-002  0.26885883999999999        0.0000000000000000     
  0.10497347000000000       0.79895936000000001        0.0000000000000000     
[...]
 CELL_DATA        2963
 SCALARS Tumor_cells float
 LOOKUP_TABLE default
    0.12262995009331005908E-15
    0.74615873653655044616E-08
    0.15474872435733325732E-09
    0.35407686231898836556E-10
    0.49658335621174319679E-09
    0.11742648148513138905E-12
    0.20373096983434412818E-12
    0.24803777305017851410E-07
    0.14075974831887340687E-19
    0.12889692411950863082E-02
    0.13878562845512022348E-10
    0.59350399802654971877E-09
    0.80755718570785746138E-11
    0.36932191823233322325E-09
    0.18609991073648150340E-18
    0.34283932556613686604E-11
    0.70016712841695384877E-03
    0.12598389970355092463E-10
    0.64207075883180801949E-13
    0.24917314170124388547E-07
    0.88017094112928788053E-09
    0.18291840289034796280E-01
    0.41739471205633538187E-01
    0.16228533456828442403E-07
    0.47315320435367633132E-06
    0.41962061170364999712E-04
    0.14957752174121261882E-06
    0.19728958948739859001E-13
    0.19160239143319777612E-09
    0.15525174149696249498E-07
    0.21499080210613278827E-03
    0.23706520574812584766E-17
    0.30890503030827527240E-08
    0.17116469594536429319E-05
    0.12464677513635722546E-07
    0.49068177555896411312E-06
    0.16136601427122425021E-08
    0.35269943037646730199E-05
    0.50104843011213895743E-14
    0.40863537640105536408E-01
    0.30829373670834589988E-13
    0.20705727078735118862E-09
    0.88373070959970903169E-07
    0.49856294894332889267E-07
    0.99207400519520419387E-18
    0.27258118202815539120E-04
    0.95040949992961357700E-14
    0.59061853356294797780E-16
    0.74814689026041910871E-08
    0.14042552126520146500E-17
    0.15781825699949697978E-04
    0.87262983997674817800E-14
    0.89757318984290387910E-14
    0.48002215544980861979E-11
    0.21468669179862255742E-09
    0.60452210466476938820E-04
    0.83351557458866066034E-14
    0.25279115003192386844E-04
    0.78601379028212409487E-04
    0.13508748564735985263E-11
    0.91907326520772699612E-04
    0.42044028508056550537E-09
    0.55090255160593815470E-16
    0.54307583776746280125E-17
    0.15457766122419033298E-09
    0.63465363503599890745E-04
    0.11027648891010847625E-05
    0.73950160435316394177E-04
    0.13754996454537501971E+00
    0.98160194175493500459E-11
    0.37559087686251536422E-14
    0.98537066573989426279E-04
    0.41017712423640604093E-10
    0.11354406761431174581E-08
    0.10358993306056722434E-02
    0.11308907394594596568E-02
    0.16484422734008252059E-01
    0.20062426362487658987E-03
    0.10548297362709018089E-12
    0.34725096834091015332E-04
    0.79314910820879060443E-16
    0.26748997937744388296E-04
    0.98068043846331361254E-04
    0.51338207175686293923E-02
    0.41365611190979911376E-05
    0.52260349441476733034E-09
    0.16782772469556243813E-11
    0.28334517665546013780E-07
    0.13492336978145302113E-06
    0.24154471766218624726E-14
    0.74446076608676722599E-08
    0.15716872252209001951E-04
    0.37111937441468435817E-01
    0.42046494235402085749E-04
    0.13087995645458457396E-06
    0.16158046425010655974E-04
    0.17478896843170655534E-01
    0.39794899216707947518E-08
    0.28149686191184582193E-08
    0.77830402146255643033E-10
    0.29321194516691740551E-12
    0.18475626924983506098E-07
    0.38388968635521339694E-04
    0.15019568217058304205E-08
    0.66604636093863349433E-02
    0.66936143003655129058E-12
    0.12556747564695304607E-08
    0.10073899264075929124E-14
    0.19713999063159484595E-04
    0.76459436252810394045E-10
    0.24193410972500326186E-10
    0.70567823778850362437E-11
    0.32124971665708643173E-13
    0.16498007695834791582E-10
    0.56138102188862301281E-15
    0.74748445558650068881E-12
    0.97433675758176278421E-16
    0.65354545634032803474E-17
    0.35049725535105965939E-02
    0.52198459064947797144E-03
    0.69119443433391555996E-12
    0.24754158205286287316E-12
    0.54263033912022626619E-12
    0.22550537818100033838E-05
    0.13714784784113913469E-13
    0.88460067499784682254E-06
    0.89717763372621755996E-13
    0.49974514611974804915E-04
    0.10515653387184770596E-02
    0.14016181054994072616E-03
    0.80484173039689102668E-06
    0.20190608867300813956E-04
    0.61006915385440056709E-01
    0.11711985588296393001E-05
    0.87674401009914186664E-04
    0.39263034574100986410E-03
    0.37372977370581387992E-03
    0.11608541127467773640E-03
    0.83980842052848095746E-12
    0.82228054045964664876E-03
    0.86250189609087961383E-04
    0.47153439193770775264E-06
    0.13804172490055149902E+00
    0.30892242408425246410E-03
    0.15446396289973263324E-03
    0.31608459193792819816E-06
    0.15344381786768145810E-09
    0.55954629180528872505E-06
    0.21160746045118721196E-12
    0.34103615323661634054E-03
    0.72942538956258862050E-09
    0.12985118553273636288E+00
    0.18898622281362397910E-03
    0.21053537482503037213E-06
    0.15579067816946165794E-11
    0.10963750254725645188E-09
    0.62674160150986768388E-12
    0.13904900802005751740E-10
    0.40516257550309735181E-12
    0.45559379735437625818E-12
    0.44758089078903234533E-11
    0.18304873550185991807E-11
    0.47864232106856398707E-06
    0.45003202231308301196E-04
    0.22205437898558849689E-09
    0.89780502452184077601E-04
    0.70482607721491600780E-13
    0.14482354941702402449E-04
    0.27087481586497946622E-02
    0.16882764082016495013E-05
    0.10494588477142231114E-01
    0.67031425015521049402E-12
    0.15687867012906187873E-08
    0.10301748284358621261E-04
    0.57096250560560625279E-10
    0.92730963253099944540E-11
    0.10375204463127508606E-07
    0.64336635813373210062E-09
    0.40358730850266613192E-11
    0.19281294666625628275E-13
    0.18325547008611802000E-02
    0.99553906677149354935E-07
    0.84608129860345524286E-06
    0.13893529193432866113E-11
    0.12312278323082924235E-09
    0.28715981465640155222E-09
    0.45782221664732281161E-04
    0.27251804197886876098E-04
    0.25412386025689201333E-03
    0.77179419197256615781E-14
    0.16705409713415358709E-08
    0.98152443816007434174E-01
    0.65273725457226903932E-12
    0.61696536859026785708E-13
    0.77943105723579748575E-02
    0.14154341844281160623E-12
    0.33395039039339415032E-01
    0.10359949843863512159E-04
    0.89028312544302882868E-05
    0.51924054296302188761E-11
    0.28454439846958733471E-06
    0.46472874239753188413E-08
    0.32156902844480209454E-09
    0.16093745616512044173E-04
    0.75354279982662072945E-01
    0.59774394211056403048E-01
    0.56011435532280453615E-05
    0.56474738763793781715E-01
    0.10051813382272331565E+00
    0.26022395442996196793E-12
    0.44920227389196168619E-11
    0.25000216122082537240E-01
    0.53699407320071168570E-01
    0.10741231451145354386E-12
    0.13002024004920478265E-08
    0.38482065426168752904E-09
    0.17544591459396352714E-05
    0.52296417799230022268E-04
    0.64956146138338277662E-02
    0.60056215350872004552E-04
    0.91014163168123452913E-08
    0.34327215382732871957E-09
    0.89926374352504299974E-05
    0.87192850553256150874E-04
    0.61561187428345930735E-04
    0.63400346964043537455E-09
    0.85753084866014000348E-04
    0.24906917526065372913E-05
    0.15061679481931511077E-05
    0.88757782441723734757E-04
    0.77945707378077737392E-05
    0.20216192882375969020E-05
    0.74307958332311097035E-10
    0.24565316944314121925E-02
    0.22259788110009082373E-06
    0.31525072519453180460E-03
    0.43505618574576707068E-15
    0.15336503928798579308E-01
    0.64289462823499565758E-01
    0.12646387773751893713E+00
    0.44411576734922547432E-04
    0.17985430482427039393E-07
    0.30072964890861465098E-01
    0.34438829382217123198E-01
    0.19927185974240951838E-01
    0.45394641591047989149E-04
    0.11982335045545807785E-02
    0.14350718244396349450E-03
    0.12020674286385034304E-03
    0.51708768549038587603E-01
    0.53220050022574315329E-02
    0.67025319110703676212E-08
    0.15116763134481462147E-04
    0.13802171866522791599E+00
    0.38899862005017936936E-06
    0.44977111896369524750E-07
    0.88884192658534011525E-05
    0.17202588453392832820E-03
    0.14354406496561967002E-01
    0.79018457069322605761E-08
    0.99884333588975415807E-02
    0.64549246826032359928E-02
    0.45123365752053187436E-02
    0.84851805558008820041E-08
    0.23756130408467662773E-01
    0.52227925713285916429E-11
    0.12224199754933101625E+00
    0.93949057419010790354E-02
    0.65555149929063226150E-03
    0.39122038038235114332E-01
    0.37734125401370202390E-08
    0.23770345212946785221E-02
    0.14203564600999432632E-01
    0.77762999244734018825E-03
    0.24086353835667704756E-02
    0.30776857636279428803E-10
    0.11381548952205094695E-07
    0.29178781970153479962E-08
    0.97861808814165759828E-13
    0.75047813487122091471E-03
    0.55289471664744771921E-12
    0.51767064770101507741E-04
    0.64701174925840322129E-05
    0.14519515487663381750E-07
    0.13850394245892574344E-02
    0.76867732739540219807E-14
    0.22684992422111662641E-01
    0.83170249571379068106E-03
    0.14107319788251326841E-03
    0.32382712168641864654E-07
    0.18335372378645880510E-07
    0.77587630931426371028E-08
    0.15849240782944001849E-02
    0.21166151150349919758E-13
    0.10720387894898966035E-06
    0.32302996847458423368E-01
    0.15017138672291895085E-02
    0.80809873599670712369E-10
    0.12825148767426877705E+00
    0.65842519043420467267E-03
    0.27472712512467249689E-05
    0.26366754279115597014E-02
    0.14362056491878504721E-03
    0.30135405563404121415E-05
    0.28572891991900593292E-04
    0.14881678436890007575E-11
    0.55507337756960008907E-02
    0.59695047922480283242E-11
    0.15703086616830602001E-01
    0.12067951529247701592E-02
    0.71967993844454557564E-03
    0.62921628727463068323E-05
    0.13200461629781549099E-02
    0.81320019523758654834E-03
    0.32931165811947909092E-09
    0.16794920713575328089E-14
    0.19567956373627174241E-04
    0.21282177947594724905E-03
    0.11474709885112359745E-01
    0.22878336333863537059E-11
    0.22783478542206558236E-04
    0.10586546813902843338E-06
    0.21681597996176549619E-05
    0.20599429838106140333E-11
    0.91899886114494564981E-12
    0.82877362271241603010E-05
    0.49021918286346589163E-07
    0.50411178634762300946E-02
    0.10496897430104631043E-04
    0.54876801922142856858E-10
    0.17886861811723295777E-03
    0.46713963658782794379E-04
    0.24450343770250922608E-10
    0.73249446607622821052E-10
    0.19669542947106585050E-05
    0.59763905498858748315E-13
    0.33483489928180297305E-05
    0.62416870434580702534E-04
    0.24984342412421579229E-05
    0.60218959304053858815E-12
    0.17188168170737248319E-10
    0.36779728107934623760E-05
    0.69138670823392983297E-04
    0.60535915726397659207E-08
    0.39064044103362949301E-02
    0.35490330871137979948E-02
    0.57788800072814887180E-04
    0.37405611610033917926E-05
    0.12097253764277113259E-10
    0.40506403610267848686E-12
    0.93142527470838460299E-12
    0.46531585161098772277E-10
    0.33281837889781661674E-10
    0.40127567219271969792E-10
    0.20443689347676131117E-11
    0.63803976739898630566E-12
    0.12034740314316151221E-10
    0.46437249571700366460E-10
    0.19116662975886067342E-09
    0.31498022998962115077E-08
    0.36372961386654091314E-09
    0.80084733403726330210E-09
    0.48165833512202251592E-07
    0.46152578633566114039E-13
    0.76626294099672643833E-14
    0.17652732812262239576E-13
    0.81483828877453746552E-05
    0.25079264873817173036E-04
    0.16907320261190295074E+00
    0.30256424549399467405E-01
    0.69495546983599248980E-01
    0.38868368476916187459E-01
    0.46988073526379459111E-01
    0.50417034451824695174E-01
    0.99086934642719476374E-01
    0.10650887258996930007E+00
    0.70487406852816070213E-01
    0.22922098697672879664E-01
    0.78858980114482182810E-01
    0.11498058879984039693E+00
    0.49530587264175467144E-01
    0.26204132426100812392E-01
    0.43756996051879005844E-08
    0.13609307954989676487E-08
    0.49618484976556573591E-08
    0.11400108103230366896E-05
    0.33140420037649943733E-04
    0.56999404090551033402E-04
    0.11583922553597626775E-04
    0.68183371793767506472E-04
    0.52190362801544435659E-05
    0.28611438544281095762E-05
    0.18907996103744108289E-05
    0.60092770184896812511E-05
    0.74875514119520778761E-06
    0.86828686038941597920E-06
    0.36341146013375280074E-07
    0.24694060638775080218E-05
    0.21438535273400272225E-12
    0.76482684312489610301E-06
    0.31749905111458473668E-03
    0.19662755665605054548E-03
    0.14442647618547045478E-02
    0.77993657107551495576E-03
    0.31551899454522119637E-12
    0.96590885444310232508E-12
    0.95928239754701085784E-11
    0.86731065928528548113E-12
    0.71875397014443320903E-09
    0.17222338090177724691E-09
    0.88240568367190258027E-10
    0.89844194110140005890E-12
    0.26807764000831795489E-10
    0.66980706756711960177E-11
    0.33662752319242399655E-02
    0.74971508575659064760E-02
    0.36853023506256797860E-06
    0.12515348120329547140E-03
    0.48503686928112094524E-10
    0.14025918810246646715E-09
    0.85608045983671647205E-10
    0.16606102211985969007E-03
    0.63597972488698965745E-04
    0.14044082385719639655E-01
    0.11262249674251550643E-01
    0.25831436026668793290E-14
    0.26678507031435847944E-12
    0.32595509391200668702E-12
    0.32462504792609166879E-13
    0.11940699852784733600E-13
    0.20907257033925460779E-10
    0.16202578899156778610E-10
    0.12989942318774283292E-11
    0.56764205436122108858E-11
    0.70289058710698805585E-10
    0.13134342199787177101E-10
    0.14598578357475493767E-11
    0.13465697637100607918E-13
    0.29026566976141601788E-12
    0.28557297304010919987E-13
    0.79250528048028322170E-13
    0.18330803737904655142E-12
    0.13079418019637865263E-09
    0.68486590061486885716E-08
    0.63782984307093042981E-09
    0.52258793962320741944E-09
    0.10979275455517537415E-08
    0.11878349528411990870E-08
    0.21797201474674004830E-08
    0.43992690448270517892E-07
    0.29979052422974535504E-09
    0.15158226889835062342E-07
    0.19392548241084749369E-07
    0.40143342825647830365E-06
    0.12001440980967688027E-13
    0.74138968242839933693E-13
    0.20237142205539393404E-03
    0.60376567558015666732E-04
    0.67684395428316051959E-04
    0.10426384560079145626E-03
    0.12648378215788474987E+00
    0.10472990235849066742E+00
    0.16132825198482197981E+00
    0.13035196602856069514E+00
    0.13666174379172919310E-08
    0.64107062545156157493E-10
    0.10519483386809237389E-08
    0.13046757282358682786E-08
    0.49867081528380962501E-08
    0.16256731836698448681E-07
    0.28760439712694202476E-09
    0.58944871652933042522E-07
    0.39684114489896317999E-05
    0.61753442549195548491E-05
    0.13383270681079864824E-06
    0.71748185020488388009E-07
    0.61791679505681037839E-06
    0.60767267610641167636E-05
    0.86410837858171503608E-06
    0.34531901629105894757E-04
    0.44925776094534535502E-05
    0.10241214173147079590E-04
    0.23268271506474250436E-03
    0.70771651066715260577E-03
    0.12098058193611862078E-03
    0.17849663745480185491E-03
    0.51227600067073602187E-03
    0.83051970329034885843E-03
    0.40252845698655420831E-03
    0.17141377091560750802E-03
    0.12719482054844414871E-03
    0.25447132031408920081E-03
    0.39567357640464781105E-12
    0.41234247637895784485E-12
    0.39638744608123177981E-12
    0.24420642599186245645E-10
    0.65285065212919109843E-09
    0.17750931234998157099E-09
    0.14770123244100824209E-01
    0.20889132714388428114E-01
    0.22142675746653481581E-10
    0.66525377870589024042E-09
    0.77174751417757438109E-11
    0.74126886684090667699E-04
    0.79627864337284906407E-04
    0.27645020884190401858E-14
    0.46165521551074984421E-13
    0.37701478248455815967E-14
    0.23520401204369419736E-11
    0.49828997144374844069E-09
    0.84281517845685706001E-09
    0.75792916327255107631E-10
    0.11752111772044269988E+00
    0.15004350357038231945E+00
    0.16188662972271383733E+00
    0.15333390966528437360E+00
    0.24068787274088623085E-08
    0.82711137932642713335E-09
    0.72917729574846714437E-08
    0.33587100375442004863E-08
    0.19974344419715679159E-07
    0.19635119457585566491E-07
    0.12760089334259435502E-07
    0.33819828334567850289E-06
    0.74342079912907023303E-05
    0.16155147386122017922E-04
    0.33086054751641783071E-05
    0.10842231233990362187E-04
    0.11085168958449886752E-04
    0.13130659098876579813E-03
    0.25970684671274276247E-04
    0.38429264710782123893E-04
    0.97890113406557278247E-03
    0.50525100829230723456E-03
    0.31951723680644637023E-03
    0.24256467156157161509E-03
    0.40344605233267965237E-03
    0.36155242412461391192E-03
    0.13821009610119849810E-03
    0.37382058194865600779E-03
    0.91618338238105183693E-04
    0.10547572846623965717E-03
    0.55945822040097024311E-04
    0.51272852863301262292E-05
    0.43664360427413562594E-04
    0.61229961248408459559E-04
    0.66358372822063237464E-04
    0.40479094351267965260E-04
    0.15425104280517082863E-11
    0.51278509725670424655E-12
    0.57270439625932784129E-11
    0.11086062524164737476E-16
    0.56385515582773391600E-13
    0.16635228913251652893E-11
    0.43055465132276369910E-11
    0.46979111422452152602E-12
    0.27870391615103661721E-11
    0.41296027541047299713E-11
    0.33031941247967561316E-10
    0.14319966070231779737E-10
    0.21549579739007112775E-10
    0.18844679135313236838E-09
    0.14846858700727012662E-10
    0.11721526769082293709E-09
    0.13395527568373417042E-09
    0.40624869623234690723E-09
    0.51594666702985038384E-10
    0.49230099600590825258E-11
    0.22503045041324009474E-08
    0.14324567282230056775E-08
    0.15934311669532380540E+00
    0.16342847730633708325E+00
    0.24908894510702733535E-05
    0.35933929432069654068E-06
    0.94015720771440167193E-06
    0.18226968779628246108E-05
    0.21888839021933108814E-06
    0.50012246845956213295E-07
    0.18158129256557190959E-06
    0.16904710846206501413E-05
    0.15152950165936383549E-03
    0.44927818748379422676E-05
    0.16298661533765103284E-04
    0.34388439855688090976E-05
    0.31376558970588243657E-05
    0.10792124082660046490E-04
    0.14032220347930854795E-05
    0.71258179283659684727E-06
    0.26093087257521695995E-04
    0.35718852590102792197E-04
    0.17068265461738586140E-04
    0.56220130812350006919E-04
    0.50643740800982636063E-05
    0.41196657983973069281E-04
    0.77661659134547168727E-04
    0.10170458118946145310E-03
    0.49277664886383928597E-04
    0.76014688304936017913E-04
    0.45871806803579362770E-03
    0.58115676957239852714E-03
    0.76097861073176847977E-03
    0.53452605762671732016E-03
    0.22283221667793338613E-02
    0.16393548047385047683E-02
    0.42004818048172625801E-03
    0.26187791434856440547E-03
    0.33784925566264950499E-12
    0.13709001410870658218E-12
    0.12142049733303066029E-03
    0.53511118057721391455E-04
    0.19093084376188254200E-05
    0.55202931275532188786E-05
    0.86248613041686573613E-07
    0.59600490896609332312E-05
    0.48095610337370297020E-05
    0.38601970267605821389E-04
    0.90119669684036968522E-06
    0.29414330801418450353E-05
    0.70461197806160677868E-11
    0.33673052365666171865E-10
    0.78943341277467050492E-05
    0.32544627491025602377E-05
    0.16960692793154564858E-12
    0.29893687422364651593E-11
    0.71709909290601582424E-14
    0.20208603032426655914E-12
    0.14898968162597430028E-11
    0.50940857654665669990E-10
    0.54708096463204254105E-10
    0.70612987736975745841E-09
    0.86727939900438753536E-12
    0.37495262670874725324E-11
    0.16355677046567302108E-09
    0.74539090602364105159E-11
    0.47319493919440410681E-08
    0.26437728265054099151E-09
    0.56997948699064162129E-02
    0.43436343088953493748E-03
    0.12229007840579761684E-02
    0.15301709921522028100E-02
    0.13361352189572557689E-02
    0.28368371382206901410E-03