# vtk DataFile Version 3.0
LAPLACIEN  2D
ASCII
DATASET UNSTRUCTURED_GRID
 POINTS        1616  float
  0.45880792999999997       0.87913892999999999        0.0000000000000000     
  0.40372658000000000       0.18243693000000000        0.0000000000000000     
  0.52563972999999997       0.19039755999999999        0.0000000000000000     
  0.45642953000000003       0.24226190000000000        0.0000000000000000     
  0.51984098000000001       0.24548566999999999        0.0000000000000000     
  0.21212766999999999       0.18957676000000001        0.0000000000000000     
  0.28573643999999998       0.48586826999999999        0.0000000000000000     
  0.49667887999999999       0.82979849000000006        0.0000000000000000     
  0.22848407000000001       0.23366793000000000        0.0000000000000000     
  0.27860389000000002       0.86069733000000004        0.0000000000000000     
  0.36563702999999997       0.80971340999999997        0.0000000000000000     
  0.28045499000000002       0.80393031999999998        0.0000000000000000     
  0.40374228000000001       0.78127665000000002        0.0000000000000000     
  0.56160891999999996       0.55341227999999998        0.0000000000000000     
  0.37210935000000001       0.26787699999999998        0.0000000000000000     
  0.49899838000000002       0.57286409999999999        0.0000000000000000     
  0.41023869000000002       0.33464665999999998        0.0000000000000000     
  0.33484156999999998       0.29151022999999998        0.0000000000000000     
  0.46758665999999999       0.58262307999999996        0.0000000000000000     
  0.43303693999999998       0.36569945999999998        0.0000000000000000     
  0.25741280000000000       0.61805882999999995        0.0000000000000000     
  0.28853707000000001       0.59423020000000004        0.0000000000000000     
  0.67837254000000002       0.45038665999999999        0.0000000000000000     
  0.42159046000000000       0.50697913999999999        0.0000000000000000     
  0.60276470999999998       0.73940291000000002        0.0000000000000000     
  0.30758273000000003       0.77844542000000005        0.0000000000000000     
  0.45367541000000000       0.31842187000000000        0.0000000000000000     
  0.36974101999999998       0.35807864000000000        0.0000000000000000     
  0.26919625000000003       0.65312176000000000        0.0000000000000000     
  0.61908110999999999       0.42741791000000001        0.0000000000000000     
  0.54442267000000000       0.74200747000000000        0.0000000000000000     
  0.58930464999999999       0.41588288000000001        0.0000000000000000     
  0.51511633000000001       0.74331579000000003        0.0000000000000000     
  0.12878382999999999       0.33122940000000001        0.0000000000000000     
  0.15534365000000000       0.71749246000000000        0.0000000000000000     
  0.64877724999999997       0.30161799000000000        0.0000000000000000     
  0.58853643000000000       0.28101930000000003        0.0000000000000000     
  0.56390348000000001       0.30132482999999999        0.0000000000000000     
  0.29605991999999998       0.44474459999999999        0.0000000000000000     
  0.29900669000000002       0.52983276000000001        0.0000000000000000     
  0.55954318999999997       0.48654808999999999        0.0000000000000000     
  0.42341458999999998       0.38785072999999998        0.0000000000000000     
  0.45806291999999998       0.35892998999999998        0.0000000000000000     
  0.47820750000000001       0.31147424000000001        0.0000000000000000     
  0.36344222999999998       0.38139388000000002        0.0000000000000000     
  0.17186508000000000       0.28159534000000003        0.0000000000000000     
  0.18029876000000000       0.33292397000000001        0.0000000000000000     
  0.20696366999999999       0.71822465999999996        0.0000000000000000     
  0.61326404999999995       0.34468346000000000        0.0000000000000000     
  0.29887186999999998       0.42337377999999998        0.0000000000000000     
  0.33271837999999998       0.44383096000000000        0.0000000000000000     
  0.31835012000000001       0.54267131999999996        0.0000000000000000     
  0.54882964999999995       0.45462609999999998        0.0000000000000000     
  0.20448143999999999       0.28717446000000002        0.0000000000000000     
  0.20634120000000000       0.33378063000000002        0.0000000000000000     
  0.23301781999999999       0.71859421999999995        0.0000000000000000     
  0.58606499999999995       0.35199907000000002        0.0000000000000000     
  0.20841100000000001       0.45369578999999999        0.0000000000000000     
  0.24778198000000001       0.77708496000000005        0.0000000000000000     
  0.30748062999999998       0.61002621000000001        0.0000000000000000     
  0.23337332000000000       0.41981835000000001        0.0000000000000000     
  0.25985113999999998       0.75924943000000000        0.0000000000000000     
  0.24610213000000000       0.40254353999999998        0.0000000000000000     
  0.37350351999999998       0.50127178999999999        0.0000000000000000     
  0.43235204999999999       0.78236391000000005        0.0000000000000000     
  0.30749858000000002       0.28582627999999999        0.0000000000000000     
  0.30336816000000000       0.64635111000000001        0.0000000000000000     
  0.31418906000000002       0.43625961000000002        0.0000000000000000     
  0.27223414000000001       0.78063022000000004        0.0000000000000000     
  0.22829299000000000       0.75089561000000005        0.0000000000000000     
  0.26580239000000000       0.42989294000000000        0.0000000000000000     
  0.37369119000000001       0.51975733999999996        0.0000000000000000     
  0.39681665999999999       0.51027884000000001        0.0000000000000000     
  0.32086795000000001       0.65137668999999998        0.0000000000000000     
  0.31757218999999998       0.62987181000000003        0.0000000000000000     
  0.32959777000000001       0.42500900000000003        0.0000000000000000     
  0.24663835000000001       0.74537787000000000        0.0000000000000000     
  0.26354222999999999       0.41075105000000001        0.0000000000000000     
  0.28343712999999998       0.43221330000000002        0.0000000000000000     
  0.34682245000000000       0.43182289000000001        0.0000000000000000     
  0.35306810000000000       0.45344571000000000        0.0000000000000000     
  0.57327218000000002       0.15829040000000000        0.0000000000000000     
  0.51473097999999995       0.12621746000000000        0.0000000000000000     
  0.72829681999999996       0.40151571000000003        0.0000000000000000     
  0.42703184999999999       0.53501600999999999        0.0000000000000000     
  0.32612607999999998       0.75472421999999995        0.0000000000000000     
   9.9814849999999997E-002  0.28081352999999998        0.0000000000000000     
  0.13945825000000001       0.78732252999999996        0.0000000000000000     
  0.44199519999999998       0.38275643999999998        0.0000000000000000     
  0.40132215999999998       0.36508836000000000        0.0000000000000000     
  0.43963142999999999       0.34043466999999999        0.0000000000000000     
  0.47160058999999999       0.33493045999999999        0.0000000000000000     
  0.45615203999999998       0.28038164999999998        0.0000000000000000     
  0.34321279999999998       0.35314412000000001        0.0000000000000000     
  0.29178279000000001       0.56170810000000004        0.0000000000000000     
  0.49833080000000002       0.48416767999999999        0.0000000000000000     
  0.46386271000000001       0.46452802999999998        0.0000000000000000     
  0.44722043000000000       0.45300645000000000        0.0000000000000000     
  0.46562803000000003       0.44419790999999997        0.0000000000000000     
  0.43925322000000000       0.48229485999999999        0.0000000000000000     
  0.49117628000000002       0.45665803999999999        0.0000000000000000     
  0.43435156000000003       0.46523363000000001        0.0000000000000000     
  0.19405754000000000       0.31093060000000000        0.0000000000000000     
  0.22069087000000001       0.66905079000000001        0.0000000000000000     
  0.30776597999999999       0.59042684000000001        0.0000000000000000     
  0.29541507000000000       0.57849362000000004        0.0000000000000000     
  0.28335474999999999       0.61970232999999997        0.0000000000000000     
  0.29935165000000002       0.62852803999999995        0.0000000000000000     
  0.28459435999999999       0.64121777000000002        0.0000000000000000     
  0.26698675999999999       0.63435282999999998        0.0000000000000000     
  0.24031983000000001       0.64700659000000005        0.0000000000000000     
  0.33118850000000000       0.50233682999999996        0.0000000000000000     
  0.35257061000000001       0.51072803000000000        0.0000000000000000     
  0.29038973000000001       0.78732479000000000        0.0000000000000000     
  0.28737915000000003       0.76752330999999996        0.0000000000000000     
  0.21978159000000000       0.73315437000000006        0.0000000000000000     
  0.18119734000000001       0.76257752999999995        0.0000000000000000     
  0.20353571000000001       0.75186065999999996        0.0000000000000000     
  0.39122694000000002       0.49007234000000000        0.0000000000000000     
  0.59140473999999998       0.13507609000000001        0.0000000000000000     
  0.53156702000000000        9.7663528999999999E-002   0.0000000000000000     
  0.76346223999999996       0.39657278000000001        0.0000000000000000     
  0.41119013999999998       0.52354409999999996        0.0000000000000000     
   7.2558165999999993E-002  0.26885883999999999        0.0000000000000000     
  0.10497347000000000       0.79895936000000001        0.0000000000000000     
[...]
 CELL_DATA        2963
 SCALARS Tumor_cells float
 LOOKUP_TABLE default
    0.53887519930237493272E-18
    0.48361723036063068468E-09
    0.62191561102575845514E-11
    0.11316226648455549412E-11
    0.24619424341686040186E-10
    0.12493371545425399782E-14
    0.30243678696847643437E-14
    0.22564932621681077758E-08
    0.21429439652967347045E-22
    0.99105036387903849317E-03
    0.25786240284875817526E-12
    0.30219993343544331384E-10
    0.23567350570629595950E-12
    0.12306268617815893811E-10
    0.36274311835977382955E-21
    0.91252104442740233640E-13
    0.48426463324440638522E-03
    0.31465139976881688010E-12
    0.55047097563016809497E-15
    0.23818592751840808352E-08
    0.43267958676110685244E-10
    0.16998221901787222143E-01
    0.43348248068386649456E-01
    0.13112735135492559056E-08
    0.74121019363927118708E-07
    0.53152051234101837555E-05
    0.24412603618561960406E-07
    0.14342824432568691553E-15
    0.76927868115779090533E-11
    0.22116865804761606323E-08
    0.68130416626429942816E-04
    0.74597105269861524396E-20
    0.18810830292102094357E-09
    0.33876519329695735188E-06
    0.12826198331844595838E-08
    0.10395711072328390633E-06
    0.96085063728773275504E-10
    0.83015127801308325363E-06
    0.61811217673095535678E-16
    0.27596301761409626485E-01
    0.59637671045832921178E-15
    0.90432068172521715751E-11
    0.96145763798797259822E-08
    0.83011541408490312682E-08
    0.28975563609668716161E-20
    0.10388676160580702999E-04
    0.14219487521519731954E-15
    0.24701939662898578860E-18
    0.96755208883078355212E-09
    0.39802023990812787234E-20
    0.50825454109314721987E-05
    0.17519188416038311730E-15
    0.17194433714329030952E-15
    0.23548588141865435651E-12
    0.92619315374864819537E-11
    0.15518234106263986054E-04
    0.13219959767429776387E-15
    0.86254421386814572787E-05
    0.47167164792274943327E-04
    0.26472873455994621811E-13
    0.48531952653415084032E-04
    0.13421105922240646667E-10
    0.20268400141783794292E-18
    0.21278380085123914142E-19
    0.53895620437870151984E-11
    0.28967122402763786313E-04
    0.18028116773458166887E-06
    0.39847602053910096255E-04
    0.12146785946938583323E+00
    0.22187220017984418147E-12
    0.47488219579789649257E-16
    0.49102232349548901159E-04
    0.17636297018840535465E-11
    0.91226702340424617777E-10
    0.76060563020203663265E-03
    0.84074254193222675013E-03
    0.15410185226056034857E-01
    0.13917342439032369568E-03
    0.28463141307218648652E-14
    0.13880831394560536231E-04
    0.43119821770831627012E-18
    0.97916920684537938957E-05
    0.55228526185318543124E-04
    0.44206558913180661261E-02
    0.90289575741871404086E-06
    0.18928391309652042432E-10
    0.23584770641645540113E-13
    0.22187888974138272674E-08
    0.16887661567293589672E-07
    0.13401618942711868329E-16
    0.49447731484274724227E-09
    0.50274204327029618883E-05
    0.35039753200249129650E-01
    0.15902804657478792017E-04
    0.14314082116125202486E-07
    0.45196875451072404420E-05
    0.16178051169322991976E-01
    0.23702934273138074421E-09
    0.31837954790766468544E-09
    0.27237213303729116706E-11
    0.55495448962155634129E-14
    0.14267766040788022274E-08
    0.13894964251901850349E-04
    0.76986835419079902419E-10
    0.38579613221206908273E-02
    0.93128604017352789833E-14
    0.61424140507075265458E-10
    0.42244900342528485711E-17
    0.68500973465718778641E-05
    0.24635677298046261545E-11
    0.56471561648170297780E-12
    0.19156822579527172746E-12
    0.51303757021848774213E-15
    0.46104340870952105159E-12
    0.28664086601474960301E-17
    0.14031289528055712819E-13
    0.35109464327959826455E-18
    0.16245764674041709030E-19
    0.29301544522695264355E-02
    0.33404118182602389161E-03
    0.13442674069884353419E-13
    0.29840037694316581443E-14
    0.19208548931683333226E-13
    0.47694529465209670004E-06
    0.30136465313804177435E-15
    0.15337779218291223721E-06
    0.88791709877066625217E-15
    0.21109139005207898284E-04
    0.36244487152219448780E-03
    0.86497712097533834452E-04
    0.14357175729300447450E-06
    0.64509298460045549120E-05
    0.43402054911539901527E-01
    0.23374274113692297271E-06
    0.24661106439080161763E-04
    0.23376298450172584538E-03
    0.21890433922515500887E-03
    0.25785113215376108056E-04
    0.13546792823461295709E-13
    0.28820853416849039454E-03
    0.54050523716262095211E-04
    0.71126768919620895878E-07
    0.13069989916634511262E+00
    0.17318263655425293547E-03
    0.73735246063499299625E-04
    0.42906537685216457564E-07
    0.43380005014066438354E-11
    0.90621906587769706938E-07
    0.31689259796634229655E-14
    0.12737702065071719007E-03
    0.30215387576039550319E-10
    0.12715186559223051743E+00
    0.93879566669198734200E-04
    0.25020896658731027512E-07
    0.44923943181296836317E-13
    0.82247311406712421280E-11
    0.22783342777297892111E-13
    0.54382679162746351781E-12
    0.89101488615944425523E-14
    0.10558715594150944006E-13
    0.14662116258098365261E-12
    0.51405484024872289847E-13
    0.71497426971660800857E-07
    0.15733655283976382837E-04
    0.87786129731450579704E-11
    0.37621364522706911846E-04
    0.19150276041384005151E-14
    0.44893238091358732113E-05
    0.22030405090556781124E-02
    0.35986919254658791201E-06
    0.94136987973673039859E-02
    0.16779435407841125543E-13
    0.16392600859102708011E-09
    0.30130833139262630650E-05
    0.37819116634278092122E-11
    0.47486223025144248218E-12
    0.74374010895672975584E-09
    0.29193103334933345786E-10
    0.82670499738503503507E-13
    0.45010873889678025389E-15
    0.14102825397573491746E-02
    0.17218105631995107506E-07
    0.18800158413612999153E-06
    0.28071829229150135862E-13
    0.89746135388545198522E-11
    0.23514454494964089704E-10
    0.10983944743752905755E-04
    0.39736825857185596462E-05
    0.13577407490274477804E-03
    0.12099808008442388865E-15
    0.96043070559366749848E-10
    0.78046693781868251016E-01
    0.89877691569163812367E-14
    0.16609509239022149832E-14
    0.49967817000670100569E-02
    0.43385892167718994333E-14
    0.24095099345153022513E-01
    0.28688242938301184317E-05
    0.25530693492328699491E-05
    0.25676497253271587296E-12
    0.58201283990190866173E-07
    0.51596387062095850732E-09
    0.13905842209974946070E-10
    0.51641095149362515904E-05
    0.72469270893551415713E-01
    0.57052609398529810503E-01
    0.14528928423136469512E-05
    0.52226728644493201903E-01
    0.86643760284369084057E-01
    0.82244518116871354657E-14
    0.20861111503823871504E-12
    0.24560221566271803889E-01
    0.57174620142597144812E-01
    0.13303516042541581644E-14
    0.61528042402623093723E-10
    0.15098596002065281388E-10
    0.34589912872863643586E-06
    0.16397667854783420986E-04
    0.35702556813577033742E-02
    0.28117630929429180385E-04
    0.64701920934668479220E-09
    0.13505704960579734675E-10
    0.14879031892227616215E-05
    0.50646942111425116879E-04
    0.30693949557026221854E-04
    0.31047587459371646478E-10
    0.21838950024783810000E-04
    0.54359408888687750143E-06
    0.30057144780045482269E-06
    0.33378377803590235948E-04
    0.21624045664155383565E-05
    0.49773231557713334076E-06
    0.24814936061323206564E-11
    0.12854144440694503966E-02
    0.30059961645299408220E-07
    0.13692621560872105901E-03
    0.19502867793389090441E-17
    0.97059307446621095189E-02
    0.67946573943079680014E-01
    0.11383933522203446009E+00
    0.19942893082227538664E-04
    0.25641329893685268020E-08
    0.18818031500213942137E-01
    0.24391596186347050401E-01
    0.19579096417845352762E-01
    0.53237244844546439170E-05
    0.61383076359836476546E-03
    0.69009719786491941201E-04
    0.18091425076954626490E-04
    0.41511699607946921098E-01
    0.45740438967913129437E-02
    0.49421416484414680264E-09
    0.20024672053679869353E-05
    0.12810790833147955858E+00
    0.56388661640823501539E-07
    0.42336207967540720906E-08
    0.25593528520149955278E-05
    0.32354906124102985438E-04
    0.13514116005661656536E-01
    0.52736620576522753476E-09
    0.90806082193838188327E-02
    0.56490391999171130424E-02
    0.38331581150504619171E-02
    0.10856132204050337536E-08
    0.22379738459154897845E-01
    0.25882399071596339520E-12
    0.11536809223039380667E+00
    0.84660672496480408183E-02
    0.29025101336053950492E-03
    0.36383046384222648972E-01
    0.26559894154005667883E-09
    0.13504586726147760692E-02
    0.13434708096096311530E-01
    0.39036527450191403155E-03
    0.15099934896136433041E-02
    0.89810043471840347435E-12
    0.14610608791274583637E-08
    0.16362347123968798363E-09
    0.28704029468256751138E-14
    0.42866760789932759025E-03
    0.68468610653678829142E-14
    0.20648418992886968668E-04
    0.14435689231146832444E-05
    0.14069607754464638163E-08
    0.85359111857621233245E-03
    0.14808361031777572720E-15
    0.15494241470110393932E-01
    0.46135776759064151464E-03
    0.21557818861547186885E-04
    0.34031767993691664653E-08
    0.17201633338212372812E-08
    0.64802857698181612378E-09
    0.82051583886095993004E-03
    0.20378120240569223147E-15
    0.19563816048694603889E-07
    0.19879736784859363546E-01
    0.10177494225445068467E-02
    0.38950740565387728727E-11
    0.13311482648261829809E+00
    0.28597045323545879515E-03
    0.52261306638726848989E-06
    0.15700299271914235945E-02
    0.45257231606262316587E-04
    0.40767471655154482015E-06
    0.62490877339792491696E-05
    0.60945359363460080489E-13
    0.41918237252202760965E-02
    0.25964238949655308872E-12
    0.14011326559320089538E-01
    0.53548712631110140757E-03
    0.48507219951366060441E-03
    0.16491026353322750833E-05
    0.55207859320785675986E-03
    0.39625139781315776594E-03
    0.13527914957694890350E-10
    0.98299652540913713286E-17
    0.64296199397637109930E-05
    0.52993775686967178635E-04
    0.51394074647286630206E-02
    0.50373787091827306926E-13
    0.49828996246548925067E-05
    0.12947709458221666140E-07
    0.34066445306468307661E-06
    0.48404746834667872677E-13
    0.10505627764876450075E-13
    0.16229173447100429210E-05
    0.37785936985846664869E-08
    0.29112244033256723559E-02
    0.19334805356004625112E-05
    0.10932551864022111449E-11
    0.10601566485293753626E-03
    0.20293326441682632159E-04
    0.50266103927176613797E-12
    0.18274280334177308934E-11
    0.38074767599985150961E-06
    0.13210947182610522514E-14
    0.81433338524418166264E-06
    0.16914434565933596455E-04
    0.34543198067413861958E-06
    0.13152043067331874479E-13
    0.51115351044630280003E-12
    0.50898144071041143440E-06
    0.10463116946496177597E-04
    0.44301981305157264403E-09
    0.32586010974744610870E-02
    0.24173064191266085618E-02
    0.23789678010292741270E-04
    0.66112234027058642017E-06
    0.41460663381878703809E-12
    0.51064814968669527583E-14
    0.13873680793442571743E-13
    0.13822167869615550042E-11
    0.90181009031346999151E-12
    0.25880739772901942926E-11
    0.84110588265288408952E-13
    0.23724832267770172420E-13
    0.62487970829299221581E-12
    0.30056833363005724409E-11
    0.14839497153572605485E-10
    0.36086479569674326803E-09
    0.31651936832581870765E-10
    0.73836070978305715635E-10
    0.69859628748078184636E-08
    0.99830352216852501361E-15
    0.14648224326417703470E-15
    0.36578254086498749704E-15
    0.20434927260576495705E-05
    0.79770610616447813057E-05
    0.17261395376782442956E+00
    0.28411980250791252223E-01
    0.63976635519019442455E-01
    0.39083447922120463647E-01
    0.43430694593144830717E-01
    0.50463069670444400672E-01
    0.91690202679164084509E-01
    0.11139403782377281515E+00
    0.75137820098147581338E-01
    0.22620472504929236418E-01
    0.73188732282807006380E-01
    0.10761260134774559838E+00
    0.48207259203805120917E-01
    0.25499395758112351762E-01
    0.29379814423516059556E-09
    0.79352810048327920069E-10
    0.29932814345983937929E-09
    0.18209905907586016211E-06
    0.11552735597419880803E-04
    0.22231731395379127460E-04
    0.30494870432624242458E-05
    0.27154248051209809123E-04
    0.13000630417460678136E-05
    0.62078328255420367639E-06
    0.38085839540052052007E-06
    0.14966116987544065834E-05
    0.12830063791417633442E-06
    0.14796940081309428407E-06
    0.31449671902877337847E-08
    0.48521111777413402660E-06
    0.20615067296092401589E-14
    0.12448496231133118214E-06
    0.17873628311544705201E-03
    0.12519857485542167683E-03
    0.11092662534309260126E-02
    0.56247748975890999711E-03
    0.48952202141518458007E-14
    0.18143844878059538758E-13
    0.24713720826728651481E-12
    0.17940368700036161691E-13
    0.31782998978929756560E-10
    0.60560063098806365164E-11
    0.27718611847179792955E-11
    0.13873923762624026434E-13
    0.69191014312888652610E-12
    0.14261239121726212831E-12
    0.27840865490370578575E-02
    0.65727524216783574443E-02
    0.36075006356505697738E-07
    0.81019514480931183057E-04
    0.15718825522709698665E-11
    0.47581855551983069014E-11
    0.32753768990087823148E-11
    0.27655124301943621477E-04
    0.10055063142952778239E-04
    0.13122601475033026167E-01
    0.10262566552074794610E-01
    0.14912388360807811636E-16
    0.46697378756435886351E-14
    0.39752062863284804570E-14
    0.25063708677060623818E-15
    0.88922586876411827788E-16
    0.11928482652647990119E-11
    0.93585426478254808483E-12
    0.54488269940449501434E-13
    0.28221784618553264273E-12
    0.47861401558882263494E-11
    0.74473596133449262855E-12
    0.61178772476405852980E-13
    0.28513419789677671645E-15
    0.99519653950562236110E-14
    0.69610857731237016811E-15
    0.22278732580977690696E-14
    0.58793904778068840342E-14
    0.92490182850186693245E-11
    0.83686882470452318955E-09
    0.58604908766997186546E-10
    0.46661155440833846907E-10
    0.10908630967520301923E-09
    0.11787621277935791040E-09
    0.23183431520690044293E-09
    0.65732620355490764649E-08
    0.23925783362243086288E-10
    0.18235456731936787081E-08
    0.24789868922521000706E-08
    0.77914532204456312777E-07
    0.26205317545824792778E-15
    0.20193360168759271281E-14
    0.10361797111038716698E-03
    0.23055214105924255838E-04
    0.28661883632186642749E-04
    0.45435233008459187832E-04
    0.11783739829722754411E+00
    0.10137175248179382259E+00
    0.16047477292091891221E+00
    0.12707340129076938329E+00
    0.73399190156415030483E-10
    0.19902782842479544650E-11
    0.56190968790367183430E-10
    0.74414100895032758069E-10
    0.37231025862893836334E-09
    0.14318811323439249264E-08
    0.10316082734032709862E-10
    0.58270461494731401995E-08
    0.83596579369562371646E-06
    0.14440657540851396651E-05
    0.15271484119574222047E-07
    0.66276762256344281379E-08
    0.90945771451148900932E-07
    0.13488048023734576302E-05
    0.13812044480927353326E-06
    0.11867426389975817519E-04
    0.95425609917670505580E-06
    0.25415319828358829343E-05
    0.12090745807170986265E-03
    0.48766105681973312804E-03
    0.54507315076593604861E-04
    0.90295492288439940971E-04
    0.32564201714736714125E-03
    0.58689899116164091167E-03
    0.24395949299619462160E-03
    0.90847833241093208455E-04
    0.69505819546032159202E-04
    0.14848427450178298156E-03
    0.72493938322705824337E-14
    0.77114423254944652204E-14
    0.56434219397512202403E-14
    0.63226038049304895195E-12
    0.26668023864424768007E-10
    0.61877049118140067455E-11
    0.13640376952296796170E-01
    0.19787043586935598033E-01
    0.60045782443637436223E-12
    0.29277781972984061898E-10
    0.18947568813052887373E-12
    0.99593563098088644815E-05
    0.13084489395763930128E-04
    0.14265660271321384211E-16
    0.39038374903237045413E-15
    0.22706718601382293219E-16
    0.10110473578629155910E-12
    0.39289001717809996361E-10
    0.76590352669256531011E-10
    0.44902923341079883590E-11
    0.10670981099812118509E+00
    0.14121053431091654118E+00
    0.16834252840653765593E+00
    0.15864796149119522739E+00
    0.14562983113419012919E-09
    0.41850563354726135266E-10
    0.58213196670264448189E-09
    0.22758070019308543038E-09
    0.15768653780792035380E-08
    0.15136987177488175611E-08
    0.89702974597763789471E-09
    0.41080820340455381819E-07
    0.17666066365932482057E-05
    0.46328545773777131834E-05
    0.63001943744802706138E-06
    0.28282667329211031302E-05
    0.27995564407154211927E-05
    0.60830392617227444613E-04
    0.79385316319763066543E-05
    0.13202352670944988549E-04
    0.73922252267607450448E-03
    0.31760971920566155244E-03
    0.22045469994077225313E-03
    0.14892994023445565153E-03
    0.27910014633207406998E-03
    0.25729881166653025383E-03
    0.67482236583259088943E-04
    0.23189779119719508712E-03
    0.40989133815025924107E-04
    0.51363726584433111563E-04
    0.22117169575418562218E-04
    0.12471808560981763164E-05
    0.17616368866584631398E-04
    0.26349483090143274939E-04
    0.26887241793339191091E-04
    0.15209025226677590163E-04
    0.25071953451417097952E-13
    0.69998561040897357922E-14
    0.12027009971783466132E-12
    0.27173203003617534887E-19
    0.55640715422960861865E-15
    0.27653003863580547730E-13
    0.84417473852493192104E-13
    0.65192011800696056283E-14
    0.50283724185664604840E-13
    0.80085534033265594241E-13
    0.91157665357803731559E-12
    0.33267947884819779334E-12
    0.54696814721566147259E-12
    0.64022919584262313055E-11
    0.84182886627177073374E-12
    0.80623894312056281167E-11
    0.92440458616748865418E-11
    0.32680225613394372351E-10
    0.31392410554174587325E-11
    0.18655718710522359145E-12
    0.21170807235109415838E-09
    0.13822554707266902398E-09
    0.15341866194845132920E+00
    0.16468039236795789515E+00
    0.47468134761947572158E-06
    0.45364658416167264798E-07
    0.14564354180054688542E-06
    0.32010041852432974793E-06
    0.25597469886634376041E-07
    0.42064086770023616365E-08
    0.19373636218977477194E-07
    0.28059527156093476718E-06
    0.71383791275473791062E-04
    0.93042694309862399244E-06
    0.45494353504251992365E-05
    0.75202410025281331832E-06
    0.60383282802283655359E-06
    0.26630555412652940507E-05
    0.23072713227225341037E-06
    0.10029462437919624065E-06
    0.81266241753512768098E-05
    0.11716988749316761904E-04
    0.46918912108462130291E-05
    0.20829049500891524580E-04
    0.10538074315704355389E-05
    0.13953651307099766495E-04
    0.31158323059384604849E-04
    0.43701926031857925845E-04
    0.17823510801310756284E-04
    0.30020931460479362399E-04
    0.29018150685410640721E-03
    0.40411683077435571303E-03
    0.56836362078930798610E-03
    0.38449853547213282481E-03
    0.18039520170635822607E-02
    0.12605440185718688132E-02
    0.25432419680936367351E-03
    0.14528443640874784382E-03
    0.42508167815945258339E-14
    0.12176351944147761208E-14
    0.53791390438244317262E-04
    0.19957529612719831662E-04
    0.32103526254457716196E-06
    0.11878100514728015287E-05
    0.87710181831694723138E-08
    0.14008702068309426328E-05
    0.10635989310724870760E-05
    0.13183520169319822558E-04
    0.13138366449907052131E-06
    0.55921559682678252009E-06
    0.13790292510536881530E-12
    0.92557715040815865265E-12
    0.18277589005896491581E-05
    0.61887211426801104589E-06
    0.18757875257336991247E-14
    0.51084436708478716126E-13
    0.46034316974639010407E-16
    0.21066700653898806594E-14
    0.21558077059973248918E-13
    0.13270594304194859029E-11
    0.25575140146005681843E-11
    0.44792687049771226162E-10
    0.23129533676024983834E-13
    0.11647198665206797220E-12
    0.89040402345738900122E-11
    0.25898535318880623402E-12
    0.39994564439293699431E-09
    0.14794768117969491580E-10
    0.39889824613998708588E-02
    0.17176455038606160022E-03
    0.77806593686875259210E-03
    0.84199364064621660519E-03
    0.69731993158344976816E-03
    0.10450885742968287406E-03