# vtk DataFile Version 3.0
LAPLACIEN  2D
ASCII
DATASET UNSTRUCTURED_GRID
 POINTS        1616  float
  0.45880792999999997       0.87913892999999999        0.0000000000000000     
  0.40372658000000000       0.18243693000000000        0.0000000000000000     
  0.52563972999999997       0.19039755999999999        0.0000000000000000     
  0.45642953000000003       0.24226190000000000        0.0000000000000000     
  0.51984098000000001       0.24548566999999999        0.0000000000000000     
  0.21212766999999999       0.18957676000000001        0.0000000000000000     
  0.28573643999999998       0.48586826999999999        0.0000000000000000     
  0.49667887999999999       0.82979849000000006        0.0000000000000000     
  0.22848407000000001       0.23366793000000000        0.0000000000000000     
  0.27860389000000002       0.86069733000000004        0.0000000000000000     
  0.36563702999999997       0.80971340999999997        0.0000000000000000     
  0.28045499000000002       0.80393031999999998        0.0000000000000000     
  0.40374228000000001       0.78127665000000002        0.0000000000000000     
  0.56160891999999996       0.55341227999999998        0.0000000000000000     
  0.37210935000000001       0.26787699999999998        0.0000000000000000     
  0.49899838000000002       0.57286409999999999        0.0000000000000000     
  0.41023869000000002       0.33464665999999998        0.0000000000000000     
  0.33484156999999998       0.29151022999999998        0.0000000000000000     
  0.46758665999999999       0.58262307999999996        0.0000000000000000     
  0.43303693999999998       0.36569945999999998        0.0000000000000000     
  0.25741280000000000       0.61805882999999995        0.0000000000000000     
  0.28853707000000001       0.59423020000000004        0.0000000000000000     
  0.67837254000000002       0.45038665999999999        0.0000000000000000     
  0.42159046000000000       0.50697913999999999        0.0000000000000000     
  0.60276470999999998       0.73940291000000002        0.0000000000000000     
  0.30758273000000003       0.77844542000000005        0.0000000000000000     
  0.45367541000000000       0.31842187000000000        0.0000000000000000     
  0.36974101999999998       0.35807864000000000        0.0000000000000000     
  0.26919625000000003       0.65312176000000000        0.0000000000000000     
  0.61908110999999999       0.42741791000000001        0.0000000000000000     
  0.54442267000000000       0.74200747000000000        0.0000000000000000     
  0.58930464999999999       0.41588288000000001        0.0000000000000000     
  0.51511633000000001       0.74331579000000003        0.0000000000000000     
  0.12878382999999999       0.33122940000000001        0.0000000000000000     
  0.15534365000000000       0.71749246000000000        0.0000000000000000     
  0.64877724999999997       0.30161799000000000        0.0000000000000000     
  0.58853643000000000       0.28101930000000003        0.0000000000000000     
  0.56390348000000001       0.30132482999999999        0.0000000000000000     
  0.29605991999999998       0.44474459999999999        0.0000000000000000     
  0.29900669000000002       0.52983276000000001        0.0000000000000000     
  0.55954318999999997       0.48654808999999999        0.0000000000000000     
  0.42341458999999998       0.38785072999999998        0.0000000000000000     
  0.45806291999999998       0.35892998999999998        0.0000000000000000     
  0.47820750000000001       0.31147424000000001        0.0000000000000000     
  0.36344222999999998       0.38139388000000002        0.0000000000000000     
  0.17186508000000000       0.28159534000000003        0.0000000000000000     
  0.18029876000000000       0.33292397000000001        0.0000000000000000     
  0.20696366999999999       0.71822465999999996        0.0000000000000000     
  0.61326404999999995       0.34468346000000000        0.0000000000000000     
  0.29887186999999998       0.42337377999999998        0.0000000000000000     
  0.33271837999999998       0.44383096000000000        0.0000000000000000     
  0.31835012000000001       0.54267131999999996        0.0000000000000000     
  0.54882964999999995       0.45462609999999998        0.0000000000000000     
  0.20448143999999999       0.28717446000000002        0.0000000000000000     
  0.20634120000000000       0.33378063000000002        0.0000000000000000     
  0.23301781999999999       0.71859421999999995        0.0000000000000000     
  0.58606499999999995       0.35199907000000002        0.0000000000000000     
  0.20841100000000001       0.45369578999999999        0.0000000000000000     
  0.24778198000000001       0.77708496000000005        0.0000000000000000     
  0.30748062999999998       0.61002621000000001        0.0000000000000000     
  0.23337332000000000       0.41981835000000001        0.0000000000000000     
  0.25985113999999998       0.75924943000000000        0.0000000000000000     
  0.24610213000000000       0.40254353999999998        0.0000000000000000     
  0.37350351999999998       0.50127178999999999        0.0000000000000000     
  0.43235204999999999       0.78236391000000005        0.0000000000000000     
  0.30749858000000002       0.28582627999999999        0.0000000000000000     
  0.30336816000000000       0.64635111000000001        0.0000000000000000     
  0.31418906000000002       0.43625961000000002        0.0000000000000000     
  0.27223414000000001       0.78063022000000004        0.0000000000000000     
  0.22829299000000000       0.75089561000000005        0.0000000000000000     
  0.26580239000000000       0.42989294000000000        0.0000000000000000     
  0.37369119000000001       0.51975733999999996        0.0000000000000000     
  0.39681665999999999       0.51027884000000001        0.0000000000000000     
  0.32086795000000001       0.65137668999999998        0.0000000000000000     
  0.31757218999999998       0.62987181000000003        0.0000000000000000     
  0.32959777000000001       0.42500900000000003        0.0000000000000000     
  0.24663835000000001       0.74537787000000000        0.0000000000000000     
  0.26354222999999999       0.41075105000000001        0.0000000000000000     
  0.28343712999999998       0.43221330000000002        0.0000000000000000     
  0.34682245000000000       0.43182289000000001        0.0000000000000000     
  0.35306810000000000       0.45344571000000000        0.0000000000000000     
  0.57327218000000002       0.15829040000000000        0.0000000000000000     
  0.51473097999999995       0.12621746000000000        0.0000000000000000     
  0.72829681999999996       0.40151571000000003        0.0000000000000000     
  0.42703184999999999       0.53501600999999999        0.0000000000000000     
  0.32612607999999998       0.75472421999999995        0.0000000000000000     
   9.9814849999999997E-002  0.28081352999999998        0.0000000000000000     
  0.13945825000000001       0.78732252999999996        0.0000000000000000     
  0.44199519999999998       0.38275643999999998        0.0000000000000000     
  0.40132215999999998       0.36508836000000000        0.0000000000000000     
  0.43963142999999999       0.34043466999999999        0.0000000000000000     
  0.47160058999999999       0.33493045999999999        0.0000000000000000     
  0.45615203999999998       0.28038164999999998        0.0000000000000000     
  0.34321279999999998       0.35314412000000001        0.0000000000000000     
  0.29178279000000001       0.56170810000000004        0.0000000000000000     
  0.49833080000000002       0.48416767999999999        0.0000000000000000     
  0.46386271000000001       0.46452802999999998        0.0000000000000000     
  0.44722043000000000       0.45300645000000000        0.0000000000000000     
  0.46562803000000003       0.44419790999999997        0.0000000000000000     
  0.43925322000000000       0.48229485999999999        0.0000000000000000     
  0.49117628000000002       0.45665803999999999        0.0000000000000000     
  0.43435156000000003       0.46523363000000001        0.0000000000000000     
  0.19405754000000000       0.31093060000000000        0.0000000000000000     
  0.22069087000000001       0.66905079000000001        0.0000000000000000     
  0.30776597999999999       0.59042684000000001        0.0000000000000000     
  0.29541507000000000       0.57849362000000004        0.0000000000000000     
  0.28335474999999999       0.61970232999999997        0.0000000000000000     
  0.29935165000000002       0.62852803999999995        0.0000000000000000     
  0.28459435999999999       0.64121777000000002        0.0000000000000000     
  0.26698675999999999       0.63435282999999998        0.0000000000000000     
  0.24031983000000001       0.64700659000000005        0.0000000000000000     
  0.33118850000000000       0.50233682999999996        0.0000000000000000     
  0.35257061000000001       0.51072803000000000        0.0000000000000000     
  0.29038973000000001       0.78732479000000000        0.0000000000000000     
  0.28737915000000003       0.76752330999999996        0.0000000000000000     
  0.21978159000000000       0.73315437000000006        0.0000000000000000     
  0.18119734000000001       0.76257752999999995        0.0000000000000000     
  0.20353571000000001       0.75186065999999996        0.0000000000000000     
  0.39122694000000002       0.49007234000000000        0.0000000000000000     
  0.59140473999999998       0.13507609000000001        0.0000000000000000     
  0.53156702000000000        9.7663528999999999E-002   0.0000000000000000     
  0.76346223999999996       0.39657278000000001        0.0000000000000000     
  0.41119013999999998       0.52354409999999996        0.0000000000000000     
   7.2558165999999993E-002  0.26885883999999999        0.0000000000000000     
  0.10497347000000000       0.79895936000000001        0.0000000000000000     
[...]
 CELL_DATA        2963
 SCALARS Tumor_cells float
 LOOKUP_TABLE default
    0.34714181687032324375E-21
    0.11124937676690226373E-10
    0.70781048542657899309E-13
    0.10088298382832480573E-13
    0.39081510530394221122E-12
    0.24915404872484579559E-17
    0.93367801880804666415E-17
    0.80256864668048150835E-10
    0.39904313144971879876E-26
    0.66244839389312888591E-03
    0.11211170971998136678E-14
    0.47091094940297361107E-12
    0.17231515736889150667E-14
    0.11407375552177819902E-12
    0.90579853273329399784E-25
    0.58677628423119807212E-15
    0.27910823844423920514E-03
    0.19088966847182813246E-14
    0.84863835032933391722E-18
    0.88494161352666942786E-10
    0.66529228604739197673E-12
    0.14994550363774422630E-01
    0.45420198418185904476E-01
    0.39194357235229477506E-10
    0.54522568342399202922E-08
    0.31674076999312426625E-06
    0.19526491754079303429E-08
    0.17754388107390608908E-18
    0.87990778678080749731E-13
    0.14485454340719983335E-09
    0.13633959345843943442E-04
    0.32937127851293176725E-23
    0.38422392937706603204E-11
    0.34546428246217920603E-07
    0.54891152806349648832E-10
    0.11670789294249395469E-07
    0.18975920063771906739E-11
    0.10795478705241353633E-06
    0.15651668344927227837E-18
    0.16180813897525108541E-01
    0.28259253721555573344E-17
    0.12130401204983647855E-12
    0.44039272253837631612E-09
    0.66784245401997834960E-09
    0.11690450867031882549E-23
    0.26983329312151829900E-05
    0.48594189545122890746E-18
    0.16049491827885506288E-21
    0.55433878812086174414E-10
    0.15749321742183710701E-23
    0.10340168077639081533E-05
    0.85435089473934110280E-18
    0.80174961659701211442E-18
    0.36540590309553076331E-14
    0.11561784293981464049E-12
    0.22517087369624677669E-05
    0.47790149643054578140E-18
    0.17956743830178297813E-05
    0.23389572272758145166E-04
    0.12278201436731657118E-15
    0.19997585049225142259E-04
    0.12190219196405992605E-12
    0.10708791976295556767E-21
    0.13015145442282539421E-22
    0.51926378060656330548E-13
    0.96850680507515212635E-05
    0.13700474117876482295E-07
    0.17141852602551165983E-04
    0.10222422775744659240E+00
    0.12507789750516537941E-14
    0.13050892712605769603E-18
    0.18424796226049196355E-04
    0.22314485160343329942E-13
    0.27709311748072269917E-11
    0.48663533202890785906E-03
    0.55121912151668151902E-03
    0.13690895266998126534E-01
    0.83190368660315472328E-04
    0.20390959157468835090E-16
    0.38616398573651716388E-05
    0.38612673137501267199E-21
    0.23842460991312253244E-05
    0.24971110545836155465E-04
    0.35027808830970980948E-02
    0.10277410954059608340E-06
    0.19483361178961578955E-12
    0.70208929933198759435E-16
    0.65023859661495518568E-10
    0.90592808898662368325E-09
    0.12224554634100754874E-19
    0.11543239419677854980E-10
    0.10088372745697858129E-05
    0.32264407443953278809E-01
    0.38092083155850105876E-05
    0.65302998086764792373E-09
    0.71673996541727784091E-06
    0.14146576935063003705E-01
    0.47322628874450626896E-11
    0.15182876692291341645E-10
    0.26495249123663054433E-13
    0.24118691769508998531E-16
    0.40762555350784768299E-10
    0.32387702478836128915E-05
    0.12605851670898832673E-11
    0.17797397906042218638E-02
    0.27879038185462080936E-16
    0.95493040434593956832E-12
    0.26972539372525302338E-20
    0.15576579426057514156E-05
    0.21741638917143328582E-13
    0.32692626857867204369E-14
    0.13309753027466409539E-14
    0.16669886083127967865E-17
    0.33871061054831988410E-14
    0.22971863572613974062E-20
    0.60127062183224745414E-16
    0.17904571516055379194E-21
    0.51651556821707261566E-23
    0.22195549594687317800E-02
    0.16785295884708559765E-03
    0.60742940553930081390E-16
    0.73027729620311203045E-17
    0.19367561321925534387E-15
    0.53853850674513080447E-07
    0.17057165806124873237E-17
    0.13164388681088834161E-07
    0.16468088292740137739E-17
    0.63146382048044582722E-05
    0.82246488366930579753E-04
    0.43747865929730629870E-04
    0.12429222218037139470E-07
    0.12263284294409157106E-05
    0.27289301729856389050E-01
    0.23608616064327447202E-07
    0.41187322507286473265E-05
    0.10588193965333944321E-03
    0.97138094819049615805E-04
    0.32010358414044449212E-05
    0.47664495079226205354E-16
    0.66629567965187293807E-04
    0.28238728133406934773E-04
    0.49868404847931363011E-08
    0.12104082736466593995E+00
    0.71892408862616339130E-04
    0.24324668132714274331E-04
    0.25848754395473409456E-08
    0.31533545851043047432E-13
    0.68767877575792337478E-08
    0.10283309334974485400E-16
    0.31004522104705989176E-04
    0.36845620791087937022E-12
    0.12227296258646977445E+00
    0.32953897976878850876E-04
    0.12550366792041388618E-08
    0.33711554403449672658E-15
    0.22611477516639420373E-12
    0.24234725990095386293E-15
    0.61241252893923164242E-14
    0.46600962672411326457E-16
    0.59126822462745986116E-16
    0.13050941634266478004E-14
    0.37631819619038459676E-15
    0.49494791749260090039E-08
    0.35347010881089838544E-05
    0.10116533132258962287E-12
    0.10369983529441095474E-04
    0.13886649565038587427E-16
    0.81706909987185271743E-06
    0.15932280322416016681E-02
    0.39663533437544653166E-07
    0.79332427409746983371E-02
    0.10618383091678110549E-15
    0.69940505346956444437E-11
    0.53395566865425429056E-06
    0.86302963902284233685E-13
    0.76970427951510254715E-14
    0.19281518913023216977E-10
    0.40395412494531986640E-12
    0.42505187553995742387E-15
    0.26815215840082578288E-17
    0.94682363360197433801E-03
    0.14759952746780826198E-08
    0.22599853948206830728E-07
    0.13122538409152503488E-15
    0.23381360290600347868E-12
    0.71916758224862194451E-12
    0.14772236863425553366E-05
    0.28812967171000726031E-06
    0.52931351643466100518E-04
    0.44108097006744933126E-18
    0.19159684714369323270E-11
    0.56987776734382711297E-01
    0.25528862796951517993E-16
    0.11766874204864940442E-16
    0.25939201665894952298E-02
    0.37117993147942038515E-16
    0.15509136284492382532E-01
    0.45271259335046222912E-06
    0.43794594170949763402E-06
    0.40408026293697411845E-14
    0.62127327883837289223E-08
    0.24324041702084252800E-10
    0.17669241937670902919E-12
    0.10383289222546398767E-05
    0.69002153963311385620E-01
    0.53614970564679974296E-01
    0.21679434525966338592E-06
    0.46798543292325772702E-01
    0.70406544197486597980E-01
    0.70878179564964300296E-16
    0.29623717477327740538E-14
    0.23634302650920514799E-01
    0.61615213387752151841E-01
    0.35205007971947745110E-17
    0.94509257616882482206E-12
    0.17193744340549147864E-12
    0.35285213549546968784E-07
    0.31690049502755745700E-05
    0.15311778237840569135E-02
    0.98717110059883407780E-05
    0.16966664839760986617E-10
    0.16280421276646712269E-12
    0.12495169997011592633E-06
    0.24101224621412448303E-04
    0.11864958508066644291E-04
    0.50270201307905048002E-12
    0.32859102770806363382E-05
    0.61961790534397508654E-07
    0.30159613514749365805E-07
    0.83208599356458069963E-05
    0.33927647164936580632E-06
    0.69085943865124610544E-07
    0.22948054671865694866E-13
    0.50502671719932542681E-03
    0.18101212363683436464E-08
    0.41712084407694338163E-04
    0.12514524411627136733E-20
    0.51617502479305568328E-02
    0.72523451078807643633E-01
    0.98179684133756037201E-01
    0.66294604498249514406E-05
    0.16833706578280722197E-09
    0.99191914583357260887E-02
    0.15298187751765803671E-01
    0.18820293744055954094E-01
    0.28503275828764641101E-06
    0.23487828098091623782E-03
    0.23010434962385524862E-04
    0.13381266895001887169E-05
    0.30598922687697382300E-01
    0.36100205486047677594E-02
    0.12927577563340024065E-10
    0.12931723562797889602E-06
    0.11536186081709323692E+00
    0.36633591674777293165E-08
    0.16021763235882367969E-09
    0.44297544132325831159E-06
    0.32319992462555948924E-05
    0.12218280727730465932E-01
    0.12321905599077474537E-10
    0.77967319997405085813E-02
    0.45524664396997416987E-02
    0.29513574112148333907E-02
    0.61041694496232214074E-10
    0.20422563889640889950E-01
    0.40715491147508310116E-14
    0.10649774791678186248E+00
    0.71275369347111568533E-02
    0.89399790540304498979E-04
    0.32782663614923900075E-01
    0.65745749410608610228E-11
    0.59299902998761371605E-03
    0.12207179065000125368E-01
    0.14439253562613399103E-03
    0.77319236701690657789E-03
    0.67003755845014811578E-14
    0.83853989816742777907E-10
    0.30596513518021395511E-11
    0.22888496242858833830E-16
    0.19096497294898408465E-03
    0.17180621302405217959E-16
    0.53234761359230959530E-05
    0.17439034904658809317E-06
    0.52978912298923595478E-10
    0.42647056677491874694E-03
    0.68693169148844464094E-18
    0.92699145218539755892E-02
    0.19689469105017306074E-03
    0.16274243758259245541E-05
    0.14344793195601325061E-09
    0.62129341982708349338E-10
    0.19958153318358984526E-10
    0.32263730062577088056E-03
    0.36464659743744141777E-18
    0.17919850316838718447E-08
    0.10250416537322630875E-01
    0.58629430828123821860E-03
    0.57408637312733888238E-13
    0.14023194263248667246E+00
    0.86754702679268168677E-04
    0.48965081931104479210E-07
    0.74685475791476775911E-03
    0.86459034277111819180E-05
    0.25382269114150026175E-07
    0.75081571116241094615E-06
    0.74519579797800989802E-15
    0.27996067819512971721E-02
    0.35594777046355987477E-14
    0.11806151691823193323E-01
    0.17126341939262328075E-03
    0.26182294309075109743E-03
    0.25004819836220539037E-06
    0.16156532797503701023E-03
    0.14095744471912059130E-03
    0.16923558509355668171E-12
    0.93397729716494407306E-20
    0.13263099547610883403E-05
    0.76355938331404560332E-05
    0.16660975659476596773E-02
    0.26698880999978724712E-15
    0.57257366457584942115E-06
    0.66843518015686731055E-09
    0.24616238645613644187E-07
    0.27888510821379765936E-15
    0.24849226551683398202E-16
    0.15926841307704501488E-06
    0.10700632822088010083E-09
    0.13375394335622195485E-02
    0.18469584306848133120E-06
    0.54780978964661153442E-14
    0.50149608501000337440E-04
    0.63897329004540387906E-05
    0.25319223537894265790E-14
    0.11597180056393449849E-13
    0.36904966614290396611E-07
    0.74734700973364874029E-17
    0.10690461893459423112E-06
    0.26241020585218913564E-05
    0.22366896054838522013E-07
    0.64159918350042633680E-16
    0.40308058890378189261E-14
    0.32563917239539431511E-07
    0.77006728621395370778E-06
    0.11483545991420017790E-10
    0.24493019942651355833E-02
    0.13920157283058797165E-02
    0.66993455416824623767E-05
    0.56148647381083139229E-07
    0.39745392990268314270E-14
    0.12602105088499513912E-16
    0.42794121864357562371E-16
    0.11324997883598670257E-13
    0.63660445221687004832E-14
    0.57938604010800871378E-13
    0.10120448790829378403E-14
    0.25658257143386765114E-15
    0.10562325300922182199E-13
    0.67542374144899710041E-13
    0.43065497944919795391E-12
    0.17502113345251771182E-10
    0.10580617421971122215E-11
    0.26741364144352618479E-11
    0.46848410009441241340E-09
    0.53686222777118334937E-17
    0.68263537299172210433E-18
    0.18991384710264538336E-17
    0.27935708438276782786E-06
    0.15037038673944065421E-05
    0.17603415631846192069E+00
    0.25850189534950374776E-01
    0.56964476476086635393E-01
    0.39334462592864598285E-01
    0.38825668093517076707E-01
    0.50612428602443915171E-01
    0.82379733824281223264E-01
    0.11861950605043380946E+00
    0.81909603475398259920E-01
    0.21970663600272753030E-01
    0.66049320949264425651E-01
    0.98243462991639385340E-01
    0.46507988832706945170E-01
    0.24360646604269300952E-01
    0.67321971793395768164E-11
    0.14933568883435513880E-11
    0.61206485613284470485E-11
    0.13590142464431035493E-07
    0.24798339382341868580E-05
    0.55404710538491561033E-05
    0.44389794076447729421E-06
    0.69618535772714705114E-05
    0.17607031433987680265E-06
    0.70691641836098509630E-07
    0.38890027755142549682E-07
    0.20361964217039046246E-06
    0.10686848572771902294E-07
    0.12196270252496791518E-07
    0.10456626835002882849E-09
    0.47737793285588821981E-07
    0.36217699732248978732E-17
    0.97006366088303733440E-08
    0.76305379778344957281E-04
    0.65415829169390235661E-04
    0.75729141169869856713E-03
    0.34539982107548963981E-03
    0.16104604236590572208E-16
    0.78140245758630908708E-16
    0.16033021242435003902E-14
    0.87202860753202957330E-16
    0.42692070953576345878E-12
    0.60351194702855871289E-13
    0.23703040920052769397E-13
    0.48154243982136493608E-16
    0.45614235266040185194E-14
    0.75223730940436649428E-15
    0.20753566689369071577E-02
    0.53510196904456523020E-02
    0.15416455270883303320E-08
    0.44068063792830602097E-04
    0.14481620565102740776E-13
    0.47152049013318682667E-13
    0.36945842268611998078E-13
    0.23609938609893968389E-05
    0.79695445471275600014E-06
    0.11657900264648170252E-01
    0.87712221486982346746E-02
    0.13524060410979254403E-19
    0.18404552901912959272E-16
    0.95034529571026670278E-17
    0.34143633339116069575E-18
    0.11638316722995613759E-18
    0.22300924795384022444E-13
    0.18034639496640172790E-13
    0.68838986945798082460E-15
    0.45274358782261153185E-14
    0.11598949369395215628E-12
    0.14067885386660370719E-13
    0.77402738171177911242E-15
    0.14600418450040749351E-17
    0.97637468502988700317E-16
    0.43049538085056067809E-17
    0.16732726236627977427E-16
    0.52498711884943912508E-16
    0.23520596040423599092E-12
    0.44672792959142760278E-10
    0.21009732364891872442E-11
    0.16036435781202935588E-11
    0.43674400877295816645E-11
    0.46940655059117877805E-11
    0.10278933056983197923E-10
    0.46118251812607506606E-09
    0.72204127271901952200E-12
    0.94706329768433078022E-10
    0.14000238722232381099E-09
    0.77470506600376649301E-08
    0.14651469963089997322E-17
    0.14761575586708770097E-16
    0.37825126021584936406E-04
    0.56017615897984494557E-05
    0.80629891416004227189E-05
    0.13210185020639856774E-04
    0.10669546199503431028E+00
    0.97288507053071751618E-01
    0.15855211638689320486E+00
    0.12285708463519194600E+00
    0.12502768500060780398E-11
    0.16392753073102588187E-13
    0.94760352174815524039E-12
    0.13809854957267990745E-11
    0.98238911039608997219E-11
    0.47111599483193998856E-10
    0.10443829356796014199E-12
    0.23261146994751745223E-09
    0.89984245712288728380E-07
    0.17959890793597460874E-06
    0.73333121221400567776E-09
    0.24155824470530990695E-09
    0.60991583294943917064E-08
    0.15614904495397080883E-06
    0.10400279803573364337E-07
    0.24945502849128087396E-05
    0.10380572148284361778E-06
    0.34209089726787854974E-06
    0.45694271788686940635E-04
    0.27740429221010672696E-03
    0.16714484667529149299E-04
    0.33567457416868344891E-04
    0.16459594912954675860E-03
    0.33859181999587118286E-03
    0.11683232092433040001E-03
    0.36569611536035760886E-04
    0.29653483699478571268E-04
    0.68004620009118923714E-04
    0.29949738974110646300E-16
    0.33649786738225888308E-16
    0.16812463617710558481E-16
    0.42597985357160985288E-14
    0.32037086570567355789E-12
    0.61961515622758574306E-13
    0.12045068870992301641E-01
    0.18172689917394808240E-01
    0.45221797479331683531E-14
    0.41035223567274358001E-12
    0.12046911083005372848E-14
    0.64554442682823867268E-06
    0.10922357596809318111E-05
    0.11863225890226437561E-19
    0.58519750147092576117E-18
    0.22827762062160891529E-19
    0.13475828152531578738E-14
    0.11741813479057092717E-11
    0.27506942492830200954E-11
    0.91776198184041556259E-13
    0.93152207466182121443E-01
    0.12963281197598863770E+00
    0.17562252121340710120E+00
    0.16549700910839154622E+00
    0.29282918283879073024E-11
    0.65552950633564424543E-12
    0.17178261953983280834E-10
    0.52312399955811812078E-11
    0.46389564652761684596E-10
    0.42911079082063386154E-10
    0.22390495969978735056E-10
    0.20920832723957069237E-08
    0.22366514843020077348E-06
    0.75957001472909648951E-06
    0.59217263986960971596E-07
    0.40674501085493826951E-06
    0.38694455736492287295E-06
    0.19917500983254829184E-04
    0.14181078998660428940E-05
    0.27704300999281751051E-05
    0.47018418311761819243E-03
    0.15618714314930774289E-03
    0.12655358179668226167E-03
    0.73482218677461825216E-04
    0.15968496283218867730E-03
    0.15684883750334893877E-03
    0.23980481855153187734E-04
    0.11523955906264437632E-03
    0.12931542101039597017E-04
    0.18473501751969021286E-04
    0.58448266085380890002E-05
    0.17027280991662207801E-06
    0.48831848233415658253E-05
    0.79836467093630595211E-05
    0.73337737827530020851E-05
    0.37619247670134196358E-05
    0.90946541755896286766E-16
    0.20121019064466253422E-16
    0.59955505508902820589E-15
    0.87326423933517516811E-23
    0.10658139077576244535E-17
    0.10387273767261957849E-15
    0.38940659724062018972E-15
    0.19477611002497392937E-16
    0.21326034924070606927E-15
    0.36914691371384379956E-15
    0.65528227557800897064E-14
    0.19088434822749871254E-14
    0.36133068181561718564E-14
    0.61074176943270208013E-13
    0.16210069842227204769E-13
    0.19980982450297439637E-12
    0.23258054868028984688E-12
    0.10109011694344103013E-11
    0.66864567727023786938E-13
    0.21017825423472705557E-14
    0.79374185753270763262E-11
    0.54069291254176819462E-11
    0.14516038924608834493E+00
    0.16574674026922239789E+00
    0.44584356836827541982E-07
    0.24762054791004367407E-08
    0.10332717008487524637E-07
    0.26767655651481072304E-07
    0.12488853126781614389E-08
    0.13320682847325357951E-09
    0.83925506383347639277E-09
    0.21936457805631610092E-07
    0.23516564658422005991E-04
    0.98592379670348437691E-07
    0.72562105542166530696E-06
    0.88158632400969214906E-07
    0.57789351093274412754E-07
    0.35467547000032666569E-06
    0.17956790399756249011E-07
    0.63253743153793263512E-08
    0.14888074318124045466E-05
    0.23045574140545661012E-05
    0.72547351874188963608E-06
    0.48759911469128942621E-05
    0.11140465035968703361E-06
    0.28836934006219841360E-05
    0.82090063329507929820E-05
    0.12559066135246099743E-04
    0.40193684566159639830E-05
    0.76643637988835214476E-05
    0.14789729091786547811E-03
    0.23348870647444427799E-03
    0.36586944141083464505E-03
    0.23090470379980612388E-03
    0.13047714196221648492E-02
    0.84433725205852435194E-03
    0.12037564904836869223E-03
    0.61435183065702527383E-04
    0.11233893005504506854E-16
    0.19212214334396678860E-17
    0.16252028497546058350E-04
    0.47871812865353415210E-05
    0.25464630018707948091E-07
    0.13202405818834962451E-06
    0.36364490030422783537E-09
    0.18013803869777830425E-06
    0.12496472704125984504E-06
    0.27962489525941060756E-05
    0.87157247463443919483E-08
    0.53408296587174216639E-07
    0.63942875810127988520E-15
    0.68310402170811071913E-14
    0.22444950103097892429E-06
    0.58017725979950017895E-07
    0.41704902174686943924E-17
    0.19727263530044688833E-15
    0.49911006844767402371E-19
    0.42371951695323177833E-17
    0.66067417668307828421E-16
    0.87880936894759286486E-14
    0.36312775699627166141E-13
    0.96113561689567591685E-12
    0.15654156342323003884E-15
    0.95421665863816413853E-15
    0.15523977072570894854E-12
    0.24771558480952110963E-14
    0.12564744922390698795E-10
    0.26584443342525412292E-12
    0.23948467514105392130E-02
    0.45742475238868037380E-04
    0.40814888379421760192E-03
    0.35840325131281612885E-03
    0.27482978790028270372E-03
    0.25310272058852601996E-04