# vtk DataFile Version 3.0
LAPLACIEN  2D
ASCII
DATASET UNSTRUCTURED_GRID
 POINTS        1616  float
  0.45880792999999997       0.87913892999999999        0.0000000000000000     
  0.40372658000000000       0.18243693000000000        0.0000000000000000     
  0.52563972999999997       0.19039755999999999        0.0000000000000000     
  0.45642953000000003       0.24226190000000000        0.0000000000000000     
  0.51984098000000001       0.24548566999999999        0.0000000000000000     
  0.21212766999999999       0.18957676000000001        0.0000000000000000     
  0.28573643999999998       0.48586826999999999        0.0000000000000000     
  0.49667887999999999       0.82979849000000006        0.0000000000000000     
  0.22848407000000001       0.23366793000000000        0.0000000000000000     
  0.27860389000000002       0.86069733000000004        0.0000000000000000     
  0.36563702999999997       0.80971340999999997        0.0000000000000000     
  0.28045499000000002       0.80393031999999998        0.0000000000000000     
  0.40374228000000001       0.78127665000000002        0.0000000000000000     
  0.56160891999999996       0.55341227999999998        0.0000000000000000     
  0.37210935000000001       0.26787699999999998        0.0000000000000000     
  0.49899838000000002       0.57286409999999999        0.0000000000000000     
  0.41023869000000002       0.33464665999999998        0.0000000000000000     
  0.33484156999999998       0.29151022999999998        0.0000000000000000     
  0.46758665999999999       0.58262307999999996        0.0000000000000000     
  0.43303693999999998       0.36569945999999998        0.0000000000000000     
  0.25741280000000000       0.61805882999999995        0.0000000000000000     
  0.28853707000000001       0.59423020000000004        0.0000000000000000     
  0.67837254000000002       0.45038665999999999        0.0000000000000000     
  0.42159046000000000       0.50697913999999999        0.0000000000000000     
  0.60276470999999998       0.73940291000000002        0.0000000000000000     
  0.30758273000000003       0.77844542000000005        0.0000000000000000     
  0.45367541000000000       0.31842187000000000        0.0000000000000000     
  0.36974101999999998       0.35807864000000000        0.0000000000000000     
  0.26919625000000003       0.65312176000000000        0.0000000000000000     
  0.61908110999999999       0.42741791000000001        0.0000000000000000     
  0.54442267000000000       0.74200747000000000        0.0000000000000000     
  0.58930464999999999       0.41588288000000001        0.0000000000000000     
  0.51511633000000001       0.74331579000000003        0.0000000000000000     
  0.12878382999999999       0.33122940000000001        0.0000000000000000     
  0.15534365000000000       0.71749246000000000        0.0000000000000000     
  0.64877724999999997       0.30161799000000000        0.0000000000000000     
  0.58853643000000000       0.28101930000000003        0.0000000000000000     
  0.56390348000000001       0.30132482999999999        0.0000000000000000     
  0.29605991999999998       0.44474459999999999        0.0000000000000000     
  0.29900669000000002       0.52983276000000001        0.0000000000000000     
  0.55954318999999997       0.48654808999999999        0.0000000000000000     
  0.42341458999999998       0.38785072999999998        0.0000000000000000     
  0.45806291999999998       0.35892998999999998        0.0000000000000000     
  0.47820750000000001       0.31147424000000001        0.0000000000000000     
  0.36344222999999998       0.38139388000000002        0.0000000000000000     
  0.17186508000000000       0.28159534000000003        0.0000000000000000     
  0.18029876000000000       0.33292397000000001        0.0000000000000000     
  0.20696366999999999       0.71822465999999996        0.0000000000000000     
  0.61326404999999995       0.34468346000000000        0.0000000000000000     
  0.29887186999999998       0.42337377999999998        0.0000000000000000     
  0.33271837999999998       0.44383096000000000        0.0000000000000000     
  0.31835012000000001       0.54267131999999996        0.0000000000000000     
  0.54882964999999995       0.45462609999999998        0.0000000000000000     
  0.20448143999999999       0.28717446000000002        0.0000000000000000     
  0.20634120000000000       0.33378063000000002        0.0000000000000000     
  0.23301781999999999       0.71859421999999995        0.0000000000000000     
  0.58606499999999995       0.35199907000000002        0.0000000000000000     
  0.20841100000000001       0.45369578999999999        0.0000000000000000     
  0.24778198000000001       0.77708496000000005        0.0000000000000000     
  0.30748062999999998       0.61002621000000001        0.0000000000000000     
  0.23337332000000000       0.41981835000000001        0.0000000000000000     
  0.25985113999999998       0.75924943000000000        0.0000000000000000     
  0.24610213000000000       0.40254353999999998        0.0000000000000000     
  0.37350351999999998       0.50127178999999999        0.0000000000000000     
  0.43235204999999999       0.78236391000000005        0.0000000000000000     
  0.30749858000000002       0.28582627999999999        0.0000000000000000     
  0.30336816000000000       0.64635111000000001        0.0000000000000000     
  0.31418906000000002       0.43625961000000002        0.0000000000000000     
  0.27223414000000001       0.78063022000000004        0.0000000000000000     
  0.22829299000000000       0.75089561000000005        0.0000000000000000     
  0.26580239000000000       0.42989294000000000        0.0000000000000000     
  0.37369119000000001       0.51975733999999996        0.0000000000000000     
  0.39681665999999999       0.51027884000000001        0.0000000000000000     
  0.32086795000000001       0.65137668999999998        0.0000000000000000     
  0.31757218999999998       0.62987181000000003        0.0000000000000000     
  0.32959777000000001       0.42500900000000003        0.0000000000000000     
  0.24663835000000001       0.74537787000000000        0.0000000000000000     
  0.26354222999999999       0.41075105000000001        0.0000000000000000     
  0.28343712999999998       0.43221330000000002        0.0000000000000000     
  0.34682245000000000       0.43182289000000001        0.0000000000000000     
  0.35306810000000000       0.45344571000000000        0.0000000000000000     
  0.57327218000000002       0.15829040000000000        0.0000000000000000     
  0.51473097999999995       0.12621746000000000        0.0000000000000000     
  0.72829681999999996       0.40151571000000003        0.0000000000000000     
  0.42703184999999999       0.53501600999999999        0.0000000000000000     
  0.32612607999999998       0.75472421999999995        0.0000000000000000     
   9.9814849999999997E-002  0.28081352999999998        0.0000000000000000     
  0.13945825000000001       0.78732252999999996        0.0000000000000000     
  0.44199519999999998       0.38275643999999998        0.0000000000000000     
  0.40132215999999998       0.36508836000000000        0.0000000000000000     
  0.43963142999999999       0.34043466999999999        0.0000000000000000     
  0.47160058999999999       0.33493045999999999        0.0000000000000000     
  0.45615203999999998       0.28038164999999998        0.0000000000000000     
  0.34321279999999998       0.35314412000000001        0.0000000000000000     
  0.29178279000000001       0.56170810000000004        0.0000000000000000     
  0.49833080000000002       0.48416767999999999        0.0000000000000000     
  0.46386271000000001       0.46452802999999998        0.0000000000000000     
  0.44722043000000000       0.45300645000000000        0.0000000000000000     
  0.46562803000000003       0.44419790999999997        0.0000000000000000     
  0.43925322000000000       0.48229485999999999        0.0000000000000000     
  0.49117628000000002       0.45665803999999999        0.0000000000000000     
  0.43435156000000003       0.46523363000000001        0.0000000000000000     
  0.19405754000000000       0.31093060000000000        0.0000000000000000     
  0.22069087000000001       0.66905079000000001        0.0000000000000000     
  0.30776597999999999       0.59042684000000001        0.0000000000000000     
  0.29541507000000000       0.57849362000000004        0.0000000000000000     
  0.28335474999999999       0.61970232999999997        0.0000000000000000     
  0.29935165000000002       0.62852803999999995        0.0000000000000000     
  0.28459435999999999       0.64121777000000002        0.0000000000000000     
  0.26698675999999999       0.63435282999999998        0.0000000000000000     
  0.24031983000000001       0.64700659000000005        0.0000000000000000     
  0.33118850000000000       0.50233682999999996        0.0000000000000000     
  0.35257061000000001       0.51072803000000000        0.0000000000000000     
  0.29038973000000001       0.78732479000000000        0.0000000000000000     
  0.28737915000000003       0.76752330999999996        0.0000000000000000     
  0.21978159000000000       0.73315437000000006        0.0000000000000000     
  0.18119734000000001       0.76257752999999995        0.0000000000000000     
  0.20353571000000001       0.75186065999999996        0.0000000000000000     
  0.39122694000000002       0.49007234000000000        0.0000000000000000     
  0.59140473999999998       0.13507609000000001        0.0000000000000000     
  0.53156702000000000        9.7663528999999999E-002   0.0000000000000000     
  0.76346223999999996       0.39657278000000001        0.0000000000000000     
  0.41119013999999998       0.52354409999999996        0.0000000000000000     
   7.2558165999999993E-002  0.26885883999999999        0.0000000000000000     
  0.10497347000000000       0.79895936000000001        0.0000000000000000     
[...]
 CELL_DATA        2963
 SCALARS Tumor_cells float
 LOOKUP_TABLE default
    0.20193519468384608612E-14
    0.30139511921237708847E-07
    0.79133181139609992219E-09
    0.20602590422386650572E-09
    0.22933656539361155466E-08
    0.12074689781417066042E-11
    0.17597961048998990765E-11
    0.83489888398512291843E-07
    0.42136245323638561661E-18
    0.14615657626410069429E-02
    0.10690471157521028207E-09
    0.26827910326602126790E-08
    0.48612366538957169535E-10
    0.20880743727416331006E-08
    0.48637653432355989373E-17
    0.21617415383344688842E-10
    0.83036176158305839094E-03
    0.82702777583343797638E-10
    0.74449406636834902363E-12
    0.81573552361106559206E-07
    0.40820220833783045672E-08
    0.18844399070441594790E-01
    0.40921863024737402392E-01
    0.58038973933146157209E-07
    0.12047905277968584574E-05
    0.12185222042150466875E-03
    0.37471592062681611315E-06
    0.24912941774166207478E-12
    0.98212895600449008221E-09
    0.41619728843977491732E-07
    0.38366678076503677938E-03
    0.46973003928993319454E-16
    0.12802684469868537575E-07
    0.38726345885310562955E-05
    0.39554981986558665818E-07
    0.10709704784982667614E-05
    0.67638886137949045850E-08
    0.73208416270035632357E-05
    0.47969291255391500912E-13
    0.50048654407848489067E-01
    0.23533558821658964667E-12
    0.10214329654418233576E-08
    0.27221150150967234283E-06
    0.12314383211384486123E-06
    0.20637661969848019077E-16
    0.44431771958866013775E-04
    0.83193087082882096633E-13
    0.10170320239044571035E-14
    0.21067494357750434752E-07
    0.29831102084279548412E-16
    0.27991341525180162800E-04
    0.65051643583874009383E-13
    0.68963988129616919887E-13
    0.22284868982015183018E-10
    0.10579131607199698720E-08
    0.11921499243182674200E-03
    0.70546483205645027392E-13
    0.42668395634687499029E-04
    0.10150628610831139982E-03
    0.10166143125060769830E-10
    0.12651783343079492654E-03
    0.24553469466515514403E-08
    0.10074748112019115337E-14
    0.97217141735238846514E-16
    0.84998971664233127934E-09
    0.94148210606853741274E-04
    0.27192332130077133330E-05
    0.10106409094300682126E-03
    0.14650347832041676899E+00
    0.68678082128756976122E-10
    0.35897498678102176863E-13
    0.13939028090110704063E-03
    0.20203192860154895489E-09
    0.40893614891741203873E-08
    0.12041091145015437452E-02
    0.13080899681325939676E-02
    0.16931805374663433383E-01
    0.24064796818527330177E-03
    0.67223514688780917925E-12
    0.55234816149844775750E-04
    0.11820696497243317294E-14
    0.44429769617863895280E-04
    0.13067777066363007576E-03
    0.55030937710852257522E-02
    0.87776494826995663781E-05
    0.28390179893772818134E-08
    0.15072271542439828141E-10
    0.10318535787172279811E-06
    0.38449057878890065535E-06
    0.35657407973555346496E-13
    0.29486175975614831331E-07
    0.27953927223972293344E-04
    0.38167959955598719513E-01
    0.67349114384347705318E-04
    0.39931214481407864280E-06
    0.30188384870013825324E-04
    0.18032078385324803310E-01
    0.16632969181464752784E-07
    0.84874639589166728117E-08
    0.42876630598851070341E-09
    0.22324003695406962832E-11
    0.67643595558524519103E-07
    0.63600418900338612075E-04
    0.67963979268076104769E-08
    0.87486965295701397266E-02
    0.60574853454824641688E-11
    0.58393107959171043436E-08
    0.17284381331463666718E-13
    0.33676493226464988037E-04
    0.44128244722748709956E-09
    0.16564536899220876001E-09
    0.44456741701352825241E-10
    0.26443739930724496689E-12
    0.10277954101752673526E-09
    0.85689798898348337060E-14
    0.57221305461427448117E-11
    0.17946381003651481887E-14
    0.14667104761277997627E-15
    0.38111246405310435052E-02
    0.64112328575215290442E-03
    0.52031190365769552907E-11
    0.24049483332124656189E-11
    0.29853172236492133122E-11
    0.49426410073694775782E-05
    0.98468658491001287742E-13
    0.21433377305792749783E-05
    0.96513763578534235145E-12
    0.77138924636883029486E-04
    0.18047743288525264650E-02
    0.17758297382577717372E-03
    0.18952910401060051015E-05
    0.35238315858145171223E-04
    0.72707557108913925537E-01
    0.26048391957054183710E-05
    0.16569919007175919483E-03
    0.50030815012760802580E-03
    0.48056368169949046287E-03
    0.24955922397543092153E-03
    0.69638685215882304029E-11
    0.13963614861780828617E-02
    0.10879436863015260958E-03
    0.12174829930225075959E-05
    0.14188051727046421813E+00
    0.40572589583305021955E-03
    0.21990415929100824081E-03
    0.85898771451230941238E-06
    0.94309489821811172770E-09
    0.13848579841473489186E-05
    0.18326836217155120582E-11
    0.55606893076552807616E-03
    0.36712518343993710460E-08
    0.13098089115527852822E+00
    0.26413937284683493539E-03
    0.61210981338723355578E-06
    0.94631876700709644801E-11
    0.40893392559247913937E-09
    0.34179240686507748456E-11
    0.72125670156558776934E-10
    0.28334179370379585164E-11
    0.30984575340711383495E-11
    0.25448147070301285241E-10
    0.11335185019222503541E-10
    0.12417555019263780788E-05
    0.75954381368668237931E-04
    0.11499131459676355313E-08
    0.13661562371211234527E-03
    0.44797646282446089167E-12
    0.25642675780999115126E-04
    0.29905704639550246930E-02
    0.36273287428787846712E-05
    0.11030936751107877150E-01
    0.44111859580758382262E-11
    0.49219505014027801365E-08
    0.19169948748681545005E-04
    0.22596114766935295932E-09
    0.41953229390660786167E-10
    0.39649761522343368695E-07
    0.30982515179974808086E-08
    0.29950908012469849227E-10
    0.13289986754191197383E-12
    0.20795392748466047170E-02
    0.24167386288763017734E-06
    0.18029723167142263217E-05
    0.10163997925235577164E-10
    0.46410453899921587969E-09
    0.10204336584773277165E-08
    0.93924280549711924491E-04
    0.73690048216360761954E-04
    0.34250506473315584866E-03
    0.66082084518250020472E-13
    0.71997523995642317608E-08
    0.11040853674788109196E+00
    0.58947394041554274733E-11
    0.39283911088323743849E-12
    0.96709488300148350320E-02
    0.84585618437885399438E-12
    0.39625252188428619626E-01
    0.19487681984676178429E-04
    0.16655338865187570648E-04
    0.24031173830882706433E-10
    0.63219054862093865235E-06
    0.14172965894642747860E-07
    0.15888582077683931830E-08
    0.28520971144136056900E-04
    0.76929804666235654387E-01
    0.61218017372042979329E-01
    0.11072789022339882435E-04
    0.58702957851668076394E-01
    0.10831426717138598059E+00
    0.15161962933717193834E-11
    0.21373302585542129826E-10
    0.25114071654401385475E-01
    0.51883410264872649453E-01
    0.10383721461784425097E-11
    0.62142003090359642593E-08
    0.19989911079503942211E-08
    0.39791753789184287153E-05
    0.93359119550158291279E-04
    0.87624609402971731509E-02
    0.88176742443100180799E-04
    0.35088168661458937584E-07
    0.18074851410811407689E-08
    0.22524461392730004973E-04
    0.11456579999468219171E-03
    0.87611819254234247871E-04
    0.29749651261364165139E-08
    0.17180662110105016332E-03
    0.52908923661786096799E-05
    0.33447348651290485196E-05
    0.14435956312142868307E-03
    0.14616602258572391291E-04
    0.40899596805120221797E-05
    0.42090987302174484133E-09
    0.33747586363371382019E-02
    0.61149380186520567084E-06
    0.47622952443827389199E-03
    0.70347080606728382329E-14
    0.19324866572384680891E-01
    0.62365416413769539372E-01
    0.13327259662446358512E+00
    0.66682824197755762637E-04
    0.48200193866077364854E-07
    0.38281420619131700800E-01
    0.41232283225174901076E-01
    0.20027484620912756885E-01
    0.13689844058037222330E-03
    0.16645448157462806437E-02
    0.20354628131878473355E-03
    0.31753395789443743247E-03
    0.57823150445598131553E-01
    0.57088328944831685796E-02
    0.25104700677411723425E-07
    0.43053127370851370075E-04
    0.14324598608336922001E+00
    0.10179150816793360895E-05
    0.14907138540512536892E-06
    0.16678986205833525031E-04
    0.40483173606472731745E-03
    0.14736857147893590511E-01
    0.31157392959516776835E-07
    0.10428985317562420795E-01
    0.68534887266328732569E-02
    0.48617877150923987165E-02
    0.23989982828910984366E-07
    0.24428699673956180694E-01
    0.24121559822504061222E-10
    0.12586004099960820812E+00
    0.98318152756221403876E-02
    0.98098019571159038310E-03
    0.40532735766641625474E-01
    0.14508971866242544528E-07
    0.31312111205459634659E-02
    0.14539077837561148118E-01
    0.10954407439216647634E-02
    0.30419557469244691561E-02
    0.18628660123748857478E-09
    0.32224485417376031012E-07
    0.12640695975537669830E-07
    0.59661352211479557295E-12
    0.99189226144377902993E-03
    0.52814377522080985397E-11
    0.80713819764516859232E-04
    0.13753920970005693950E-04
    0.46961764390829225486E-07
    0.17642512191426850017E-02
    0.58616157594596332329E-13
    0.27619365534988532529E-01
    0.11153827889231870268E-02
    0.36918129007932915658E-03
    0.10049099121916823004E-06
    0.60308103875750066917E-07
    0.27079409835312239850E-07
    0.22055185052800708838E-02
    0.22970106436280511330E-12
    0.25282044993977167056E-06
    0.41489560944126549491E-01
    0.18228859401936067797E-02
    0.37504193264751034857E-09
    0.12598004535717599595E+00
    0.99743239702395855052E-03
    0.62475550500705505502E-05
    0.34157107248809848513E-02
    0.25478279713738095262E-03
    0.83315316787463060248E-05
    0.61729362311579817689E-04
    0.75881799298218814018E-11
    0.63829487745172440102E-02
    0.29738098931175167485E-10
    0.16562345124548027292E-01
    0.18203670495992659191E-02
    0.86002616457080452959E-03
    0.12369520516660753668E-04
    0.20486286247859671408E-02
    0.11629561488424380866E-02
    0.16866151894753069196E-08
    0.23884404732068291218E-13
    0.34192458797639650844E-04
    0.43091193961258020088E-03
    0.17241245133365196152E-01
    0.16115291860541146596E-10
    0.48611942414175525853E-04
    0.30368264238835600891E-06
    0.54573188456292843869E-05
    0.14023493934144801860E-10
    0.92214008187510688467E-11
    0.18672411276373533033E-04
    0.17919754608424929350E-06
    0.66461265302128055485E-02
    0.24794005210074359502E-04
    0.41436450299384611166E-09
    0.23087730754936720444E-03
    0.71252600820204042083E-04
    0.17928479948667345643E-09
    0.48219758980163698806E-09
    0.44430843563887401307E-05
    0.42542499278345926907E-12
    0.67160598360822972461E-05
    0.11958090288944692712E-03
    0.68390305788077702587E-05
    0.41945932617625156414E-11
    0.10333996945406631210E-09
    0.10033145747276061329E-04
    0.18128606712230710082E-03
    0.22653502343646023620E-07
    0.42489375117620072769E-02
    0.42981012338760525571E-02
    0.89882124797165403982E-04
    0.88676130926480404231E-05
    0.67537257985918478520E-10
    0.37979916508863722911E-11
    0.80129372421128724532E-11
    0.28301106844080688426E-09
    0.21084453354409665156E-09
    0.16165890972412181581E-09
    0.10345518626900397920E-10
    0.34280122678554263295E-11
    0.54341917866102566976E-10
    0.18664534941407557049E-09
    0.70142487660240740294E-09
    0.94329660759369387293E-08
    0.12549736100472957190E-08
    0.26812276955207222142E-08
    0.12770981561688868308E-06
    0.33068796024447073725E-12
    0.58951158245716790128E-13
    0.13040089261977524274E-12
    0.16083606225704989414E-04
    0.43832092606881517007E-04
    0.16710695277389281399E+00
    0.31172453946206050285E-01
    0.72401912949199939695E-01
    0.38761970802226090871E-01
    0.48837905577432408344E-01
    0.50427497635948191623E-01
    0.10301429628167764474E+00
    0.10423141108429771762E+00
    0.68277030809464428485E-01
    0.23023913274465328954E-01
    0.81867488587045941784E-01
    0.11888225028551670237E+00
    0.50230266411836289875E-01
    0.26520933695668422181E-01
    0.17186449500552396364E-07
    0.57428211127193054010E-08
    0.20653494915625260101E-07
    0.28431257526152658512E-05
    0.55355857436936835249E-04
    0.89830315329727632992E-04
    0.22288085635485753688E-04
    0.10635925755097619481E-03
    0.10339673552995693227E-04
    0.61062550385938031762E-05
    0.41854181508418768118E-05
    0.11919785103637131892E-04
    0.18098564639144351331E-05
    0.21024632320405227104E-05
    0.12524500330874675693E-06
    0.55272147713141167702E-05
    0.23234638465440544239E-11
    0.18983898467004851480E-05
    0.41807105273916172735E-03
    0.24477669254093794259E-03
    0.16558732990017859844E-02
    0.90624879386994895963E-03
    0.26506696276491184506E-11
    0.74008060162188969676E-11
    0.62079823005791700582E-10
    0.63109003627053228542E-11
    0.35121390159763738946E-08
    0.95061695974763781811E-09
    0.51647760501176575573E-09
    0.77237656055239890728E-11
    0.17383867375881580925E-09
    0.48563906931106858633E-10
    0.36801539948999074936E-02
    0.79670954708664712407E-02
    0.12227505987250626505E-05
    0.15498821463445861739E-03
    0.28118191350424032309E-09
    0.79764790155191974898E-09
    0.45305041095224718649E-09
    0.41692872470045356766E-03
    0.16409363557531159421E-03
    0.14434271940256527406E-01
    0.11715055001839051740E-01
    0.36719839344677150820E-13
    0.21197524715976962249E-11
    0.31215336278382008736E-11
    0.39865887271573346479E-12
    0.14969503553955647371E-12
    0.89398254430950562037E-10
    0.69081003295228333987E-10
    0.65499945428463791345E-11
    0.26260132732801973862E-10
    0.27561020056914415804E-09
    0.56618950544447017703E-10
    0.73676120154685883439E-11
    0.96992266194938984872E-13
    0.16319765171101979301E-11
    0.19130193196262784285E-12
    0.49372633778421021488E-12
    0.10656791834148349504E-11
    0.50255858826918112140E-09
    0.19872407409406156983E-07
    0.21379556382155368546E-08
    0.17757789755191295851E-08
    0.35386218524159845669E-08
    0.38270477764044344425E-08
    0.67973493330006965376E-08
    0.11502800873718404216E-06
    0.10845254627024487099E-08
    0.44235901775808472661E-07
    0.54865565055289480115E-07
    0.91599187280029456893E-06
    0.86314252209840072554E-13
    0.47125423071590724524E-12
    0.27820307039517138759E-03
    0.96354214720019345239E-04
    0.10250335569809003217E-03
    0.15546873037225101047E-03
    0.13103050257916937227E+00
    0.10657263028118039994E+00
    0.16167418900549135330E+00
    0.13211620287694580966E+00
    0.60314453046934608898E-08
    0.37677631740972471362E-09
    0.46524129289788873978E-08
    0.55921536283160606653E-08
    0.18520367988056651397E-07
    0.55378058435112480336E-07
    0.15680344487003728894E-08
    0.18990004007389376394E-06
    0.85593964500473163076E-05
    0.12636002314375144480E-04
    0.39893951033748859822E-06
    0.23936257211224854802E-06
    0.16091736821659034910E-05
    0.12774487451114393229E-04
    0.21591296169317748565E-05
    0.58079328731314912326E-04
    0.96524464823006754765E-05
    0.20329829649222387681E-04
    0.31861563293034844300E-03
    0.83972081646245966963E-03
    0.17771993365673640708E-03
    0.24899633305489732695E-03
    0.63324899028153905454E-03
    0.96787304050613919525E-03
    0.51115219422979789581E-03
    0.23405402740640055968E-03
    0.17155072918715566672E-03
    0.33020369665946530061E-03
    0.30646499188819737041E-11
    0.31760119033509189615E-11
    0.35091181837539850248E-11
    0.15896258318535112694E-09
    0.33217637000983615509E-08
    0.98890947081567325521E-09
    0.15321260644054037273E-01
    0.21416540288428497635E-01
    0.14230988068318465555E-09
    0.33052813013714331810E-08
    0.51716155941340733386E-10
    0.20879556071383190119E-03
    0.20133614265954865533E-03
    0.42454995410726313550E-13
    0.53785882201444598927E-12
    0.53149604292488925278E-13
    0.11766964915488109774E-10
    0.18158781226413134685E-08
    0.28504662982702756318E-08
    0.32051499763730783884E-09
    0.12330556764243344459E+00
    0.15468066731104693212E+00
    0.15838916228805000053E+00
    0.15066764908405677614E+00
    0.99967984871310900476E-08
    0.37645039406464608312E-08
    0.26307451771713530281E-07
    0.13098109892308293506E-07
    0.72305073331715702608E-07
    0.71801328072546738274E-07
    0.48947122480792259848E-07
    0.96897241979964988514E-06
    0.15075791531820902428E-04
    0.29774818175477431293E-04
    0.75245360346944507328E-05
    0.20967156660601169447E-04
    0.21850798892808727446E-04
    0.19145573326506616814E-03
    0.46395064714380690040E-04
    0.64651190865128323453E-04
    0.11020792865185438658E-02
    0.62681559269960377377E-03
    0.38068387094379206245E-03
    0.30713299064618015911E-03
    0.47934326922870689565E-03
    0.42669806477301576745E-03
    0.19649885403579057507E-03
    0.46956539997157226846E-03
    0.13641812149501141948E-03
    0.15069191449104164674E-03
    0.88626030633399965897E-04
    0.10445708896817246903E-04
    0.68845457668798186522E-04
    0.93298276446217941042E-04
    0.10371234317952445630E-03
    0.65952219748579801089E-04
    0.12807347111553792922E-10
    0.46606161597250762152E-11
    0.41331464311494459509E-10
    0.25342667117806950907E-15
    0.61201047840157065267E-12
    0.13679415051455264201E-10
    0.32342747477701777310E-10
    0.42605057974741930811E-11
    0.22034996258820424751E-10
    0.31335005419550734427E-10
    0.20677078685710795723E-09
    0.98191435089142547123E-10
    0.14215535543639178924E-09
    0.10605979788035373572E-08
    0.64292805729552377316E-10
    0.45822309606602320331E-09
    0.52382003988920342613E-09
    0.14681448979033481649E-08
    0.21555559555869776733E-09
    0.26272732298937700353E-10
    0.74621635396456121036E-08
    0.47005876707655001943E-08
    0.16237934508146503743E+00
    0.16274199425840857325E+00
    0.56575822250567859881E-05
    0.10139198928095285465E-05
    0.23775001984192963218E-05
    0.43127782808564761049E-05
    0.64110878311514828664E-06
    0.17444645294219942588E-06
    0.55845561061611995644E-06
    0.41284123415368612569E-05
    0.21817551021879232282E-03
    0.98113196739407199624E-05
    0.30599514219127493570E-04
    0.73809454483552291396E-05
    0.71028042355809148937E-05
    0.21483015923130880384E-04
    0.34499640941051404909E-05
    0.18978695419106707603E-05
    0.46134684510941732631E-04
    0.61530206779914048648E-04
    0.32185103030817721105E-04
    0.91292666375882838489E-04
    0.11002962994999027671E-04
    0.69993119782529983320E-04
    0.12139171009763512893E-03
    0.15309644935891655805E-03
    0.80849826085246497757E-04
    0.11939819578892505499E-03
    0.57002784916024556040E-03
    0.68750067195825527444E-03
    0.87556187559707072086E-03
    0.62131747122189974475E-03
    0.24630667119410485158E-02
    0.18604076530663602243E-02
    0.53278055287423538473E-03
    0.34823354653356491679E-03
    0.32296913126581737497E-11
    0.15475301746042926990E-11
    0.18040266202962727034E-03
    0.86958288526224183164E-04
    0.46300375549897378763E-05
    0.11800717498678850421E-04
    0.27432639928846136721E-06
    0.12291598008565201108E-04
    0.10210514375092941600E-04
    0.65582256096860362411E-04
    0.23607204373023336165E-05
    0.67338455565865782464E-05
    0.53092521259041388585E-10
    0.21339673676034879796E-09
    0.16266868613719433808E-04
    0.74102804394197665499E-05
    0.17337547340201439251E-11
    0.24166210297907487151E-10
    0.97574439861468291017E-13
    0.21158268431167470736E-11
    0.13093247487612542947E-10
    0.32841623238418009139E-09
    0.25824103871053891438E-09
    0.28501419414854399852E-08
    0.54891122419467286004E-11
    0.21857956255601063433E-10
    0.71380851331570883801E-09
    0.41044319754591597587E-10
    0.16441489928445305720E-07
    0.11351166145989801728E-08
    0.68138938322309175466E-02
    0.69006027629104054605E-03
    0.15325673142350809686E-02
    0.20636772249606389652E-02
    0.18494561390049063000E-02
    0.46756386310840424188E-03