# vtk DataFile Version 3.0
LAPLACIEN  2D
ASCII
DATASET UNSTRUCTURED_GRID
 POINTS        1616  float
  0.45880792999999997       0.87913892999999999        0.0000000000000000     
  0.40372658000000000       0.18243693000000000        0.0000000000000000     
  0.52563972999999997       0.19039755999999999        0.0000000000000000     
  0.45642953000000003       0.24226190000000000        0.0000000000000000     
  0.51984098000000001       0.24548566999999999        0.0000000000000000     
  0.21212766999999999       0.18957676000000001        0.0000000000000000     
  0.28573643999999998       0.48586826999999999        0.0000000000000000     
  0.49667887999999999       0.82979849000000006        0.0000000000000000     
  0.22848407000000001       0.23366793000000000        0.0000000000000000     
  0.27860389000000002       0.86069733000000004        0.0000000000000000     
  0.36563702999999997       0.80971340999999997        0.0000000000000000     
  0.28045499000000002       0.80393031999999998        0.0000000000000000     
  0.40374228000000001       0.78127665000000002        0.0000000000000000     
  0.56160891999999996       0.55341227999999998        0.0000000000000000     
  0.37210935000000001       0.26787699999999998        0.0000000000000000     
  0.49899838000000002       0.57286409999999999        0.0000000000000000     
  0.41023869000000002       0.33464665999999998        0.0000000000000000     
  0.33484156999999998       0.29151022999999998        0.0000000000000000     
  0.46758665999999999       0.58262307999999996        0.0000000000000000     
  0.43303693999999998       0.36569945999999998        0.0000000000000000     
  0.25741280000000000       0.61805882999999995        0.0000000000000000     
  0.28853707000000001       0.59423020000000004        0.0000000000000000     
  0.67837254000000002       0.45038665999999999        0.0000000000000000     
  0.42159046000000000       0.50697913999999999        0.0000000000000000     
  0.60276470999999998       0.73940291000000002        0.0000000000000000     
  0.30758273000000003       0.77844542000000005        0.0000000000000000     
  0.45367541000000000       0.31842187000000000        0.0000000000000000     
  0.36974101999999998       0.35807864000000000        0.0000000000000000     
  0.26919625000000003       0.65312176000000000        0.0000000000000000     
  0.61908110999999999       0.42741791000000001        0.0000000000000000     
  0.54442267000000000       0.74200747000000000        0.0000000000000000     
  0.58930464999999999       0.41588288000000001        0.0000000000000000     
  0.51511633000000001       0.74331579000000003        0.0000000000000000     
  0.12878382999999999       0.33122940000000001        0.0000000000000000     
  0.15534365000000000       0.71749246000000000        0.0000000000000000     
  0.64877724999999997       0.30161799000000000        0.0000000000000000     
  0.58853643000000000       0.28101930000000003        0.0000000000000000     
  0.56390348000000001       0.30132482999999999        0.0000000000000000     
  0.29605991999999998       0.44474459999999999        0.0000000000000000     
  0.29900669000000002       0.52983276000000001        0.0000000000000000     
  0.55954318999999997       0.48654808999999999        0.0000000000000000     
  0.42341458999999998       0.38785072999999998        0.0000000000000000     
  0.45806291999999998       0.35892998999999998        0.0000000000000000     
  0.47820750000000001       0.31147424000000001        0.0000000000000000     
  0.36344222999999998       0.38139388000000002        0.0000000000000000     
  0.17186508000000000       0.28159534000000003        0.0000000000000000     
  0.18029876000000000       0.33292397000000001        0.0000000000000000     
  0.20696366999999999       0.71822465999999996        0.0000000000000000     
  0.61326404999999995       0.34468346000000000        0.0000000000000000     
  0.29887186999999998       0.42337377999999998        0.0000000000000000     
  0.33271837999999998       0.44383096000000000        0.0000000000000000     
  0.31835012000000001       0.54267131999999996        0.0000000000000000     
  0.54882964999999995       0.45462609999999998        0.0000000000000000     
  0.20448143999999999       0.28717446000000002        0.0000000000000000     
  0.20634120000000000       0.33378063000000002        0.0000000000000000     
  0.23301781999999999       0.71859421999999995        0.0000000000000000     
  0.58606499999999995       0.35199907000000002        0.0000000000000000     
  0.20841100000000001       0.45369578999999999        0.0000000000000000     
  0.24778198000000001       0.77708496000000005        0.0000000000000000     
  0.30748062999999998       0.61002621000000001        0.0000000000000000     
  0.23337332000000000       0.41981835000000001        0.0000000000000000     
  0.25985113999999998       0.75924943000000000        0.0000000000000000     
  0.24610213000000000       0.40254353999999998        0.0000000000000000     
  0.37350351999999998       0.50127178999999999        0.0000000000000000     
  0.43235204999999999       0.78236391000000005        0.0000000000000000     
  0.30749858000000002       0.28582627999999999        0.0000000000000000     
  0.30336816000000000       0.64635111000000001        0.0000000000000000     
  0.31418906000000002       0.43625961000000002        0.0000000000000000     
  0.27223414000000001       0.78063022000000004        0.0000000000000000     
  0.22829299000000000       0.75089561000000005        0.0000000000000000     
  0.26580239000000000       0.42989294000000000        0.0000000000000000     
  0.37369119000000001       0.51975733999999996        0.0000000000000000     
  0.39681665999999999       0.51027884000000001        0.0000000000000000     
  0.32086795000000001       0.65137668999999998        0.0000000000000000     
  0.31757218999999998       0.62987181000000003        0.0000000000000000     
  0.32959777000000001       0.42500900000000003        0.0000000000000000     
  0.24663835000000001       0.74537787000000000        0.0000000000000000     
  0.26354222999999999       0.41075105000000001        0.0000000000000000     
  0.28343712999999998       0.43221330000000002        0.0000000000000000     
  0.34682245000000000       0.43182289000000001        0.0000000000000000     
  0.35306810000000000       0.45344571000000000        0.0000000000000000     
  0.57327218000000002       0.15829040000000000        0.0000000000000000     
  0.51473097999999995       0.12621746000000000        0.0000000000000000     
  0.72829681999999996       0.40151571000000003        0.0000000000000000     
  0.42703184999999999       0.53501600999999999        0.0000000000000000     
  0.32612607999999998       0.75472421999999995        0.0000000000000000     
   9.9814849999999997E-002  0.28081352999999998        0.0000000000000000     
  0.13945825000000001       0.78732252999999996        0.0000000000000000     
  0.44199519999999998       0.38275643999999998        0.0000000000000000     
  0.40132215999999998       0.36508836000000000        0.0000000000000000     
  0.43963142999999999       0.34043466999999999        0.0000000000000000     
  0.47160058999999999       0.33493045999999999        0.0000000000000000     
  0.45615203999999998       0.28038164999999998        0.0000000000000000     
  0.34321279999999998       0.35314412000000001        0.0000000000000000     
  0.29178279000000001       0.56170810000000004        0.0000000000000000     
  0.49833080000000002       0.48416767999999999        0.0000000000000000     
  0.46386271000000001       0.46452802999999998        0.0000000000000000     
  0.44722043000000000       0.45300645000000000        0.0000000000000000     
  0.46562803000000003       0.44419790999999997        0.0000000000000000     
  0.43925322000000000       0.48229485999999999        0.0000000000000000     
  0.49117628000000002       0.45665803999999999        0.0000000000000000     
  0.43435156000000003       0.46523363000000001        0.0000000000000000     
  0.19405754000000000       0.31093060000000000        0.0000000000000000     
  0.22069087000000001       0.66905079000000001        0.0000000000000000     
  0.30776597999999999       0.59042684000000001        0.0000000000000000     
  0.29541507000000000       0.57849362000000004        0.0000000000000000     
  0.28335474999999999       0.61970232999999997        0.0000000000000000     
  0.29935165000000002       0.62852803999999995        0.0000000000000000     
  0.28459435999999999       0.64121777000000002        0.0000000000000000     
  0.26698675999999999       0.63435282999999998        0.0000000000000000     
  0.24031983000000001       0.64700659000000005        0.0000000000000000     
  0.33118850000000000       0.50233682999999996        0.0000000000000000     
  0.35257061000000001       0.51072803000000000        0.0000000000000000     
  0.29038973000000001       0.78732479000000000        0.0000000000000000     
  0.28737915000000003       0.76752330999999996        0.0000000000000000     
  0.21978159000000000       0.73315437000000006        0.0000000000000000     
  0.18119734000000001       0.76257752999999995        0.0000000000000000     
  0.20353571000000001       0.75186065999999996        0.0000000000000000     
  0.39122694000000002       0.49007234000000000        0.0000000000000000     
  0.59140473999999998       0.13507609000000001        0.0000000000000000     
  0.53156702000000000        9.7663528999999999E-002   0.0000000000000000     
  0.76346223999999996       0.39657278000000001        0.0000000000000000     
  0.41119013999999998       0.52354409999999996        0.0000000000000000     
   7.2558165999999993E-002  0.26885883999999999        0.0000000000000000     
  0.10497347000000000       0.79895936000000001        0.0000000000000000     
[...]
 CELL_DATA        2963
 SCALARS Tumor_cells float
 LOOKUP_TABLE default
    0.16332352291258162283E-30
    0.10720175267778833243E-15
    0.60826020856804240528E-19
    0.66760132849623575713E-20
    0.12787641544892088294E-17
    0.22382183413329948380E-25
    0.26028189523940060916E-24
    0.25172957923902253412E-14
    0.10437670129505300960E-36
    0.15984887290247605496E-03
    0.11114305412262981183E-21
    0.91525014148976494004E-18
    0.40775248816375170636E-21
    0.86485172708024368062E-19
    0.45747713310125450172E-35
    0.95510099524918125491E-22
    0.37788279482179666126E-04
    0.30303153602843721508E-21
    0.42720263164593628292E-26
    0.21859268633899165277E-14
    0.15609247008085461711E-17
    0.93501032276371714991E-02
    0.49629999392088564036E-01
    0.57143384956371278057E-15
    0.10729957096075169352E-11
    0.56003568877686553378E-10
    0.70722848476870973926E-12
    0.48670599026435944028E-27
    0.78130128177589210526E-19
    0.25360584947362401655E-13
    0.82317029615131652692E-07
    0.81742911302116220009E-33
    0.19162290258720631443E-16
    0.19856297135750104343E-10
    0.33061073552805485968E-14
    0.10190272952360557023E-10
    0.82956491732986753712E-17
    0.13140036974879129696E-09
    0.37813507424423957489E-26
    0.31940595620338161492E-02
    0.37748487038290294034E-24
    0.24839495668873965880E-18
    0.25752857756929858028E-13
    0.20700679721635554984E-12
    0.17464856483107791345E-33
    0.31518058528658517879E-07
    0.28016825809731055422E-25
    0.96117185240397027974E-31
    0.64353076381621841139E-14
    0.25353684093931238577E-33
    0.57370034897665803594E-08
    0.10507142283889565220E-24
    0.93179711596517321757E-25
    0.10000797990322138013E-19
    0.12339569302015976416E-18
    0.44774037171457102022E-08
    0.27299703960529018431E-25
    0.96864931724986383930E-08
    0.25806030951492859740E-05
    0.11680519543318394522E-22
    0.11147101499907100292E-05
    0.10156507228687671044E-18
    0.29324133481188396820E-31
    0.76157485145628835120E-32
    0.36401714561709426260E-19
    0.26540099979535229575E-06
    0.32169231299965458932E-11
    0.11243292670751169444E-05
    0.61179493905430405720E-01
    0.20933993198932523201E-21
    0.44964187109111366198E-26
    0.73006818456784824300E-06
    0.31683453055543082200E-19
    0.56284405495143296540E-16
    0.12120180552623952279E-03
    0.13057317942762167087E-03
    0.85507944421027402837E-02
    0.19373052103306213066E-04
    0.71967481238786962027E-23
    0.54291243321273436980E-07
    0.49142494360816845536E-30
    0.23341665692445517436E-07
    0.19906924116558863617E-05
    0.14771278397922500171E-02
    0.89178246779162032919E-10
    0.16646100823093119433E-18
    0.20708477309844416021E-23
    0.11068758100602645527E-14
    0.65674562549516289343E-13
    0.15929007894107389092E-28
    0.96800399023133244773E-16
    0.49576363987216448322E-08
    0.25010867117015452010E-01
    0.31403746025461631321E-07
    0.38926119556624397157E-13
    0.16503180787367637578E-08
    0.83323420278145574752E-02
    0.24199974812798600750E-16
    0.10323973750477212057E-14
    0.17027115812783478525E-19
    0.18201885843697262640E-23
    0.60875788479254983771E-15
    0.26831470072227956688E-07
    0.37042578984757085576E-17
    0.14860705667225202376E-03
    0.83518048215842929559E-24
    0.25683804500916937316E-17
    0.13676695992178289558E-29
    0.11806184642983612609E-07
    0.11398028373646091173E-19
    0.54832289432673251195E-21
    0.33120944476862029004E-21
    0.41034275989711048021E-25
    0.10867395987085005979E-20
    0.20398032217925907567E-29
    0.40794238343056129221E-23
    0.46045568730172770198E-31
    0.38999515428582280155E-33
    0.79634923662064897951E-03
    0.13726859908368703770E-04
    0.48565402265702480040E-23
    0.12370059654847563291E-24
    0.16440423231941499696E-21
    0.46644309159549096893E-10
    0.35522673214865669564E-24
    0.47914001047110092874E-11
    0.13143795682397556706E-25
    0.11943845402894247358E-06
    0.74509087108670387395E-06
    0.50769132526279875221E-05
    0.45453825216144216549E-11
    0.49514339294473123089E-08
    0.66891867256229104594E-02
    0.13970981590771807513E-10
    0.13321560542254244169E-07
    0.62353700264137526760E-05
    0.53205696244716739653E-05
    0.46830870674725279076E-08
    0.19301856920915272451E-23
    0.63854485356806632619E-06
    0.37671062561900353745E-05
    0.10252291560485051664E-11
    0.96379986238537621035E-01
    0.32047732124894647926E-05
    0.52586058885215208417E-06
    0.32582485037474390925E-12
    0.91549753504595233351E-20
    0.16621482704235858548E-11
    0.35933479482302895564E-24
    0.28233016228394600394E-06
    0.52639860737457395606E-18
    0.10295552364195201256E+00
    0.87601443766110076697E-06
    0.91006521737392587525E-13
    0.11900111334300037613E-21
    0.31644976062503002693E-17
    0.26106189058303340825E-21
    0.66415395713127988776E-20
    0.59275564229315898367E-23
    0.90786813080079682587E-23
    0.74720676976004738831E-21
    0.12199180037126607616E-21
    0.10018043375642009207E-11
    0.25858719296588937108E-07
    0.10766294501678897120E-18
    0.12975014041600462690E-06
    0.51632507799277622874E-23
    0.28597393490906643164E-08
    0.41633232796210148429E-03
    0.30716918567871112645E-10
    0.41538529760405049074E-02
    0.24172628981829958264E-22
    0.33310961111652387126E-15
    0.18978704734414307659E-08
    0.63607023327706517769E-18
    0.21994630074709392301E-19
    0.21193321745285694447E-15
    0.71943632139857046254E-18
    0.73267010630215730332E-22
    0.57451018812228173574E-24
    0.22729634884097264227E-03
    0.60449417307689430563E-12
    0.24778543111473421335E-10
    0.11960536446215382031E-22
    0.25907381587509925178E-17
    0.12843744893810162496E-16
    0.24920524020351127010E-08
    0.94359660846598970088E-10
    0.19506488651337690802E-05
    0.30305483349181942132E-25
    0.14131985633727686923E-16
    0.21939986306454599407E-01
    0.61070928145897972115E-24
    0.38431617123337521340E-23
    0.28796395297710322995E-03
    0.22571903438114509672E-22
    0.40199661895395930392E-02
    0.10811482263458807458E-08
    0.14406996050403399406E-08
    0.11616386382182541937E-19
    0.45543315121747133514E-11
    0.18190579244784339617E-14
    0.21106687490504445149E-18
    0.56232894942316144040E-08
    0.61712420460038289183E-01
    0.45531715438063564971E-01
    0.41452010453733687712E-09
    0.33810875728239472848E-01
    0.37523587128796657975E-01
    0.37350704020247643483E-22
    0.57226013129157187178E-20
    0.20130894127402862437E-01
    0.72257237348315114800E-01
    0.92708318690455371602E-25
    0.30855038775145385338E-17
    0.17710003583354861465E-18
    0.21539198329282329368E-10
    0.14838571337340289814E-07
    0.99726059829725524760E-04
    0.33658891328892457876E-06
    0.24994516940703581971E-15
    0.27605721423673499347E-18
    0.64211091429113584940E-10
    0.22723066192007817627E-05
    0.50940054220565547302E-06
    0.21059407210832498819E-17
    0.93341296490348508284E-08
    0.53025539463697676694E-10
    0.16841912695374870515E-10
    0.86732554328143736761E-07
    0.75738061251312530218E-09
    0.11781015447857705629E-09
    0.13505346449566755628E-19
    0.23105641372218240637E-04
    0.20488923875256555053E-12
    0.83634511027858277473E-06
    0.50222311086756683463E-30
    0.72312221981117976236E-03
    0.82672577613753017722E-01
    0.62729046035833041506E-01
    0.17161899860550559432E-06
    0.30147500620185068328E-13
    0.13868592685383756159E-02
    0.36887630467475969638E-02
    0.15262988121682965689E-01
    0.38230960291853571789E-10
    0.99683043673908423735E-05
    0.51657776657292586590E-06
    0.42837793383500314387E-09
    0.11935873830704268883E-01
    0.14892562072909808213E-02
    0.11805185108392141173E-15
    0.33753530653864601388E-10
    0.83984783532663781491E-01
    0.54175356286145917226E-12
    0.59300612304984730607E-14
    0.13562317957463929974E-08
    0.25000250860057147515E-08
    0.80158204444943214478E-02
    0.10153507748464352138E-15
    0.42841579765206588490E-02
    0.19785115507741676648E-02
    0.10698696868403560593E-02
    0.66876227446544661940E-14
    0.14713474438844218600E-01
    0.11568978423258599216E-19
    0.83995537686964091839E-01
    0.36137883624894995109E-02
    0.16749461196071862014E-05
    0.23725910749746729339E-01
    0.53104098280321705953E-16
    0.38372031125872351300E-04
    0.81416055246719236382E-02
    0.47505140278535481552E-05
    0.78664845792317440341E-04
    0.18531933173621728074E-20
    0.11000216153524581025E-13
    0.14013539181309927344E-16
    0.10537672714281360622E-22
    0.10866125424738190837E-04
    0.29293841990522293861E-24
    0.55597515129878877341E-07
    0.19641689832805627475E-09
    0.16543427977602470534E-14
    0.37432124629433336719E-04
    0.76150371350557630398E-25
    0.19057795928690000106E-02
    0.97266308842229856412E-05
    0.58899341494118597236E-09
    0.63774504094454389167E-14
    0.17578211966497736209E-14
    0.35303836777053887295E-15
    0.15355468802820478356E-04
    0.24741531742826419728E-26
    0.84214345448021876644E-12
    0.13336145565969455100E-02
    0.82919179358579336229E-04
    0.12613008498307650995E-18
    0.16166066984672575191E+00
    0.16355715195134878683E-05
    0.21830805954772611241E-10
    0.60369882042717332041E-04
    0.36503957423230140124E-07
    0.44000295437476550989E-11
    0.93608669157135381630E-09
    0.10799051058694054899E-20
    0.70752023517236194670E-03
    0.87894246941822716003E-20
    0.66052655969981435499E-02
    0.42642602216612705723E-05
    0.26493061285123442069E-04
    0.53682457716935655766E-09
    0.29336599718048415216E-05
    0.42991781594253574263E-05
    0.25967829416429085144E-18
    0.12007906628267131691E-28
    0.76896896160994113217E-08
    0.16566817637789657090E-07
    0.43137790375890099558E-04
    0.32730392911878625656E-22
    0.50954334760556546421E-09
    0.52429599468861372284E-13
    0.52144372888216255950E-11
    0.41595824388993361474E-22
    0.51324307071820850340E-24
    0.85200075531994346475E-10
    0.18689331744930819266E-14
    0.10072112392795366039E-03
    0.11990045418934971811E-09
    0.93280652338519254814E-21
    0.42554765531373092580E-05
    0.13930388716550235147E-06
    0.40199953713693530612E-21
    0.31190613776363341009E-20
    0.19734253509812752174E-10
    0.16494604245329453131E-23
    0.13867438162848372566E-09
    0.58636335173226950251E-08
    0.47017681554232289528E-11
    0.46433453661331003358E-23
    0.14794121110348958242E-20
    0.60962792114044944973E-11
    0.23304316275570296030E-09
    0.12767606285944790295E-15
    0.82768148540544558053E-03
    0.20861754551653851546E-03
    0.99850867566744390686E-07
    0.19210750243483971209E-10
    0.28765776222209787755E-20
    0.19466796792628693175E-24
    0.12231074946949486524E-23
    0.55744835654436802365E-20
    0.18373928136385802767E-20
    0.45137841369801998972E-18
    0.12060280679033313065E-20
    0.26764990659726435037E-21
    0.39569206634653154167E-19
    0.53073297565451415514E-18
    0.75502952216030999343E-17
    0.12395307810679071439E-14
    0.25560259007671254241E-16
    0.84707891597001876817E-16
    0.92616793242695434144E-13
    0.88530698379543654974E-24
    0.80514733560881097294E-25
    0.29545393539417353459E-24
    0.41145388644888899080E-09
    0.59408149453086763904E-08
    0.17553594144903608698E+00
    0.18703141754976577299E-01
    0.40260467555063128575E-01
    0.39559742150812440831E-01
    0.27567813749676067792E-01
    0.51344191471890614220E-01
    0.60066290007481600022E-01
    0.14110321279527973659E+00
    0.10261070743156344709E+00
    0.18531415976064016804E-01
    0.49085372152513288835E-01
    0.74902075447933674779E-01
    0.42326444567107754380E-01
    0.20114173557091906408E-01
    0.40651235923642768711E-16
    0.50157218984141613869E-17
    0.34056330575012614867E-16
    0.32089457094447562264E-11
    0.14941485011842076803E-07
    0.51435427130412875955E-07
    0.78236992569965566121E-09
    0.69531795301232961787E-07
    0.24756639977735368229E-09
    0.63464024117993103664E-10
    0.23428998481311686513E-10
    0.30155208930595179324E-09
    0.37005622248991282000E-11
    0.41020859103044946390E-11
    0.24381206150546323184E-14
    0.25915054534242027705E-10
    0.20890748412818706985E-25
    0.28664944928043934232E-11
    0.38377896551347461887E-05
    0.82706165271764170384E-05
    0.17801945410338495829E-03
    0.60505691790779335523E-04
    0.53974718024814041102E-24
    0.54686565361054636679E-23
    0.33827040527818912817E-21
    0.80568158530398571635E-23
    0.71937010650455927609E-18
    0.46080072548970835986E-19
    0.11535562635648349992E-19
    0.22408112475899349358E-23
    0.10996703464075390168E-20
    0.10762074109599442499E-21
    0.70008087739205858945E-03
    0.24809420715243180218E-02
    0.12443887347393374040E-12
    0.71407509315589607241E-05
    0.11633868270958358901E-19
    0.46792163893864248497E-19
    0.46537773881593490356E-19
    0.12138924195497313256E-08
    0.30234761954173815782E-09
    0.72347847479578529517E-02
    0.46758613466662502997E-02
    0.15481005141774992936E-28
    0.11013475372252100960E-23
    0.14033787014930722453E-24
    0.11510590614250181894E-26
    0.37124540752706395707E-27
    0.93693930819028856299E-19
    0.90301590093083491360E-19
    0.10642148531149713482E-20
    0.15086154163556407895E-19
    0.11988714748626567091E-17
    0.67832289351375882956E-19
    0.12229080139832810162E-20
    0.18750235145912642238E-24
    0.79723097258611953192E-22
    0.93629713806740451935E-24
    0.64414786750384474128E-23
    0.32359559932236190569E-22
    0.27479513650030604025E-17
    0.44779283598085040866E-14
    0.60337439905322827384E-16
    0.40535709147550167057E-16
    0.17924628644267122173E-15
    0.18634441071529541671E-15
    0.60612276283721769595E-15
    0.10606020021972652084E-12
    0.14347989994393870332E-16
    0.87380842363851539726E-14
    0.16741513606113942098E-13
    0.47481532804031922192E-11
    0.29285936531987801189E-24
    0.57053736941185013291E-23
    0.11437119831243034704E-05
    0.48092001265553618681E-07
    0.11296093494492834368E-06
    0.19505247001339349948E-06
    0.78915833758396738973E-01
    0.87944801159671653901E-01
    0.14812461568855472827E+00
    0.11181328453726926964E+00
    0.35013001859683131247E-17
    0.68305056584286533092E-20
    0.25122366852290348017E-17
    0.48041958002436931069E-17
    0.87861919989222778313E-16
    0.77281275479970518493E-15
    0.76190607091422084537E-19
    0.93270434906804275929E-14
    0.62767475292474847117E-10
    0.19810671627811346915E-09
    0.49255815484990004905E-13
    0.76380602343070386147E-14
    0.10697348600957578540E-11
    0.13629951256209402856E-09
    0.26279695234048083285E-11
    0.14048084167365438344E-07
    0.73395153930082863081E-10
    0.47455173534333036571E-09
    0.15427085723928668342E-05
    0.34978964402171670129E-04
    0.29809967429051873299E-06
    0.11508228869832018227E-05
    0.14134547970786399040E-04
    0.42617403559966282806E-04
    0.87348604286459041566E-05
    0.17197656644780664486E-05
    0.17974508401213441613E-05
    0.47351652060725705961E-05
    0.17605148881491669010E-23
    0.28818550098107063689E-23
    0.42547370773622399112E-24
    0.11708658853147226873E-20
    0.37847816415973946246E-18
    0.51297328979870653602E-19
    0.76042690691311707121E-02
    0.13202510895962714377E-01
    0.23466137057903795915E-20
    0.10798313632265448088E-17
    0.33138850778185641519E-21
    0.16019485403172988778E-09
    0.48688256093542082204E-09
    0.11798968022946281939E-28
    0.26026978323125880100E-26
    0.36470223169360182500E-28
    0.27346245767642933696E-20
    0.24200660940151887190E-16
    0.90120572485285050691E-16
    0.65189756385812834661E-18
    0.61689725860035793392E-01
    0.10036227690167545679E+00
    0.18517822084606794242E+00
    0.18052245554697413099E+00
    0.13369304739516712442E-16
    0.13782016091916889976E-17
    0.23259533723056596226E-15
    0.30423343098140610118E-16
    0.74520004379409589678E-15
    0.61575518282930579464E-15
    0.21599385309282870586E-15
    0.14577500462851353042E-12
    0.25264590418958288367E-09
    0.19694090468071128547E-08
    0.26989487459069316563E-10
    0.68722182939368324398E-09
    0.57832019618297318796E-09
    0.46241162446439892676E-06
    0.46097220984976434778E-08
    0.15214131180124076007E-07
    0.82815622658926208713E-04
    0.11825677731214594870E-04
    0.21486685794511362649E-04
    0.69767586658118566621E-05
    0.23657843946940476621E-04
    0.38722194518175641429E-04
    0.72937239839842459409E-06
    0.10383902803114644127E-04
    0.27501463963071313891E-06
    0.60620875866335673236E-06
    0.73068348230308504504E-07
    0.27516575148706795984E-09
    0.70231131635283472694E-07
    0.15741557357287000579E-06
    0.10153675529281231762E-06
    0.37321293181199099176E-07
    0.45119738172849714038E-23
    0.52691929892311726265E-24
    0.63869827229963351816E-22
    0.75479921690592570063E-33
    0.98687271960845684818E-26
    0.56551672739607147027E-23
    0.35491959480595469266E-22
    0.58541870000740675887E-24
    0.17037026305413296592E-22
    0.35208667551452371777E-22
    0.19552688381017106499E-20
    0.31069348668227468998E-21
    0.93299465462828759204E-21
    0.40179927481849306934E-19
    0.92691056692345013638E-19
    0.22917006948016074223E-17
    0.30671878374685847368E-17
    0.23913312789753163152E-16
    0.54810446267298072310E-18
    0.27496301893594996995E-20
    0.29964978217171108471E-15
    0.23809467222433490976E-15
    0.12134039607039386055E+00
    0.16423279681088240323E+00
    0.20278229204051451942E-10
    0.23268069776889085337E-12
    0.19548834337910560370E-11
    0.81838560545752530664E-11
    0.80698855043944030486E-13
    0.26320984868102229729E-14
    0.39449093522099408935E-13
    0.57454109864731057732E-11
    0.52742168163833059727E-06
    0.65621693716528225975E-10
    0.17400829988651576003E-08
    0.85617555600366410353E-10
    0.28689182586258730086E-10
    0.46082542530304458587E-09
    0.49310872828751643242E-11
    0.93605313264074529193E-12
    0.52981553729626897278E-08
    0.10193350127291255762E-07
    0.15117982427415777558E-08
    0.37241287217985309959E-07
    0.70649357727468765448E-10
    0.14914854216744979174E-07
    0.92355536069149328910E-07
    0.18246947090217725567E-06
    0.27328951975466621084E-07
    0.77036747396047988223E-07
    0.13713385016178926106E-04
    0.34022484043463934952E-04
    0.88997673906047802339E-04
    0.39512210354937038828E-04
    0.40940596909024950904E-03
    0.19614639652910535652E-03
    0.83679608238065575278E-05
    0.31263433885198299262E-05
    0.25040261525237421394E-24
    0.82256798349776687998E-26
    0.27497523004053507877E-06
    0.42215081628894852165E-07
    0.67149214747417527091E-11
    0.10113347288694303368E-09
    0.15144750145153630455E-13
    0.23757968081417494679E-09
    0.12006549197609159881E-09
    0.16804199325894741964E-07
    0.14931313359150864890E-11
    0.27921060726104114655E-10
    0.60619226791498665030E-22
    0.24111047434346017634E-20
    0.23085317913503784514E-09
    0.25443933115972738461E-10
    0.57023127899200741710E-25
    0.11099793460973112151E-22
    0.93997789061802996431E-28
    0.40675284505408168054E-25
    0.19088506602578515072E-23
    0.19895065045776343774E-20
    0.73060850547961071733E-19
    0.62118587575542974303E-17
    0.40982168763720516947E-22
    0.40240482595476134045E-21
    0.55749722121755140281E-18
    0.16656312697869588038E-20
    0.23574674181559002710E-15
    0.10120996072172892637E-17
    0.42198898922240081055E-03
    0.58325314256074147618E-06
    0.41694029709370669429E-04
    0.19726636009882574254E-04
    0.11684874477681716029E-04
    0.24866631064109316265E-06