# vtk DataFile Version 3.0
LAPLACIEN  2D
ASCII
DATASET UNSTRUCTURED_GRID
 POINTS        1616  float
  0.45880792999999997       0.87913892999999999        0.0000000000000000     
  0.40372658000000000       0.18243693000000000        0.0000000000000000     
  0.52563972999999997       0.19039755999999999        0.0000000000000000     
  0.45642953000000003       0.24226190000000000        0.0000000000000000     
  0.51984098000000001       0.24548566999999999        0.0000000000000000     
  0.21212766999999999       0.18957676000000001        0.0000000000000000     
  0.28573643999999998       0.48586826999999999        0.0000000000000000     
  0.49667887999999999       0.82979849000000006        0.0000000000000000     
  0.22848407000000001       0.23366793000000000        0.0000000000000000     
  0.27860389000000002       0.86069733000000004        0.0000000000000000     
  0.36563702999999997       0.80971340999999997        0.0000000000000000     
  0.28045499000000002       0.80393031999999998        0.0000000000000000     
  0.40374228000000001       0.78127665000000002        0.0000000000000000     
  0.56160891999999996       0.55341227999999998        0.0000000000000000     
  0.37210935000000001       0.26787699999999998        0.0000000000000000     
  0.49899838000000002       0.57286409999999999        0.0000000000000000     
  0.41023869000000002       0.33464665999999998        0.0000000000000000     
  0.33484156999999998       0.29151022999999998        0.0000000000000000     
  0.46758665999999999       0.58262307999999996        0.0000000000000000     
  0.43303693999999998       0.36569945999999998        0.0000000000000000     
  0.25741280000000000       0.61805882999999995        0.0000000000000000     
  0.28853707000000001       0.59423020000000004        0.0000000000000000     
  0.67837254000000002       0.45038665999999999        0.0000000000000000     
  0.42159046000000000       0.50697913999999999        0.0000000000000000     
  0.60276470999999998       0.73940291000000002        0.0000000000000000     
  0.30758273000000003       0.77844542000000005        0.0000000000000000     
  0.45367541000000000       0.31842187000000000        0.0000000000000000     
  0.36974101999999998       0.35807864000000000        0.0000000000000000     
  0.26919625000000003       0.65312176000000000        0.0000000000000000     
  0.61908110999999999       0.42741791000000001        0.0000000000000000     
  0.54442267000000000       0.74200747000000000        0.0000000000000000     
  0.58930464999999999       0.41588288000000001        0.0000000000000000     
  0.51511633000000001       0.74331579000000003        0.0000000000000000     
  0.12878382999999999       0.33122940000000001        0.0000000000000000     
  0.15534365000000000       0.71749246000000000        0.0000000000000000     
  0.64877724999999997       0.30161799000000000        0.0000000000000000     
  0.58853643000000000       0.28101930000000003        0.0000000000000000     
  0.56390348000000001       0.30132482999999999        0.0000000000000000     
  0.29605991999999998       0.44474459999999999        0.0000000000000000     
  0.29900669000000002       0.52983276000000001        0.0000000000000000     
  0.55954318999999997       0.48654808999999999        0.0000000000000000     
  0.42341458999999998       0.38785072999999998        0.0000000000000000     
  0.45806291999999998       0.35892998999999998        0.0000000000000000     
  0.47820750000000001       0.31147424000000001        0.0000000000000000     
  0.36344222999999998       0.38139388000000002        0.0000000000000000     
  0.17186508000000000       0.28159534000000003        0.0000000000000000     
  0.18029876000000000       0.33292397000000001        0.0000000000000000     
  0.20696366999999999       0.71822465999999996        0.0000000000000000     
  0.61326404999999995       0.34468346000000000        0.0000000000000000     
  0.29887186999999998       0.42337377999999998        0.0000000000000000     
  0.33271837999999998       0.44383096000000000        0.0000000000000000     
  0.31835012000000001       0.54267131999999996        0.0000000000000000     
  0.54882964999999995       0.45462609999999998        0.0000000000000000     
  0.20448143999999999       0.28717446000000002        0.0000000000000000     
  0.20634120000000000       0.33378063000000002        0.0000000000000000     
  0.23301781999999999       0.71859421999999995        0.0000000000000000     
  0.58606499999999995       0.35199907000000002        0.0000000000000000     
  0.20841100000000001       0.45369578999999999        0.0000000000000000     
  0.24778198000000001       0.77708496000000005        0.0000000000000000     
  0.30748062999999998       0.61002621000000001        0.0000000000000000     
  0.23337332000000000       0.41981835000000001        0.0000000000000000     
  0.25985113999999998       0.75924943000000000        0.0000000000000000     
  0.24610213000000000       0.40254353999999998        0.0000000000000000     
  0.37350351999999998       0.50127178999999999        0.0000000000000000     
  0.43235204999999999       0.78236391000000005        0.0000000000000000     
  0.30749858000000002       0.28582627999999999        0.0000000000000000     
  0.30336816000000000       0.64635111000000001        0.0000000000000000     
  0.31418906000000002       0.43625961000000002        0.0000000000000000     
  0.27223414000000001       0.78063022000000004        0.0000000000000000     
  0.22829299000000000       0.75089561000000005        0.0000000000000000     
  0.26580239000000000       0.42989294000000000        0.0000000000000000     
  0.37369119000000001       0.51975733999999996        0.0000000000000000     
  0.39681665999999999       0.51027884000000001        0.0000000000000000     
  0.32086795000000001       0.65137668999999998        0.0000000000000000     
  0.31757218999999998       0.62987181000000003        0.0000000000000000     
  0.32959777000000001       0.42500900000000003        0.0000000000000000     
  0.24663835000000001       0.74537787000000000        0.0000000000000000     
  0.26354222999999999       0.41075105000000001        0.0000000000000000     
  0.28343712999999998       0.43221330000000002        0.0000000000000000     
  0.34682245000000000       0.43182289000000001        0.0000000000000000     
  0.35306810000000000       0.45344571000000000        0.0000000000000000     
  0.57327218000000002       0.15829040000000000        0.0000000000000000     
  0.51473097999999995       0.12621746000000000        0.0000000000000000     
  0.72829681999999996       0.40151571000000003        0.0000000000000000     
  0.42703184999999999       0.53501600999999999        0.0000000000000000     
  0.32612607999999998       0.75472421999999995        0.0000000000000000     
   9.9814849999999997E-002  0.28081352999999998        0.0000000000000000     
  0.13945825000000001       0.78732252999999996        0.0000000000000000     
  0.44199519999999998       0.38275643999999998        0.0000000000000000     
  0.40132215999999998       0.36508836000000000        0.0000000000000000     
  0.43963142999999999       0.34043466999999999        0.0000000000000000     
  0.47160058999999999       0.33493045999999999        0.0000000000000000     
  0.45615203999999998       0.28038164999999998        0.0000000000000000     
  0.34321279999999998       0.35314412000000001        0.0000000000000000     
  0.29178279000000001       0.56170810000000004        0.0000000000000000     
  0.49833080000000002       0.48416767999999999        0.0000000000000000     
  0.46386271000000001       0.46452802999999998        0.0000000000000000     
  0.44722043000000000       0.45300645000000000        0.0000000000000000     
  0.46562803000000003       0.44419790999999997        0.0000000000000000     
  0.43925322000000000       0.48229485999999999        0.0000000000000000     
  0.49117628000000002       0.45665803999999999        0.0000000000000000     
  0.43435156000000003       0.46523363000000001        0.0000000000000000     
  0.19405754000000000       0.31093060000000000        0.0000000000000000     
  0.22069087000000001       0.66905079000000001        0.0000000000000000     
  0.30776597999999999       0.59042684000000001        0.0000000000000000     
  0.29541507000000000       0.57849362000000004        0.0000000000000000     
  0.28335474999999999       0.61970232999999997        0.0000000000000000     
  0.29935165000000002       0.62852803999999995        0.0000000000000000     
  0.28459435999999999       0.64121777000000002        0.0000000000000000     
  0.26698675999999999       0.63435282999999998        0.0000000000000000     
  0.24031983000000001       0.64700659000000005        0.0000000000000000     
  0.33118850000000000       0.50233682999999996        0.0000000000000000     
  0.35257061000000001       0.51072803000000000        0.0000000000000000     
  0.29038973000000001       0.78732479000000000        0.0000000000000000     
  0.28737915000000003       0.76752330999999996        0.0000000000000000     
  0.21978159000000000       0.73315437000000006        0.0000000000000000     
  0.18119734000000001       0.76257752999999995        0.0000000000000000     
  0.20353571000000001       0.75186065999999996        0.0000000000000000     
  0.39122694000000002       0.49007234000000000        0.0000000000000000     
  0.59140473999999998       0.13507609000000001        0.0000000000000000     
  0.53156702000000000        9.7663528999999999E-002   0.0000000000000000     
  0.76346223999999996       0.39657278000000001        0.0000000000000000     
  0.41119013999999998       0.52354409999999996        0.0000000000000000     
   7.2558165999999993E-002  0.26885883999999999        0.0000000000000000     
  0.10497347000000000       0.79895936000000001        0.0000000000000000     
[...]
 CELL_DATA        2963
 SCALARS Tumor_cells float
 LOOKUP_TABLE default
    0.34542555601864708205E-23
    0.99756209667285828423E-12
    0.39196611152198879483E-14
    0.50283641717515571361E-15
    0.27730137456359201285E-13
    0.48436903419585659322E-19
    0.23580831890623918098E-18
    0.93640327430876026150E-11
    0.19888697332169629879E-28
    0.49835733581824295021E-03
    0.36157160166444645098E-16
    0.31551649461629305368E-13
    0.72116076865390483733E-16
    0.58075751496504790827E-14
    0.53075328439621769203E-27
    0.22639533716198019407E-16
    0.19264545029919210879E-03
    0.72075436030930467549E-16
    0.14306576325775637275E-19
    0.10326468789718413412E-10
    0.45151801734631210930E-13
    0.13697529118910070980E-01
    0.46582794264669172279E-01
    0.40178653395616881610E-11
    0.98954078804055624368E-09
    0.52503373704260640620E-07
    0.38218727075757883263E-09
    0.26168032796678387514E-20
    0.49006888617186563192E-14
    0.24721485083036927115E-10
    0.48021854266716859245E-05
    0.27097952656855011309E-25
    0.31029651643883672975E-12
    0.77720555202943464720E-08
    0.72696591415046368621E-11
    0.27986033625953262273E-08
    0.14966137497991734470E-12
    0.28381579565434928621E-07
    0.36363510391538581385E-20
    0.11535197898595934279E-01
    0.97143337841589708755E-19
    0.77602860165147388145E-14
    0.60050404177522500464E-10
    0.12928773409826517688E-09
    0.89569478765522728780E-26
    0.11137911478364441896E-05
    0.13788445263224771647E-19
    0.16545865050718412671E-23
    0.86837493675773073677E-11
    0.12064836573213326327E-25
    0.36446023860933695910E-06
    0.29479340014294416136E-19
    0.27119181276115891733E-19
    0.25350630400393139321E-15
    0.67591011174748076460E-14
    0.63628257793462701473E-06
    0.13809028263258306207E-19
    0.63283171137876607755E-06
    0.15148003168949592665E-04
    0.40525966711792200331E-17
    0.11314463731400834293E-04
    0.62407376233828455470E-14
    0.95040209623311674582E-24
    0.13140892113581756271E-24
    0.26661702391505881526E-14
    0.47319272153726145614E-05
    0.25250383014031817056E-08
    0.10063500715317571740E-04
    0.91580886263868926944E-01
    0.46674134415620214020E-16
    0.32592988846939622054E-20
    0.97024928321372567178E-05
    0.13489584971649628924E-14
    0.29397775877596870941E-12
    0.36493425253495488832E-03
    0.42018222255110954967E-03
    0.12547568459081441528E-01
    0.60269699979844461356E-04
    0.88892789522365610512E-18
    0.16653957392563101303E-05
    0.47807489894056297395E-23
    0.94313488544864332302E-06
    0.15121715605751255711E-04
    0.29761441481287948321E-02
    0.24771699232060724931E-07
    0.10414223420353294529E-13
    0.17663280864311720249E-17
    0.67054381527807302924E-11
    0.13361535950701484014E-09
    0.15208932244712779820E-21
    0.10307052072757544637E-11
    0.35083896906141507926E-06
    0.30577735443542617549E-01
    0.14657025495581091991E-05
    0.88924364999264540527E-10
    0.21248511144926939087E-06
    0.12821535432652584122E-01
    0.38131084402760921525E-12
    0.21187084550095845948E-11
    0.13593111074450769317E-14
    0.76079016893665826264E-18
    0.41292106737522193697E-11
    0.12361361035254633493E-05
    0.89869503980624705967E-13
    0.10745301021836636303E-02
    0.70811557070683404069E-18
    0.66301264759551206007E-13
    0.27127465201756419783E-22
    0.58931053466058628403E-06
    0.10575695491300570400E-14
    0.12305187238430347137E-15
    0.55444114080807840427E-16
    0.42289843231935901850E-19
    0.14750262742854692758E-15
    0.26296509223342940437E-22
    0.18672529272592382939E-17
    0.15554764847145443946E-23
    0.33926876790654193190E-25
    0.18274684392191509110E-02
    0.10390647320734065317E-03
    0.19541171771552454146E-17
    0.16332619801406745027E-18
    0.10330361633947576806E-16
    0.13030549245313464739E-07
    0.65335753116245303208E-19
    0.26702621657301091762E-08
    0.30936400633567306181E-19
    0.28614072052342423261E-05
    0.31501545531282171188E-04
    0.28452202648275907814E-04
    0.25138075623672266301E-08
    0.40771350279573444883E-06
    0.20333655760490593201E-01
    0.52722008736443600831E-08
    0.12819665982166745532E-05
    0.61195027611111408260E-04
    0.55391664829704857244E-04
    0.83491280750291672791E-06
    0.13150281183840651720E-17
    0.25802122861272806093E-04
    0.18893720399463810714E-04
    0.88815298906410837547E-09
    0.11522341216724109325E+00
    0.39231544806272961945E-04
    0.11433678285888690247E-04
    0.41660116329829623799E-09
    0.13497553473803222236E-14
    0.12779008754497227671E-08
    0.27234144202984701003E-18
    0.12160694021811425911E-04
    0.21971248512761900718E-13
    0.11859067222677503739E+00
    0.16142940995240328455E-04
    0.17990367290716111362E-09
    0.14860347754100678088E-16
    0.22393928583417616086E-13
    0.13483614981817238419E-16
    0.34642083217662793344E-15
    0.16433356566634695462E-17
    0.21737944865506953358E-17
    0.63950954702799029861E-16
    0.16355092367685711535E-16
    0.87552453922019703760E-09
    0.13223615717298383934E-05
    0.57838683051747683458E-14
    0.43518039870404608068E-05
    0.61093424170042205016E-18
    0.26406133454088963574E-06
    0.12552722664519683302E-02
    0.93585602031924953585E-08
    0.70313022232154276034E-02
    0.42394414293802740032E-17
    0.90788410414953559781E-12
    0.17219744045437115550E-06
    0.75336953161318278293E-14
    0.54441198847832107893E-15
    0.18282617599656926165E-11
    0.25866383790020286906E-13
    0.15406819554599487662E-16
    0.10462626360027777250E-18
    0.71889311281213036809E-03
    0.29971569183572321751E-09
    0.56707539365960527872E-08
    0.43132650569998181484E-17
    0.22221187238228678893E-13
    0.75669302450366781186E-13
    0.40083374637207638070E-06
    0.54213421099932433266E-07
    0.27750877464061686993E-04
    0.12999486606126139123E-19
    0.15926433920340098382E-12
    0.46645520267221955713E-01
    0.61786701672836916381E-18
    0.50712891775962782280E-18
    0.16756080863003820769E-02
    0.18134432762228277113E-17
    0.11721691598552311242E-01
    0.13441348677346264664E-06
    0.13813306263749173655E-06
    0.28318375013540739632E-15
    0.14403769800363754043E-08
    0.34055652112712224536E-11
    0.10518744051361945745E-13
    0.36329217549164663676E-06
    0.67093642452126123210E-01
    0.51627852812841261432E-01
    0.62334101745865466116E-07
    0.43636835792068645601E-01
    0.61640030472540095763E-01
    0.34197544005095401392E-17
    0.19279400102033339513E-15
    0.22934205570149614195E-01
    0.64196635622839490209E-01
    0.84741523942368758765E-19
    0.66473650632885439017E-13
    0.97548302509022919487E-14
    0.79805673784346733838E-08
    0.10772107518310513084E-05
    0.88120174868349602625E-03
    0.50243635244273543252E-05
    0.16581012575325620091E-11
    0.98814695140318145449E-14
    0.25681633328666005521E-07
    0.15189177819656761703E-04
    0.64416019680988053565E-05
    0.36818933757160786091E-13
    0.97412817199712394064E-06
    0.14939343493005044041E-07
    0.66828265059376747912E-08
    0.33383130319479190412E-05
    0.99920193943429369060E-07
    0.19015449352494444539E-07
    0.11477704982756064850E-14
    0.27297505170593115709E-03
    0.28990560043790939381E-09
    0.19108116890744043190E-04
    0.12229215145853345202E-22
    0.34417989029855342552E-02
    0.75112347974664317451E-01
    0.89276443326580703919E-01
    0.32405071603431866934E-05
    0.28805829781251284319E-10
    0.65981949885201346059E-02
    0.11379852396782805593E-01
    0.18201740779529396869E-01
    0.44232381343615347138E-07
    0.12512657796224794702E-03
    0.10897573666982938157E-04
    0.25249470832832514912E-06
    0.25156421067295431371E-01
    0.30576543316317844612E-02
    0.12094013898048883601E-11
    0.22846935465312555220E-07
    0.10785546563319908797E+00
    0.61524389897274894344E-09
    0.19534446383696616441E-10
    0.14010449987167772026E-06
    0.73638247474001669517E-06
    0.11343031026109505130E-01
    0.10983548969814695747E-11
    0.69914411290247493666E-02
    0.38989444201281927595E-02
    0.24455120407575444211E-02
    0.94388353989475031101E-11
    0.19171449294799334379E-01
    0.28486345048966176893E-15
    0.10123255439990504201E+00
    0.62923429473024381289E-02
    0.40751120743611808249E-04
    0.30633261866422754893E-01
    0.59648580532940646078E-12
    0.34482365757353144889E-03
    0.11365832030854276791E-01
    0.74149836054772150142E-04
    0.49490710326641229079E-03
    0.28693508038948782759E-15
    0.13272629371536245611E-10
    0.23854446953550655874E-12
    0.10630646856753473465E-17
    0.11046979219562076376E-03
    0.38787381861296466833E-18
    0.21468694278372682380E-05
    0.43917245128621262304E-07
    0.63004165685932664043E-11
    0.26752753009216475883E-03
    0.23054155476089153111E-19
    0.66829634717957058995E-02
    0.11071772537591328348E-03
    0.31198688406576967559E-06
    0.18349335025406394280E-10
    0.72116254014990934149E-11
    0.20947090876477037873E-11
    0.17477274143232567733E-03
    0.67032922389502987566E-20
    0.37761659139880619803E-09
    0.67231168297297366418E-02
    0.40477886103278706799E-03
    0.38153254292642448643E-14
    0.14484157719393897512E+00
    0.39406170581516409375E-04
    0.10369039470747671928E-07
    0.45556506920129899441E-03
    0.28947191543383526290E-05
    0.42462117240708285282E-08
    0.19070629874799601165E-06
    0.44737513508433982868E-16
    0.21399894928794964584E-02
    0.23398525719935361904E-15
    0.10521792914588537146E-01
    0.81409345727431701718E-04
    0.16970307834348469234E-03
    0.72907278605217066276E-07
    0.72256795394623165489E-04
    0.70818407510892921602E-04
    0.10334519965019028661E-13
    0.11750031864673205278E-21
    0.47042493657711055758E-06
    0.21788531409391277300E-05
    0.79850028386031204810E-03
    0.94530988516604243738E-17
    0.13831970356626700745E-06
    0.96922539324465018845E-10
    0.44099061917748925146E-08
    0.10365205152363858528E-16
    0.55983182122741978916E-18
    0.34715489570225965449E-07
    0.10851597101875835067E-10
    0.80105718346815276386E-03
    0.40696055925023171941E-07
    0.19663350636695638177E-15
    0.30865293240723319505E-04
    0.30032247126287302839E-05
    0.89990855111360797386E-16
    0.46890551566712337753E-15
    0.80373372306022128651E-08
    0.28665808480626510363E-18
    0.28130972555462518048E-07
    0.76905817623194629433E-06
    0.38622856519619542986E-08
    0.20778861182273456012E-17
    0.18218131142859788184E-15
    0.55377211316074804017E-08
    0.14409184946706423637E-06
    0.10857870710359310765E-11
    0.20010947243188060250E-02
    0.96295470103367590293E-03
    0.28885740047079030243E-05
    0.11144802948510997896E-07
    0.20481126786566549029E-15
    0.27755669167997650777E-18
    0.10802296572906304607E-17
    0.53484073710881698685E-15
    0.27057845947150557704E-15
    0.50473638347532815216E-14
    0.59343325063674805434E-16
    0.14310563182327312810E-16
    0.77767805867424697082E-15
    0.58963600650391016826E-14
    0.44377142070485011741E-13
    0.24672093707560258591E-11
    0.11814913446658161307E-12
    0.31482006751980078139E-12
    0.81365744330466562699E-10
    0.19689226047063892264E-18
    0.23119092356494087715E-19
    0.68652780704302911335E-19
    0.75409986037049353909E-07
    0.49711774268090644864E-06
    0.17719543055718900426E+00
    0.24245032213986304065E-01
    0.52895990856595048735E-01
    0.39455267057114981610E-01
    0.36114007215446393417E-01
    0.50741479913983117411E-01
    0.76996136267330012037E-01
    0.12336260442073142263E+00
    0.86312840605097140845E-01
    0.21417172040397711164E-01
    0.61926479083611263299E-01
    0.92752201605006828755E-01
    0.45506227438364403592E-01
    0.23549045651008810448E-01
    0.57737598659296719154E-12
    0.11284722788964439311E-12
    0.50185188460708677039E-12
    0.25027032632597857179E-08
    0.89181035560977844343E-06
    0.21836035211487230036E-05
    0.12451674894336789854E-06
    0.27905664960136364112E-05
    0.47203490242216740802E-07
    0.17106311863392823822E-07
    0.87332939772628900486E-08
    0.54913340998607348415E-07
    0.21234571964509484563E-08
    0.24054022684902369422E-08
    0.11653616866593791151E-10
    0.10465917210916970202E-07
    0.65025561003546890407E-19
    0.18532987046200134110E-08
    0.42687219044642382389E-04
    0.43162262175856753272E-04
    0.58119780724268826130E-03
    0.25015617068971385002E-03
    0.42577668752431760787E-18
    0.24388422944989659833E-17
    0.64143736866927954320E-16
    0.29173042948006234859E-17
    0.26913282326630781133E-13
    0.31750668721107794909E-14
    0.11320848556486209220E-14
    0.13446816163270784854E-17
    0.18585537796180057488E-15
    0.27067431194224266359E-16
    0.16906030566257042834E-02
    0.46318593180236849668E-02
    0.21059048648766725371E-09
    0.30203955369755002165E-04
    0.74320225840135228775E-15
    0.25393628490683929284E-14
    0.21251269464141018423E-14
    0.48952193408884219525E-06
    0.15682163935857073893E-06
    0.10682794195648640315E-01
    0.78203432535254805563E-02
    0.16442860614193760517E-21
    0.54818081320426397617E-18
    0.20639075773017069674E-18
    0.53398371550226340653E-20
    0.17847382832963946057E-20
    0.17208827598114945535E-14
    0.14295842696405753192E-14
    0.42105342441176061809E-16
    0.32368344248138050355E-15
    0.10665942555098922617E-13
    0.11038409359695128483E-14
    0.47470689284861619101E-16
    0.51382269368544794444E-19
    0.51498473258086083351E-17
    0.17023237286860804978E-18
    0.74762570005269161747E-18
    0.26061260628653412363E-17
    0.22255926872782420590E-13
    0.67266114036683829955E-11
    0.24455208369318481315E-12
    0.18156000010914228719E-12
    0.54641825606521198227E-12
    0.58419607081206203697E-12
    0.13792707511806069259E-11
    0.82595096372966694788E-10
    0.76342670276086491068E-13
    0.13991839549565121533E-10
    0.21825869225615121606E-10
    0.17202145575160552479E-08
    0.55632839592658941214E-19
    0.65405343187490025712E-18
    0.19009858170817015347E-04
    0.21736294159554407878E-05
    0.34440149339826673149E-05
    0.57347820587414558545E-05
    0.10011254268992385297E+00
    0.94984251460849267179E-01
    0.15682095942462825899E+00
    0.12032386344826080660E+00
    0.89493009691759360158E-13
    0.75484321737360167248E-15
    0.67294265151712471986E-13
    0.10429341112635014822E-12
    0.91989322425198363649E-12
    0.50596785331259865239E-11
    0.55066146466025185764E-14
    0.29116031636582355414E-10
    0.20842597006379866061E-07
    0.45666478438211899953E-07
    0.10278651508764565298E-09
    0.28537796849942335285E-10
    0.10518184194384214843E-08
    0.37906513858178501415E-07
    0.19341389094544872139E-08
    0.88483948614440161021E-06
    0.24180452508106848888E-07
    0.91377294501523793573E-07
    0.23523789400946548803E-04
    0.18836420285912996715E-03
    0.75218933347717246193E-05
    0.17246089397081453557E-04
    0.10298076633140442772E-03
    0.22945968844891921038E-03
    0.71117521908565020910E-04
    0.20004911429349768226E-04
    0.17060790015723818535E-04
    0.40528014394044355802E-04
    0.90666884682642050332E-18
    0.10754451893844942022E-17
    0.41842735818218383890E-18
    0.17735643090369005105E-15
    0.18774718586812228238E-13
    0.32954624209492569041E-14
    0.11040293061850595460E-01
    0.17115108058152046083E-01
    0.20827040174794809063E-15
    0.27369712765970398181E-13
    0.49070116294240378748E-16
    0.11347564765348558110E-06
    0.22214442368227419271E-06
    0.13947110481006962035E-21
    0.96476977924287299304E-20
    0.29955073741460705653E-21
    0.86223932199774434934E-16
    0.12401355371892759476E-12
    0.32409766832605617284E-12
    0.76689161767226819842E-14
    0.85365016517060340884E-01
    0.12268116954561696097E+00
    0.17913271078342346554E+00
    0.16938084426723437614E+00
    0.23311602885060915386E-12
    0.44371788606845947332E-13
    0.17447016019618380945E-11
    0.44736920913407338674E-12
    0.47832546627645763297E-11
    0.43168827522446980273E-11
    0.20743133849365226614E-11
    0.30017852685810236200E-09
    0.57378207976586744885E-07
    0.23010925158740440186E-06
    0.12584402680463042511E-07
    0.11321529637573654949E-06
    0.10518829572236028538E-06
    0.94175334734061800606E-05
    0.45248478769539169580E-06
    0.98030481177210350454E-06
    0.34092874561969017553E-03
    0.95362160644050050122E-04
    0.88044657727193346790E-04
    0.46371702961126395372E-04
    0.11053823961783869128E-03
    0.11383753871599378536E-03
    0.11997115055043367198E-04
    0.72432918861587485492E-04
    0.59946256661016040308E-05
    0.93852755959009849670E-05
    0.24198801467045400761E-05
    0.46600027340701704092E-07
    0.20933892993327572952E-05
    0.36305865928603458495E-05
    0.30973824372290414263E-05
    0.14925570392287997174E-05
    0.25862872428902958782E-17
    0.49608451532653225952E-18
    0.20488926861323839169E-16
    0.58439321688663398159E-25
    0.20695606035942237526E-19
    0.30209795513777407121E-17
    0.12769117367290277385E-16
    0.49441436851009232796E-18
    0.67224662459344074968E-17
    0.12171499166224948143E-16
    0.28102832235288519107E-15
    0.71380356892422126801E-16
    0.14877141705986347975E-15
    0.31247640835285566570E-14
    0.13015361240225348289E-14
    0.18716492767295201105E-13
    0.22163073960532442374E-13
    0.10951927536200724185E-12
    0.57478162264803364135E-14
    0.12143532227548403446E-15
    0.96062714518825875962E-12
    0.67440695982225743844E-12
    0.13987860480597189006E+00
    0.16594386661888607670E+00
    0.94616098218888536814E-08
    0.37466543826489743114E-09
    0.18316105680666060439E-08
    0.52566007430543427111E-08
    0.17523871432793174850E-09
    0.14321429181043519510E-10
    0.10944921650551022892E-09
    0.41479203228964904382E-08
    0.11091997608813975435E-04
    0.22676028886510800114E-07
    0.21660703513773771818E-06
    0.21832921547233853435E-07
    0.12448943457414632450E-07
    0.93906943974390597845E-07
    0.34025740069866112655E-08
    0.10492734484026731886E-08
    0.48299519661825370355E-06
    0.78171325170120740158E-06
    0.21137538561225637054E-06
    0.18479093697908684380E-05
    0.25470874880074934683E-07
    0.10101426811047673898E-05
    0.33594753831480435094E-05
    0.54211140686996647409E-05
    0.14874082393651036726E-05
    0.30686839362679581424E-05
    0.93985743889797893850E-04
    0.16238140507126685563E-03
    0.27063914460130562888E-03
    0.16435175783014057240E-03
    0.10407415517532576411E-02
    0.63993102034359838383E-03
    0.72148861708134143017E-04
    0.34366590099382629704E-04
    0.26558302524933737339E-18
    0.32268469555183184396E-19
    0.72445160943285708449E-05
    0.18536507498850972273E-05
    0.48490683163135687341E-08
    0.31245804310154657292E-07
    0.46335709366838196695E-10
    0.47305423415750946624E-07
    0.30876880948234836355E-07
    0.10018531954639428520E-05
    0.14940255058367926513E-08
    0.11575318061034940816E-07
    0.21107365289756603103E-16
    0.30164159498492813738E-15
    0.56584644731821781455E-07
    0.12293439662877602357E-07
    0.88574810878957812652E-19
    0.58095842546945650445E-17
    0.68277565477570078257E-21
    0.83846672320495043445E-19
    0.16814668802044465186E-17
    0.35686952354249793455E-15
    0.23622852299483426709E-14
    0.80826849277870940592E-13
    0.64728806774093432578E-17
    0.44108129957298177549E-16
    0.11471800797921174628E-13
    0.12639741538813333582E-15
    0.13363389075597806359E-11
    0.19955127469296133494E-13
    0.17058336390749304773E-02
    0.19111996033698997469E-04
    0.26430791804531568673E-03
    0.20304983048802989509E-03
    0.14788947363262664185E-03
    0.99719064648826810963E-05