# vtk DataFile Version 3.0
LAPLACIEN  2D
ASCII
DATASET UNSTRUCTURED_GRID
 POINTS        1616  float
  0.45880792999999997       0.87913892999999999        0.0000000000000000     
  0.40372658000000000       0.18243693000000000        0.0000000000000000     
  0.52563972999999997       0.19039755999999999        0.0000000000000000     
  0.45642953000000003       0.24226190000000000        0.0000000000000000     
  0.51984098000000001       0.24548566999999999        0.0000000000000000     
  0.21212766999999999       0.18957676000000001        0.0000000000000000     
  0.28573643999999998       0.48586826999999999        0.0000000000000000     
  0.49667887999999999       0.82979849000000006        0.0000000000000000     
  0.22848407000000001       0.23366793000000000        0.0000000000000000     
  0.27860389000000002       0.86069733000000004        0.0000000000000000     
  0.36563702999999997       0.80971340999999997        0.0000000000000000     
  0.28045499000000002       0.80393031999999998        0.0000000000000000     
  0.40374228000000001       0.78127665000000002        0.0000000000000000     
  0.56160891999999996       0.55341227999999998        0.0000000000000000     
  0.37210935000000001       0.26787699999999998        0.0000000000000000     
  0.49899838000000002       0.57286409999999999        0.0000000000000000     
  0.41023869000000002       0.33464665999999998        0.0000000000000000     
  0.33484156999999998       0.29151022999999998        0.0000000000000000     
  0.46758665999999999       0.58262307999999996        0.0000000000000000     
  0.43303693999999998       0.36569945999999998        0.0000000000000000     
  0.25741280000000000       0.61805882999999995        0.0000000000000000     
  0.28853707000000001       0.59423020000000004        0.0000000000000000     
  0.67837254000000002       0.45038665999999999        0.0000000000000000     
  0.42159046000000000       0.50697913999999999        0.0000000000000000     
  0.60276470999999998       0.73940291000000002        0.0000000000000000     
  0.30758273000000003       0.77844542000000005        0.0000000000000000     
  0.45367541000000000       0.31842187000000000        0.0000000000000000     
  0.36974101999999998       0.35807864000000000        0.0000000000000000     
  0.26919625000000003       0.65312176000000000        0.0000000000000000     
  0.61908110999999999       0.42741791000000001        0.0000000000000000     
  0.54442267000000000       0.74200747000000000        0.0000000000000000     
  0.58930464999999999       0.41588288000000001        0.0000000000000000     
  0.51511633000000001       0.74331579000000003        0.0000000000000000     
  0.12878382999999999       0.33122940000000001        0.0000000000000000     
  0.15534365000000000       0.71749246000000000        0.0000000000000000     
  0.64877724999999997       0.30161799000000000        0.0000000000000000     
  0.58853643000000000       0.28101930000000003        0.0000000000000000     
  0.56390348000000001       0.30132482999999999        0.0000000000000000     
  0.29605991999999998       0.44474459999999999        0.0000000000000000     
  0.29900669000000002       0.52983276000000001        0.0000000000000000     
  0.55954318999999997       0.48654808999999999        0.0000000000000000     
  0.42341458999999998       0.38785072999999998        0.0000000000000000     
  0.45806291999999998       0.35892998999999998        0.0000000000000000     
  0.47820750000000001       0.31147424000000001        0.0000000000000000     
  0.36344222999999998       0.38139388000000002        0.0000000000000000     
  0.17186508000000000       0.28159534000000003        0.0000000000000000     
  0.18029876000000000       0.33292397000000001        0.0000000000000000     
  0.20696366999999999       0.71822465999999996        0.0000000000000000     
  0.61326404999999995       0.34468346000000000        0.0000000000000000     
  0.29887186999999998       0.42337377999999998        0.0000000000000000     
  0.33271837999999998       0.44383096000000000        0.0000000000000000     
  0.31835012000000001       0.54267131999999996        0.0000000000000000     
  0.54882964999999995       0.45462609999999998        0.0000000000000000     
  0.20448143999999999       0.28717446000000002        0.0000000000000000     
  0.20634120000000000       0.33378063000000002        0.0000000000000000     
  0.23301781999999999       0.71859421999999995        0.0000000000000000     
  0.58606499999999995       0.35199907000000002        0.0000000000000000     
  0.20841100000000001       0.45369578999999999        0.0000000000000000     
  0.24778198000000001       0.77708496000000005        0.0000000000000000     
  0.30748062999999998       0.61002621000000001        0.0000000000000000     
  0.23337332000000000       0.41981835000000001        0.0000000000000000     
  0.25985113999999998       0.75924943000000000        0.0000000000000000     
  0.24610213000000000       0.40254353999999998        0.0000000000000000     
  0.37350351999999998       0.50127178999999999        0.0000000000000000     
  0.43235204999999999       0.78236391000000005        0.0000000000000000     
  0.30749858000000002       0.28582627999999999        0.0000000000000000     
  0.30336816000000000       0.64635111000000001        0.0000000000000000     
  0.31418906000000002       0.43625961000000002        0.0000000000000000     
  0.27223414000000001       0.78063022000000004        0.0000000000000000     
  0.22829299000000000       0.75089561000000005        0.0000000000000000     
  0.26580239000000000       0.42989294000000000        0.0000000000000000     
  0.37369119000000001       0.51975733999999996        0.0000000000000000     
  0.39681665999999999       0.51027884000000001        0.0000000000000000     
  0.32086795000000001       0.65137668999999998        0.0000000000000000     
  0.31757218999999998       0.62987181000000003        0.0000000000000000     
  0.32959777000000001       0.42500900000000003        0.0000000000000000     
  0.24663835000000001       0.74537787000000000        0.0000000000000000     
  0.26354222999999999       0.41075105000000001        0.0000000000000000     
  0.28343712999999998       0.43221330000000002        0.0000000000000000     
  0.34682245000000000       0.43182289000000001        0.0000000000000000     
  0.35306810000000000       0.45344571000000000        0.0000000000000000     
  0.57327218000000002       0.15829040000000000        0.0000000000000000     
  0.51473097999999995       0.12621746000000000        0.0000000000000000     
  0.72829681999999996       0.40151571000000003        0.0000000000000000     
  0.42703184999999999       0.53501600999999999        0.0000000000000000     
  0.32612607999999998       0.75472421999999995        0.0000000000000000     
   9.9814849999999997E-002  0.28081352999999998        0.0000000000000000     
  0.13945825000000001       0.78732252999999996        0.0000000000000000     
  0.44199519999999998       0.38275643999999998        0.0000000000000000     
  0.40132215999999998       0.36508836000000000        0.0000000000000000     
  0.43963142999999999       0.34043466999999999        0.0000000000000000     
  0.47160058999999999       0.33493045999999999        0.0000000000000000     
  0.45615203999999998       0.28038164999999998        0.0000000000000000     
  0.34321279999999998       0.35314412000000001        0.0000000000000000     
  0.29178279000000001       0.56170810000000004        0.0000000000000000     
  0.49833080000000002       0.48416767999999999        0.0000000000000000     
  0.46386271000000001       0.46452802999999998        0.0000000000000000     
  0.44722043000000000       0.45300645000000000        0.0000000000000000     
  0.46562803000000003       0.44419790999999997        0.0000000000000000     
  0.43925322000000000       0.48229485999999999        0.0000000000000000     
  0.49117628000000002       0.45665803999999999        0.0000000000000000     
  0.43435156000000003       0.46523363000000001        0.0000000000000000     
  0.19405754000000000       0.31093060000000000        0.0000000000000000     
  0.22069087000000001       0.66905079000000001        0.0000000000000000     
  0.30776597999999999       0.59042684000000001        0.0000000000000000     
  0.29541507000000000       0.57849362000000004        0.0000000000000000     
  0.28335474999999999       0.61970232999999997        0.0000000000000000     
  0.29935165000000002       0.62852803999999995        0.0000000000000000     
  0.28459435999999999       0.64121777000000002        0.0000000000000000     
  0.26698675999999999       0.63435282999999998        0.0000000000000000     
  0.24031983000000001       0.64700659000000005        0.0000000000000000     
  0.33118850000000000       0.50233682999999996        0.0000000000000000     
  0.35257061000000001       0.51072803000000000        0.0000000000000000     
  0.29038973000000001       0.78732479000000000        0.0000000000000000     
  0.28737915000000003       0.76752330999999996        0.0000000000000000     
  0.21978159000000000       0.73315437000000006        0.0000000000000000     
  0.18119734000000001       0.76257752999999995        0.0000000000000000     
  0.20353571000000001       0.75186065999999996        0.0000000000000000     
  0.39122694000000002       0.49007234000000000        0.0000000000000000     
  0.59140473999999998       0.13507609000000001        0.0000000000000000     
  0.53156702000000000        9.7663528999999999E-002   0.0000000000000000     
  0.76346223999999996       0.39657278000000001        0.0000000000000000     
  0.41119013999999998       0.52354409999999996        0.0000000000000000     
   7.2558165999999993E-002  0.26885883999999999        0.0000000000000000     
  0.10497347000000000       0.79895936000000001        0.0000000000000000     
[...]
 CELL_DATA        2963
 SCALARS Tumor_cells float
 LOOKUP_TABLE default
    0.23694642014581376788E-14
    0.32628051476941673001E-07
    0.86809215011907172958E-09
    0.22772262452995952804E-09
    0.25014556069700132732E-08
    0.13788575955907099797E-11
    0.19895815942522072813E-11
    0.89432035761023935636E-07
    0.51207595861775535050E-18
    0.14717899839129368420E-02
    0.12006511332404665599E-09
    0.29223239490091479658E-08
    0.53824714651067580614E-10
    0.23037591585411366003E-08
    0.58645248694538169781E-17
    0.23998154939563075192E-10
    0.83804946592601608363E-03
    0.92036906439508948090E-10
    0.85617237748521763545E-12
    0.87240626804394486628E-07
    0.44536133702046860576E-08
    0.18872920643876477803E-01
    0.40876033145416747205E-01
    0.62385750341475423278E-07
    0.12702557672638775416E-05
    0.12950228452073889976E-03
    0.39473090965515955348E-06
    0.28789740254058834518E-12
    0.10775885062857305190E-08
    0.44011542398924245341E-07
    0.39643351582896972510E-03
    0.55711782026660946306E-16
    0.13878216975699579259E-07
    0.40558098011601803544E-05
    0.42232005848996411498E-07
    0.11192568741293464518E-05
    0.73368700863461925896E-08
    0.76299634713993412565E-05
    0.54557397096508061380E-13
    0.50631919157710668367E-01
    0.26424752695080636342E-12
    0.11183202826116227382E-08
    0.29013809603813014559E-06
    0.12960890693704463309E-06
    0.24551415308971447251E-16
    0.45677238184887113646E-04
    0.94153785449409263008E-13
    0.11968152027927216952E-14
    0.22340562843571852192E-07
    0.35535051280875286348E-16
    0.28914304341564060259E-04
    0.72938498027493363115E-13
    0.77469833017612609008E-13
    0.24314774414138837781E-10
    0.11580765293767326914E-08
    0.12386570544298012111E-03
    0.79683792356412474984E-13
    0.43931905835756735401E-04
    0.10297998945551436621E-03
    0.11404093901282758775E-10
    0.12881317894346215451E-03
    0.27145725329488636923E-08
    0.11895376835167403592E-14
    0.11466551438681476152E-15
    0.93622825323912186325E-09
    0.96265046920663224100E-04
    0.28609881493303779021E-05
    0.10286206197267467818E-03
    0.14702878600974469969E+00
    0.76722713322863459771E-10
    0.40831447132334325609E-13
    0.14213205552576061211E-03
    0.22112986837774941487E-09
    0.43977313182392906022E-08
    0.12142444174873270012E-02
    0.13188390505629616224E-02
    0.16954659432456397478E-01
    0.24312184589910787241E-03
    0.74696153569487658489E-12
    0.56703132758967016570E-04
    0.13793363211707827038E-14
    0.45723181037427408722E-04
    0.13280368959547826364E-03
    0.55240713248968145027E-02
    0.91558354402424795823E-05
    0.31254140204920909709E-08
    0.17082214356621517249E-10
    0.11102470051822985836E-06
    0.40796632002490680317E-06
    0.41588614849079151088E-13
    0.31877940379340075798E-07
    0.28879740324309450758E-04
    0.38227651345479014833E-01
    0.69137764030055082545E-04
    0.42528277101338063277E-06
    0.31262404591805926569E-04
    0.18060604491449264164E-01
    0.18036420901268551290E-07
    0.90353531512063043709E-08
    0.47235508162626087979E-09
    0.25055890694200834412E-11
    0.72801800117615959095E-07
    0.65430498360532829199E-04
    0.74036665884124123541E-08
    0.88839208068964958115E-02
    0.68682067430109385707E-11
    0.63714393373863160899E-08
    0.20335661211719024322E-13
    0.34713001718183156502E-04
    0.48747772527406753402E-09
    0.18479849431548450861E-09
    0.49356821962011225150E-10
    0.29808877406679279093E-12
    0.11404323148162677631E-09
    0.10010745664345704967E-13
    0.64245282138025429617E-11
    0.21196404099239102146E-14
    0.17521289154205485851E-15
    0.38287063758842151094E-02
    0.64827730433356133607E-03
    0.58364079097449075288E-11
    0.27376908495643087708E-11
    0.32889787042312380957E-11
    0.51672776849146401538E-05
    0.11019478961461192944E-12
    0.22534966111502469067E-05
    0.11051725079866201144E-11
    0.79052165476342644993E-04
    0.18608848845064419799E-02
    0.17994186918890515340E-03
    0.19887103619502277232E-05
    0.36350836851434085864E-04
    0.73439542747855676708E-01
    0.27244046221565293077E-05
    0.17176322759860908297E-03
    0.50696037037886167945E-03
    0.48721416852461101521E-03
    0.26064016458418517302E-03
    0.78546759895009667806E-11
    0.14388256325969586702E-02
    0.11022319773214152413E-03
    0.12843834440375729156E-05
    0.14210069717227263864E+00
    0.41183027179070145520E-03
    0.22423840921245098332E-03
    0.90875837122444505612E-06
    0.10454695955293729113E-08
    0.14572387671178234661E-05
    0.20724763487439452064E-11
    0.57157158394136964395E-03
    0.40233948174495189302E-08
    0.13104168726503720444E+00
    0.26907183527316238950E-03
    0.65005276454608330092E-06
    0.10482974647304239760E-10
    0.44065548410993365795E-09
    0.37641069861460455707E-11
    0.79181617307365737676E-10
    0.31641402731835796766E-11
    0.34545468621315619850E-11
    0.28084272608960026183E-10
    0.12572516708721889660E-10
    0.13103356483365313864E-05
    0.78223290790171171125E-04
    0.12623758152530134643E-08
    0.13983834339402782462E-03
    0.49770881163997957781E-12
    0.26473200514196842015E-04
    0.30072057645875939665E-02
    0.37863181960911860680E-05
    0.11060910902895980390E-01
    0.49097581167014203658E-11
    0.52514586616421898892E-08
    0.19855888109798740932E-04
    0.24428713346955151412E-09
    0.45703905413464096632E-10
    0.42784216807335104267E-07
    0.33870579883634215309E-08
    0.33577418964908392421E-10
    0.14834718504733437017E-12
    0.20943436602473631050E-02
    0.25411966788165294223E-06
    0.18817035080036169778E-05
    0.11380044413416961786E-10
    0.50035934700151072503E-09
    0.10964796676073681878E-08
    0.97818849537204056771E-04
    0.78000519684488556259E-04
    0.34818234460531021076E-03
    0.74698533274440725590E-13
    0.78233086888406460919E-08
    0.11115204498573878766E+00
    0.66823074670110280342E-11
    0.43646578266154968226E-12
    0.97895661734425272471E-02
    0.93647204565419230307E-12
    0.40016822850571245884E-01
    0.20189310292656663604E-04
    0.17254217469181705149E-04
    0.26216109243149777093E-10
    0.66136276640433865753E-06
    0.15097944020184030106E-07
    0.17397005250338114849E-08
    0.29458316451431710821E-04
    0.77021076898770843289E-01
    0.61300814583975397898E-01
    0.11508473278735669142E-04
    0.58830083469885656455E-01
    0.10877241476016294430E+00
    0.16758535209549904634E-11
    0.23351095705784685334E-10
    0.25117912800325752770E-01
    0.51780090269181427987E-01
    0.11819133740057911936E-11
    0.67930124901573529380E-08
    0.21948333046810984002E-08
    0.41679734356525474447E-05
    0.96455746792422332263E-04
    0.89114144839831706951E-02
    0.90110943067550825815E-04
    0.37884884250868574475E-07
    0.19868427245383279352E-08
    0.23730748345503096912E-04
    0.11634432501570600861E-03
    0.89375886860495933821E-04
    0.32484998285300342579E-08
    0.17871094895905418774E-03
    0.55193484479631229602E-05
    0.34978551788662739762E-05
    0.14836013862001452422E-03
    0.15139509401913722568E-04
    0.42559919481438952354E-05
    0.46447437952410884893E-09
    0.34352795192533185781E-02
    0.64750298774497868924E-06
    0.48737786385164586162E-03
    0.82444808968646794781E-14
    0.19578996861075580183E-01
    0.62255895716890240210E-01
    0.13366642875220816067E+00
    0.68232672948083074793E-04
    0.50969158831996579247E-07
    0.38812223471260613727E-01
    0.41660777530795167767E-01
    0.20031534037483072347E-01
    0.14579933429531463348E-03
    0.16955078595550963309E-02
    0.20751435993574698468E-03
    0.33560901399228389901E-03
    0.58191706737421508566E-01
    0.57308188878497081861E-02
    0.27056011383807421233E-07
    0.45707890321250210829E-04
    0.14354556560851503000E+00
    0.10744842521741816210E-05
    0.15953845684297401372E-06
    0.17284189292522499212E-04
    0.42505859678410045808E-03
    0.14757519870251452690E-01
    0.33674403642513963944E-07
    0.10453404314115710347E-01
    0.68757351169065920524E-02
    0.48816371306740708250E-02
    0.25444537424135368691E-07
    0.24466131208034466726E-01
    0.26311044036059080096E-10
    0.12606738311233783856E+00
    0.98556495781601510114E-02
    0.10034511872398193914E-02
    0.40612721035135905534E-01
    0.15660869156879840710E-07
    0.31800440342150196327E-02
    0.14556825372004559768E-01
    0.11167798093025954609E-02
    0.30823200442647224681E-02
    0.20634948248724460229E-09
    0.34182853667870118391E-07
    0.13736796136502676785E-07
    0.66124064474051049982E-12
    0.10075964058766226014E-02
    0.60059782980421641102E-11
    0.82730630008860282180E-04
    0.14352409273062063033E-04
    0.50182061510473135944E-07
    0.17885100338707697869E-02
    0.65809676430114513365E-13
    0.27928419861311219730E-01
    0.11339748567547425044E-02
    0.38996716614687437731E-03
    0.10712936176510017013E-06
    0.64505061672939119501E-07
    0.29061593440677849240E-07
    0.22470956764497570547E-02
    0.26310322242342549360E-12
    0.26539560026684185594E-06
    0.42086735893858473467E-01
    0.18428935807770891429E-02
    0.40909901327869822226E-09
    0.12585705813904299322E+00
    0.10210392482801365285E-02
    0.65423237049741188434E-05
    0.34659790506331310429E-02
    0.26312961485000404801E-03
    0.88265862325310044689E-05
    0.64484665881875112580E-04
    0.83237964031485734135E-11
    0.64333514380805114502E-02
    0.32582583844812746432E-10
    0.16610562528480983524E-01
    0.18632883279817509699E-02
    0.86823315064660276999E-03
    0.12852019180681094592E-04
    0.21002572343164428899E-02
    0.11866241488280122526E-02
    0.18507636580629203273E-08
    0.27791619044958820213E-13
    0.35286390479032606223E-04
    0.44850422553948499733E-03
    0.17644370044526784536E-01
    0.18007363495107631506E-10
    0.50731753544616149795E-04
    0.32229384064913366757E-06
    0.57484689007479406242E-05
    0.15639459946229022988E-10
    0.10517169735513139187E-10
    0.19546062056445928477E-04
    0.19284007905870109749E-06
    0.67509351296051699209E-02
    0.26033089013653025657E-04
    0.46502301648031684330E-09
    0.23418378071858532473E-03
    0.72972692166089315286E-04
    0.20080354725101184039E-09
    0.53667163438196715879E-09
    0.46511163592374122987E-05
    0.47577882981746055453E-12
    0.69829311601134457101E-05
    0.12403933663158414917E-03
    0.72413444753674226668E-05
    0.46828556346111230123E-11
    0.11442454536284159704E-09
    0.10620683922238037997E-04
    0.19150018929404557318E-03
    0.24409277169837387779E-07
    0.42685998936062650305E-02
    0.43447778747938694752E-02
    0.92141119519431174132E-04
    0.93090493025517636710E-05
    0.74465297556968140775E-10
    0.43138069147456313890E-11
    0.90566132997164826388E-11
    0.31364887205442095461E-09
    0.23418054955699745841E-09
    0.17496156259509246649E-09
    0.11342373065197060370E-10
    0.37717787510090589639E-11
    0.59199301098109414311E-10
    0.20197464173696866849E-09
    0.75513876541474589751E-09
    0.10037977383471883849E-07
    0.13462895467934891272E-08
    0.28713375004778562032E-08
    0.13495657086608360230E-06
    0.36993485755428403763E-12
    0.66226740928958669333E-13
    0.14616105933234240169E-12
    0.16707370914650614965E-04
    0.45218554523770387139E-04
    0.16699561015086336613E+00
    0.31223735010571972842E-01
    0.72567950983407014665E-01
    0.38756238376013711633E-01
    0.48943121214130358432E-01
    0.50429013740136419131E-01
    0.10323939684706660846E+00
    0.10410791609163426441E+00
    0.68155958633231025767E-01
    0.23028733660814110912E-01
    0.82039871620702184418E-01
    0.11910598310974941649E+00
    0.50270456767762337902E-01
    0.26538076198224531260E-01
    0.18572290720360839843E-07
    0.62312136909054824908E-08
    0.22392321773991551874E-07
    0.29930803720867346229E-05
    0.56961912408056388011E-04
    0.92129978153783473652E-04
    0.23118612493920068717E-04
    0.10901954928364331694E-03
    0.10743016286214330984E-04
    0.63718140750555018841E-05
    0.43763932175696546427E-05
    0.12385890219945429016E-04
    0.19021403579227633401E-05
    0.22098374208116077053E-05
    0.13432474455339656627E-06
    0.57828124273126121284E-05
    0.26610735305325891510E-11
    0.19981831298828864602E-05
    0.42446138835899557048E-03
    0.24777497305443653549E-03
    0.16690532287093366118E-02
    0.91361228761896548945E-03
    0.29914752405391154599E-11
    0.83099193772495138787E-11
    0.69027233603850460078E-10
    0.70650478904089955611E-11
    0.38428182472267703236E-08
    0.10474685022436221944E-08
    0.57101541748230295279E-09
    0.87324088597264255374E-11
    0.19332591282816383149E-09
    0.54369007186175870820E-10
    0.36982750992474271168E-02
    0.79936034246539267728E-02
    0.13093654746824529876E-05
    0.15684742835028026541E-03
    0.31075066898301759885E-09
    0.88065908647052953088E-09
    0.49803975962386312354E-09
    0.43939704653633008180E-03
    0.17321088290328539748E-03
    0.14454434000578509842E-01
    0.11739285207557072568E-01
    0.42721182594451431700E-13
    0.23850635632121309913E-11
    0.35500944667421861013E-11
    0.45997028034064201146E-12
    0.17292688131534572174E-12
    0.97076568435915741646E-10
    0.75007248942165240588E-10
    0.71806809821466209862E-11
    0.28648175825205314090E-10
    0.29783313323922679793E-09
    0.61516696308206401180E-10
    0.80774566646110322606E-11
    0.10852198988061772479E-12
    0.18004240831471908877E-11
    0.21316066718705208242E-12
    0.54788716428734411865E-12
    0.11779026168491391104E-11
    0.54244323462404039150E-09
    0.21109424772451487922E-07
    0.22896933408349608353E-08
    0.19032495151165452289E-08
    0.37813830482244143864E-08
    0.40894328000052592914E-08
    0.72502906261468652247E-08
    0.12146190767784691670E-06
    0.11666325808902761383E-08
    0.47002136735913596605E-07
    0.58193771074195355994E-07
    0.95970910872731108950E-06
    0.96598276492636662792E-13
    0.52358807377105345534E-12
    0.28312416087715967924E-03
    0.98895384574649626303E-04
    0.10489363822445771238E-03
    0.15895141603379010385E-03
    0.13129090648981170397E+00
    0.10667982505453632580E+00
    0.16169441621503116702E+00
    0.13221872920905344828E+00
    0.65614461507040985511E-08
    0.41666966519237530244E-09
    0.50617558562442276498E-08
    0.60736888898104579320E-08
    0.19949445022984895874E-07
    0.59356566798493208734E-07
    0.17265186280868065657E-08
    0.20289380282148798198E-06
    0.89361255566435924023E-05
    0.13153006254994958069E-04
    0.42431550929823849242E-06
    0.25625023494458926233E-06
    0.16982551099539342300E-05
    0.13317766747980572316E-04
    0.22733590567597553470E-05
    0.59787272963227889569E-04
    0.10075237995437143944E-04
    0.21125462735102654925E-04
    0.32419953979900850184E-03
    0.84747518528669840525E-03
    0.18155344386876223566E-03
    0.25365394477411062164E-03
    0.64059247454706716440E-03
    0.97567495530792125273E-03
    0.51791308522112112101E-03
    0.23815706805228303703E-03
    0.17445079099539734040E-03
    0.33500813661620785014E-03
    0.34431005205504456803E-11
    0.35674187519547330482E-11
    0.39729070650600555377E-11
    0.17684304274617072293E-09
    0.36429176017518892620E-08
    0.10903529150839823263E-08
    0.15351884053456115939E-01
    0.21445672254191781164E-01
    0.15824077455503248672E-09
    0.36212397063458667251E-08
    0.57631366929521872152E-10
    0.22151733296111301335E-03
    0.21227561204979175820E-03
    0.49631171585394078947E-13
    0.61868178824029632278E-12
    0.61822376422388727643E-13
    0.12895345042588098152E-10
    0.19541987735773950913E-08
    0.30544966963193721123E-08
    0.34787667118148269211E-09
    0.12363905287311775794E+00
    0.15494724766094544743E+00
    0.15818997652532271192E+00
    0.15051990041250193353E+00
    0.10837788662193036427E-07
    0.41025323445829490807E-08
    0.28293976344000826299E-07
    0.14147799936803089653E-07
    0.77768597020560646488E-07
    0.77266867653889788338E-07
    0.52817861783343198829E-07
    0.10281151917219982810E-05
    0.15684433106524217410E-04
    0.30809482162080236724E-04
    0.78797075994957212219E-05
    0.21755001630436492446E-04
    0.22698041805640318066E-04
    0.19552740900210131142E-03
    0.47924321534361118049E-04
    0.66553709298214859991E-04
    0.11087395799453101698E-02
    0.63418703136042958463E-03
    0.38436726953188301995E-03
    0.31118247025823867055E-03
    0.48388798152381720316E-03
    0.43066084495846921384E-03
    0.20039675915013523458E-03
    0.47550360959166355565E-03
    0.13949613599353717186E-03
    0.15373624698379419521E-03
    0.90943649474126023267E-04
    0.10874607452942538837E-04
    0.70635590817591739914E-04
    0.95535269642508109352E-04
    0.10634035526687441939E-03
    0.67788897357654975383E-04
    0.14448307049588787202E-10
    0.52849733812901715538E-11
    0.46247324925136763994E-10
    0.30314897022520587847E-15
    0.70122591494520010886E-12
    0.15424365278515243497E-10
    0.36276232458631252663E-10
    0.48314237761564992524E-11
    0.24791640063719941563E-10
    0.35169717235593521688E-10
    0.22948400599491187415E-09
    0.10955169745493565255E-09
    0.15827808320034702836E-09
    0.11700076047337052874E-08
    0.69878558238203656518E-10
    0.49510558008759523889E-09
    0.56601060848457732528E-09
    0.15792926089531432508E-08
    0.23380438722792707386E-09
    0.28897734849825915102E-10
    0.79869167374973897858E-08
    0.50284424219961006426E-08
    0.16255368901654307368E+00
    0.16270431324636358550E+00
    0.59240293434373593023E-05
    0.10749778932141058298E-05
    0.25047879276262488023E-05
    0.45263240585801701332E-05
    0.68113140274697243112E-06
    0.18721133228871674660E-06
    0.59499293686044202706E-06
    0.43408998306072699334E-05
    0.22263766521720047310E-03
    0.10251433925881365671E-04
    0.31699756535427310881E-04
    0.77064749006057452760E-05
    0.74362229363905137753E-05
    0.22327381542456057841E-04
    0.36290286812051675444E-05
    0.20054741468667562441E-05
    0.47626429059526434256E-04
    0.63426468466358938399E-04
    0.33348143696245325512E-04
    0.93796707069968243654E-04
    0.11492472601424279338E-04
    0.72097640507522641699E-04
    0.12445688463122523619E-03
    0.15661712255148746691E-03
    0.83112863689767721822E-04
    0.12243929560422828120E-03
    0.57685156986775299945E-03
    0.69383092926433409097E-03
    0.88241430184096919607E-03
    0.62643904468542117251E-03
    0.24767422476080170821E-02
    0.18735566638989763384E-02
    0.53976436711596748573E-03
    0.35377414747398111105E-03
    0.36736451002007522526E-11
    0.17765079053167694947E-11
    0.18442295775488270321E-03
    0.89354392161268111536E-04
    0.48663752937828733339E-05
    0.12314576187272342189E-04
    0.29290567652450310830E-06
    0.12803555462168864613E-04
    0.10652834134371250559E-04
    0.67559691283601238689E-04
    0.24923430801953120777E-05
    0.70553272663412547937E-05
    0.59562742012490096308E-10
    0.23706138814186882268E-09
    0.16940215807411485521E-04
    0.77607542284894273546E-05
    0.19796566937165920591E-11
    0.27220612583068306508E-10
    0.11326232434399936978E-12
    0.24188568962174859052E-11
    0.14817743543750109107E-10
    0.36510846028646325352E-09
    0.28197131791756360162E-09
    0.30844761798938214679E-08
    0.60950182053243186434E-11
    0.24155571739812913747E-10
    0.77592860649112252599E-09
    0.45211969450372918853E-10
    0.17641248369902046135E-07
    0.12326930841332106722E-08
    0.68829294713344917056E-02
    0.70829991252147170462E-03
    0.15521913945953924596E-02
    0.20988489749438118265E-02
    0.18837185638983836543E-02
    0.48093355913152353604E-03