# vtk DataFile Version 3.0
LAPLACIEN  2D
ASCII
DATASET UNSTRUCTURED_GRID
 POINTS        1616  float
  0.45880792999999997       0.87913892999999999        0.0000000000000000     
  0.40372658000000000       0.18243693000000000        0.0000000000000000     
  0.52563972999999997       0.19039755999999999        0.0000000000000000     
  0.45642953000000003       0.24226190000000000        0.0000000000000000     
  0.51984098000000001       0.24548566999999999        0.0000000000000000     
  0.21212766999999999       0.18957676000000001        0.0000000000000000     
  0.28573643999999998       0.48586826999999999        0.0000000000000000     
  0.49667887999999999       0.82979849000000006        0.0000000000000000     
  0.22848407000000001       0.23366793000000000        0.0000000000000000     
  0.27860389000000002       0.86069733000000004        0.0000000000000000     
  0.36563702999999997       0.80971340999999997        0.0000000000000000     
  0.28045499000000002       0.80393031999999998        0.0000000000000000     
  0.40374228000000001       0.78127665000000002        0.0000000000000000     
  0.56160891999999996       0.55341227999999998        0.0000000000000000     
  0.37210935000000001       0.26787699999999998        0.0000000000000000     
  0.49899838000000002       0.57286409999999999        0.0000000000000000     
  0.41023869000000002       0.33464665999999998        0.0000000000000000     
  0.33484156999999998       0.29151022999999998        0.0000000000000000     
  0.46758665999999999       0.58262307999999996        0.0000000000000000     
  0.43303693999999998       0.36569945999999998        0.0000000000000000     
  0.25741280000000000       0.61805882999999995        0.0000000000000000     
  0.28853707000000001       0.59423020000000004        0.0000000000000000     
  0.67837254000000002       0.45038665999999999        0.0000000000000000     
  0.42159046000000000       0.50697913999999999        0.0000000000000000     
  0.60276470999999998       0.73940291000000002        0.0000000000000000     
  0.30758273000000003       0.77844542000000005        0.0000000000000000     
  0.45367541000000000       0.31842187000000000        0.0000000000000000     
  0.36974101999999998       0.35807864000000000        0.0000000000000000     
  0.26919625000000003       0.65312176000000000        0.0000000000000000     
  0.61908110999999999       0.42741791000000001        0.0000000000000000     
  0.54442267000000000       0.74200747000000000        0.0000000000000000     
  0.58930464999999999       0.41588288000000001        0.0000000000000000     
  0.51511633000000001       0.74331579000000003        0.0000000000000000     
  0.12878382999999999       0.33122940000000001        0.0000000000000000     
  0.15534365000000000       0.71749246000000000        0.0000000000000000     
  0.64877724999999997       0.30161799000000000        0.0000000000000000     
  0.58853643000000000       0.28101930000000003        0.0000000000000000     
  0.56390348000000001       0.30132482999999999        0.0000000000000000     
  0.29605991999999998       0.44474459999999999        0.0000000000000000     
  0.29900669000000002       0.52983276000000001        0.0000000000000000     
  0.55954318999999997       0.48654808999999999        0.0000000000000000     
  0.42341458999999998       0.38785072999999998        0.0000000000000000     
  0.45806291999999998       0.35892998999999998        0.0000000000000000     
  0.47820750000000001       0.31147424000000001        0.0000000000000000     
  0.36344222999999998       0.38139388000000002        0.0000000000000000     
  0.17186508000000000       0.28159534000000003        0.0000000000000000     
  0.18029876000000000       0.33292397000000001        0.0000000000000000     
  0.20696366999999999       0.71822465999999996        0.0000000000000000     
  0.61326404999999995       0.34468346000000000        0.0000000000000000     
  0.29887186999999998       0.42337377999999998        0.0000000000000000     
  0.33271837999999998       0.44383096000000000        0.0000000000000000     
  0.31835012000000001       0.54267131999999996        0.0000000000000000     
  0.54882964999999995       0.45462609999999998        0.0000000000000000     
  0.20448143999999999       0.28717446000000002        0.0000000000000000     
  0.20634120000000000       0.33378063000000002        0.0000000000000000     
  0.23301781999999999       0.71859421999999995        0.0000000000000000     
  0.58606499999999995       0.35199907000000002        0.0000000000000000     
  0.20841100000000001       0.45369578999999999        0.0000000000000000     
  0.24778198000000001       0.77708496000000005        0.0000000000000000     
  0.30748062999999998       0.61002621000000001        0.0000000000000000     
  0.23337332000000000       0.41981835000000001        0.0000000000000000     
  0.25985113999999998       0.75924943000000000        0.0000000000000000     
  0.24610213000000000       0.40254353999999998        0.0000000000000000     
  0.37350351999999998       0.50127178999999999        0.0000000000000000     
  0.43235204999999999       0.78236391000000005        0.0000000000000000     
  0.30749858000000002       0.28582627999999999        0.0000000000000000     
  0.30336816000000000       0.64635111000000001        0.0000000000000000     
  0.31418906000000002       0.43625961000000002        0.0000000000000000     
  0.27223414000000001       0.78063022000000004        0.0000000000000000     
  0.22829299000000000       0.75089561000000005        0.0000000000000000     
  0.26580239000000000       0.42989294000000000        0.0000000000000000     
  0.37369119000000001       0.51975733999999996        0.0000000000000000     
  0.39681665999999999       0.51027884000000001        0.0000000000000000     
  0.32086795000000001       0.65137668999999998        0.0000000000000000     
  0.31757218999999998       0.62987181000000003        0.0000000000000000     
  0.32959777000000001       0.42500900000000003        0.0000000000000000     
  0.24663835000000001       0.74537787000000000        0.0000000000000000     
  0.26354222999999999       0.41075105000000001        0.0000000000000000     
  0.28343712999999998       0.43221330000000002        0.0000000000000000     
  0.34682245000000000       0.43182289000000001        0.0000000000000000     
  0.35306810000000000       0.45344571000000000        0.0000000000000000     
  0.57327218000000002       0.15829040000000000        0.0000000000000000     
  0.51473097999999995       0.12621746000000000        0.0000000000000000     
  0.72829681999999996       0.40151571000000003        0.0000000000000000     
  0.42703184999999999       0.53501600999999999        0.0000000000000000     
  0.32612607999999998       0.75472421999999995        0.0000000000000000     
   9.9814849999999997E-002  0.28081352999999998        0.0000000000000000     
  0.13945825000000001       0.78732252999999996        0.0000000000000000     
  0.44199519999999998       0.38275643999999998        0.0000000000000000     
  0.40132215999999998       0.36508836000000000        0.0000000000000000     
  0.43963142999999999       0.34043466999999999        0.0000000000000000     
  0.47160058999999999       0.33493045999999999        0.0000000000000000     
  0.45615203999999998       0.28038164999999998        0.0000000000000000     
  0.34321279999999998       0.35314412000000001        0.0000000000000000     
  0.29178279000000001       0.56170810000000004        0.0000000000000000     
  0.49833080000000002       0.48416767999999999        0.0000000000000000     
  0.46386271000000001       0.46452802999999998        0.0000000000000000     
  0.44722043000000000       0.45300645000000000        0.0000000000000000     
  0.46562803000000003       0.44419790999999997        0.0000000000000000     
  0.43925322000000000       0.48229485999999999        0.0000000000000000     
  0.49117628000000002       0.45665803999999999        0.0000000000000000     
  0.43435156000000003       0.46523363000000001        0.0000000000000000     
  0.19405754000000000       0.31093060000000000        0.0000000000000000     
  0.22069087000000001       0.66905079000000001        0.0000000000000000     
  0.30776597999999999       0.59042684000000001        0.0000000000000000     
  0.29541507000000000       0.57849362000000004        0.0000000000000000     
  0.28335474999999999       0.61970232999999997        0.0000000000000000     
  0.29935165000000002       0.62852803999999995        0.0000000000000000     
  0.28459435999999999       0.64121777000000002        0.0000000000000000     
  0.26698675999999999       0.63435282999999998        0.0000000000000000     
  0.24031983000000001       0.64700659000000005        0.0000000000000000     
  0.33118850000000000       0.50233682999999996        0.0000000000000000     
  0.35257061000000001       0.51072803000000000        0.0000000000000000     
  0.29038973000000001       0.78732479000000000        0.0000000000000000     
  0.28737915000000003       0.76752330999999996        0.0000000000000000     
  0.21978159000000000       0.73315437000000006        0.0000000000000000     
  0.18119734000000001       0.76257752999999995        0.0000000000000000     
  0.20353571000000001       0.75186065999999996        0.0000000000000000     
  0.39122694000000002       0.49007234000000000        0.0000000000000000     
  0.59140473999999998       0.13507609000000001        0.0000000000000000     
  0.53156702000000000        9.7663528999999999E-002   0.0000000000000000     
  0.76346223999999996       0.39657278000000001        0.0000000000000000     
  0.41119013999999998       0.52354409999999996        0.0000000000000000     
   7.2558165999999993E-002  0.26885883999999999        0.0000000000000000     
  0.10497347000000000       0.79895936000000001        0.0000000000000000     
[...]
 CELL_DATA        2963
 SCALARS Tumor_cells float
 LOOKUP_TABLE default
    0.40572940657304450285E-15
    0.13564302854853111323E-07
    0.31140090269350258634E-09
    0.75235879522436763207E-10
    0.95634915002216104642E-09
    0.31809469000735734538E-12
    0.51239180272809662026E-12
    0.41740514158167647035E-07
    0.59871649117061372358E-19
    0.13611538686881803455E-02
    0.33247334135853372010E-10
    0.11331156158423520560E-08
    0.17425588092062627663E-10
    0.77573348865247336245E-09
    0.74738827969636228738E-18
    0.75465504818287756738E-11
    0.75457929449713166421E-03
    0.28194532185963007417E-10
    0.18295189195369061411E-12
    0.41439234515940030138E-07
    0.16979636509994818404E-08
    0.18539530836893382965E-01
    0.41387424468255371024E-01
    0.28025790841109544791E-07
    0.70654539996521698899E-06
    0.66152043516390658640E-04
    0.22175247407171892643E-06
    0.58302043865169521809E-13
    0.38589020845979347650E-09
    0.23695342460997669551E-07
    0.27568084328796440457E-03
    0.84820111422128449682E-17
    0.56806975294260024119E-08
    0.24296640128201749168E-05
    0.20446428018796637861E-07
    0.68605066502734472077E-06
    0.29818272674577375930E-08
    0.48242760826460370839E-05
    0.13162055883944347017E-13
    0.44558145730619252989E-01
    0.73485579986807732400E-13
    0.41014296218279748903E-09
    0.14313896240428283356E-06
    0.73487215235536953610E-07
    0.36204373044729142685E-17
    0.33614626003059089429E-04
    0.24010458755460979049E-13
    0.19889036699850467615E-15
    0.11661689186412123108E-07
    0.51682798685754467574E-17
    0.20179049667286486140E-04
    0.20597928763791403598E-13
    0.21449813626971850030E-13
    0.92645018821310116023E-11
    0.42524256432744226645E-09
    0.80952340555844016449E-04
    0.20761448278208969479E-13
    0.31700649531366251524E-04
    0.87729330110546631643E-04
    0.32023854565846345956E-11
    0.10545685471962912662E-03
    0.89462159294664058594E-09
    0.19042119019033357712E-15
    0.18587213644840490090E-16
    0.32095112774003470368E-09
    0.75188293044092761462E-04
    0.16259467640163606385E-05
    0.84568776879491815764E-04
    0.14131742937086710921E+00
    0.22554858888431846068E-10
    0.98513686288397008087E-14
    0.11441279099339228791E-03
    0.81262805470287187501E-10
    0.19660989014181020273E-08
    0.11055631868791024157E-02
    0.12040939881691086529E-02
    0.16685991227300907974E-01
    0.21696675829620067533E-03
    0.23293793909966439772E-12
    0.42379230729186660536E-04
    0.25130663955988030027E-15
    0.33256579270951804755E-04
    0.11096718371918470511E-03
    0.52918406691499384961E-02
    0.57213898006618548467E-05
    0.10787418615027569611E-08
    0.42877119639313027996E-11
    0.49314388729456017974E-07
    0.21146319817169275382E-06
    0.76202132291017992619E-14
    0.13431314368965466138E-07
    0.20121258181282748680E-04
    0.37565056239233195201E-01
    0.51557253235304837888E-04
    0.21129692187811912990E-06
    0.21162667919219534037E-04
    0.17727015399548823327E-01
    0.73482022324016090241E-08
    0.45181136153407503305E-08
    0.16167429407342275445E-09
    0.69891985653651209209E-12
    0.32234533358514891115E-07
    0.47710640049447953506E-04
    0.28685332337137658452E-08
    0.74900544224639252835E-02
    0.17156502263515993821E-11
    0.24256243264010986617E-08
    0.33872414603704348097E-14
    0.24803532683559245735E-04
    0.16196080064598556069E-09
    0.55104267961398980861E-10
    0.15518256215272975572E-10
    0.79212859584872614320E-13
    0.36096623230592395226E-10
    0.17983394389395670748E-14
    0.17857029181772311674E-11
    0.33792691090070118168E-15
    0.24652719130614497830E-16
    0.36352220304575575023E-02
    0.57127947673612524369E-03
    0.16392104770558937091E-11
    0.65419582130361054319E-12
    0.11260089465888868526E-11
    0.31573253418716521223E-05
    0.31830076589231266621E-13
    0.12929955792135195371E-05
    0.24758841471939959819E-12
    0.60218881538260572868E-04
    0.13255565805935975911E-02
    0.15525876808312211196E-03
    0.11638742722248650565E-05
    0.25684618804484124786E-04
    0.65754457173622840593E-01
    0.16526665946663870985E-05
    0.11524568121639350076E-03
    0.43649833466131586534E-03
    0.41707189230281933911E-03
    0.16112543292538800263E-03
    0.20756775455203186715E-11
    0.10320547304392458949E-02
    0.95302169482740806150E-04
    0.70887727654182267452E-06
    0.13967724628211766746E+00
    0.34790812174625946685E-03
    0.18007299838499024711E-03
    0.48585445323235218155E-06
    0.33401394598316584886E-09
    0.82655055917438583547E-06
    0.53258609340927774472E-12
    0.42092213036894708927E-03
    0.14582826862833191472E-08
    0.13035085499726581371E+00
    0.21855811691654333144E-03
    0.33312584190716812436E-06
    0.33747967004798219390E-11
    0.19269992169156847780E-09
    0.12951224587966817484E-11
    0.28157000641216636032E-10
    0.93205541740311948886E-12
    0.10357349764835230987E-11
    0.94258674928871569875E-11
    0.39956257002367497052E-11
    0.72105748904969459883E-06
    0.56374836354582973552E-04
    0.44919944672569993708E-09
    0.10768693672958026787E-03
    0.15545508057771916962E-12
    0.18539091351093075105E-04
    0.28270598740007652459E-02
    0.23475018883546942426E-05
    0.10726103928806613938E-01
    0.15015988865569334711E-11
    0.25613243560464315180E-08
    0.13446313666660585467E-04
    0.10297045462272309568E-09
    0.17706411700120602821E-10
    0.18426143158105771945E-07
    0.12619149097608217518E-08
    0.95036334653840455265E-11
    0.44014776712257069775E-13
    0.19353289103110082620E-02
    0.14563619997810094798E-06
    0.11708735471518708412E-05
    0.32577637497193989583E-11
    0.21746231040196722329E-09
    0.49451793727935063511E-09
    0.62325462865402985369E-04
    0.41668507568449836764E-04
    0.28934331695125811061E-03
    0.19310610067400164542E-13
    0.31216831463198793375E-08
    0.10321427152265587324E+00
    0.16722559283566165869E-11
    0.13621731146275740376E-12
    0.85493588177163858804E-02
    0.30405826503319576873E-12
    0.35916251768657189714E-01
    0.13606776184196229482E-04
    0.11653041050233530060E-04
    0.10007297536548300202E-10
    0.40087635777640309877E-06
    0.74948553633232687485E-08
    0.63747006613962125938E-09
    0.20575446816490963980E-04
    0.76021339790655270696E-01
    0.60388976506751776419E-01
    0.75027870305332514364E-05
    0.57425864835693334054E-01
    0.10379481499083181850E+00
    0.55344864099557858286E-12
    0.87639971198534972765E-11
    0.25059378594646512795E-01
    0.52923245634116933278E-01
    0.28306114998640484937E-12
    0.25384840661689992688E-08
    0.77956208722299736300E-09
    0.24930055046182427345E-05
    0.67101654740505051536E-04
    0.73881875029077797093E-02
    0.70821347629750525153E-04
    0.16217933184992242366E-07
    0.69842566699104364873E-09
    0.13323300748018227882E-04
    0.98044200318813943856E-04
    0.71631684085454128629E-04
    0.12283297157133734941E-08
    0.11550287655569073646E-03
    0.34461615224962555387E-05
    0.21242162513865605368E-05
    0.10943681275692317850E-03
    0.10225666733855802822E-04
    0.27361051779419908283E-05
    0.15615190522839178510E-09
    0.28174861721972817297E-02
    0.34338496471795608704E-06
    0.37660552524739919402E-03
    0.14291821531721401485E-14
    0.16935924444957888013E-01
    0.63467565405893530683E-01
    0.12935020835088206770E+00
    0.52874723678391675834E-04
    0.27446815954033661152E-07
    0.33339147203601267322E-01
    0.37182531228722059957E-01
    0.19976820207549161185E-01
    0.72743593448084298454E-04
    0.13808021659702882783E-02
    0.16703283145534054076E-03
    0.18208432332987180128E-03
    0.54242928083721199395E-01
    0.54875292146559714879E-02
    0.11806154306258244553E-07
    0.23628614873377173900E-04
    0.14024673763732403708E+00
    0.58854964886447023847E-06
    0.75189986202848352628E-07
    0.11642714044341893043E-04
    0.24804157230225084294E-03
    0.14522415788190749103E-01
    0.14231816034926765557E-07
    0.10179435124907336777E-01
    0.66271106717214756099E-02
    0.46619618346101301953E-02
    0.13250837587989663598E-07
    0.24047122758345428756E-01
    0.10057761508549647335E-10
    0.12378336691444606632E+00
    0.95858279885200660397E-02
    0.77983496281931123217E-03
    0.39726267688201172268E-01
    0.67202203091763222054E-08
    0.26772218936079103524E-02
    0.14352464531915911164E-01
    0.90115521792236326099E-03
    0.26627296679583552577E-02
    0.66535395566640195344E-10
    0.17780743577322939324E-07
    0.54687121470045342512E-08
    0.21207571735573458961E-12
    0.84613971293708565343E-03
    0.14510266646621374539E-11
    0.62747706860748523553E-04
    0.89447149479347383394E-05
    0.24036029633686047484E-07
    0.15368336886274964245E-02
    0.18318667894919241461E-13
    0.24684696712939144247E-01
    0.94360705510700430745E-03
    0.21287996648052337164E-03
    0.52665976322118955785E-07
    0.30571881242266810965E-07
    0.13269629047029990556E-07
    0.18265315669492546320E-02
    0.58676551202362592529E-13
    0.15491489787318493540E-06
    0.35947097924995584373E-01
    0.16322831097852002428E-02
    0.15608793547987924645E-09
    0.12725603178301575502E+00
    0.78722319928069273143E-03
    0.39144044422636779405E-05
    0.29469403083745254572E-02
    0.18381971748937785691E-03
    0.46588162876310392028E-05
    0.39752246253068109362E-04
    0.29895876957964897374E-11
    0.58945785879486048767E-02
    0.11866111829617556900E-10
    0.16072931315880872177E-01
    0.14393557817829300775E-02
    0.77856355683176637142E-03
    0.84086007759877211032E-05
    0.15939176507459623579E-02
    0.94848928549401791740E-03
    0.66252037687337137394E-09
    0.52193108828175814384E-14
    0.24870938480176448828E-04
    0.28794649457060904601E-03
    0.13661587660970345506E-01
    0.52750788401252571091E-11
    0.31563859300992804402E-04
    0.16649059669279591915E-06
    0.32250820192482017659E-05
    0.46810215761715117898E-11
    0.24618276209193044420E-11
    0.11754659594178866304E-04
    0.85483445299010794445E-07
    0.56758586252045927292E-02
    0.15170662234642440908E-04
    0.13015148726466403337E-09
    0.19974256165715260328E-03
    0.55995732450173593979E-04
    0.57338229984746251644E-10
    0.16415221220617919488E-09
    0.27940818735744457353E-05
    0.13827907325280836365E-12
    0.45211989603525296587E-05
    0.82562131203204808315E-04
    0.38459082262057077507E-05
    0.13834028664776617340E-11
    0.37050759572020599334E-10
    0.56545643780250791542E-05
    0.10444718047300531247E-03
    0.10665041394328675852E-07
    0.40522420969752006095E-02
    0.38535498004977366236E-02
    0.69893356649137268911E-04
    0.54229628258050147525E-05
    0.25265818483567165546E-10
    0.10553259900426621381E-11
    0.23390395039660198464E-11
    0.10070342965070073120E-09
    0.73335314770767862458E-10
    0.72896511030323947413E-10
    0.40953774883424794426E-11
    0.13104220697021561393E-11
    0.22951340377123102465E-10
    0.84279713595341856590E-10
    0.33362705524113744516E-09
    0.50410025026447646678E-08
    0.61843284089674623236E-09
    0.13443268649302618943E-08
    0.73184160948129386882E-07
    0.10712268194114580028E-12
    0.18322017221080216406E-13
    0.41477177296492772259E-13
    0.10927477988250390743E-04
    0.31925480318716112479E-04
    0.16823373303344410501E+00
    0.30651506260462552805E-01
    0.70735217628867960715E-01
    0.38821781636884718225E-01
    0.47779003152159431334E-01
    0.50417964294586649354E-01
    0.10075918998578546615E+00
    0.10551120959006737854E+00
    0.69523914461622787764E-01
    0.22969734018694579203E-01
    0.80140204351553917528E-01
    0.11664183625694807267E+00
    0.49828308179436425762E-01
    0.26343298445020087856E-01
    0.78659637663832599327E-08
    0.25228085807846128432E-08
    0.91437957950996448499E-08
    0.16894019984244438905E-05
    0.41371407821836557158E-04
    0.69411439623392448463E-04
    0.15366563904297007767E-04
    0.82663584478344701544E-04
    0.70099137408778834516E-05
    0.39661084922332981976E-05
    0.26626174590626470296E-05
    0.80748176411986970999E-05
    0.10943589441315825395E-05
    0.12701326644658372382E-05
    0.61799021940382932749E-07
    0.34945509240882911456E-05
    0.59403242686303806329E-12
    0.11306321547526357693E-05
    0.35783637480065225937E-03
    0.21618746359361145216E-03
    0.15305171106657050172E-02
    0.83311277542653320704E-03
    0.78471169154523395034E-12
    0.23081276443703190525E-11
    0.21339650330416538634E-10
    0.20275869952727247284E-11
    0.14184456859986720150E-08
    0.35791798376287452756E-09
    0.18802347762449023774E-09
    0.22523361850419531348E-11
    0.59673272465255930784E-10
    0.15619777688081931042E-10
    0.34994489859248487616E-02
    0.76990092814106948077E-02
    0.61511769987187312424E-06
    0.13728277762258784080E-03
    0.10286903628235166740E-09
    0.29491424419424833542E-09
    0.17470859551479206093E-09
    0.24611486889084579740E-03
    0.95353355325946258258E-04
    0.14219013903643360625E-01
    0.11461956258132014602E-01
    0.80300893171662724107E-14
    0.64750249177702029710E-12
    0.85660320160457058118E-12
    0.94785376341679606578E-13
    0.35168152209746693347E-13
    0.38971899067893950501E-10
    0.30156148236389396019E-10
    0.25967415226812457032E-11
    0.10936297792837763065E-10
    0.12621429675448321879E-09
    0.24557591023657639304E-10
    0.29193600766152424437E-11
    0.31341133448223849593E-13
    0.60765196578892379614E-12
    0.64436060005597015921E-13
    0.17333830862399245783E-12
    0.38929286840143656118E-12
    0.23284979357386989395E-09
    0.10812598782540649282E-07
    0.10712374961646184197E-08
    0.88291376060709804725E-09
    0.18131672056607306910E-08
    0.19615087554735113921E-08
    0.35487620381369614187E-08
    0.66438191669114914557E-07
    0.52004533940320149390E-09
    0.23995527468265634548E-07
    0.30294018878683443999E-07
    0.57205527538504345750E-06
    0.27878435479759856033E-13
    0.16350633066357221778E-12
    0.23240871211372446208E-03
    0.73908051032178494351E-04
    0.81016082581336271553E-04
    0.12398180044094028632E-03
    0.12842138136191300068E+00
    0.10550855540157653978E+00
    0.16147677139573607397E+00
    0.13109847826533344017E+00
    0.25818917036875122219E-08
    0.13683757167787597520E-09
    0.19893085071359940523E-08
    0.24338443369232370277E-08
    0.87535343303987524637E-08
    0.27504758196127517043E-07
    0.59465120417104301760E-09
    0.97376239086673299459E-07
    0.55281503443255496392E-05
    0.84099826590009349540E-05
    0.21394716054470049935E-06
    0.12031019119089205793E-06
    0.93272005253287730128E-06
    0.83714434591247800289E-05
    0.12813334063127628594E-05
    0.43237516891333716777E-04
    0.62475658559961925158E-05
    0.13766725540939814130E-04
    0.26669898609567223996E-03
    0.76300820067471157235E-03
    0.14292042252952061559E-03
    0.20613871689257673913E-03
    0.56205259940604937723E-03
    0.88900153733623252413E-03
    0.44663017977081341352E-03
    0.19610932733924571806E-03
    0.14470695257656082341E-03
    0.28489663879601936783E-03
    0.95003745620741979215E-12
    0.98732479850989049203E-12
    0.10073724499719210740E-11
    0.54420823188867746540E-10
    0.13108474021849354208E-08
    0.37020991458681629475E-09
    0.15008762780316082727E-01
    0.21118242465573779792E-01
    0.49029501682215859998E-10
    0.13203942685965193704E-08
    0.17410213088339223353E-10
    0.11535101251724020179E-03
    0.11836310677043753478E-03
    0.88680922533375132017E-14
    0.13183686988093644581E-12
    0.11666114994625788492E-13
    0.46843192684121808903E-11
    0.86703560640089416503E-09
    0.14206106974184122537E-08
    0.14052389928450138367E-09
    0.11997750599143640338E+00
    0.15201697597116001215E+00
    0.16039512864836863448E+00
    0.15218007836456431958E+00
    0.44305456934916354507E-08
    0.15832704070173749150E-08
    0.12636127814310280017E-07
    0.60206177768932294303E-08
    0.34680398427726026865E-07
    0.34247072551799221737E-07
    0.22713949902175190219E-07
    0.53192061276700502065E-06
    0.10086004458043295611E-04
    0.21038005752442217802E-04
    0.47140404411820533697E-05
    0.14413275786482330809E-04
    0.14853349339794706733E-04
    0.15454412272553012656E-03
    0.33365852070155849977E-04
    0.48121918094881208810E-04
    0.10326142717382784213E-02
    0.55528991551398497808E-03
    0.34484244570465595169E-03
    0.26868419125856176765E-03
    0.43497414388404608910E-03
    0.38839091988841984490E-03
    0.16090083644490398907E-03
    0.41278854993006430145E-03
    0.10877246616183830550E-03
    0.12301009414212991282E-03
    0.68211045552754318976E-04
    0.69589369327229656133E-05
    0.53103916570826557278E-04
    0.73395462759444287260E-04
    0.80447871915075131019E-04
    0.49940009276327806606E-04
    0.38128856221941397704E-11
    0.13174504801353116020E-11
    0.13343188492641665983E-10
    0.42101896506049606637E-16
    0.15613298167972471203E-12
    0.40943119756382498934E-11
    0.10200117693324498416E-10
    0.12051183056723064813E-11
    0.67436645591489202607E-11
    0.98214965696285832864E-11
    0.72431681512383404556E-10
    0.32639877675623653317E-10
    0.48282006964579811591E-10
    0.39483080952553799986E-09
    0.27803474955024435294E-10
    0.21016864843767951618E-09
    0.24018064419705352606E-09
    0.70424252573854378290E-09
    0.95150498042414492671E-10
    0.10079847043631999756E-10
    0.37619059379605481468E-08
    0.23834066189705852885E-08
    0.16063757745060955329E+00
    0.16313169895806037268E+00
    0.35474028354825435810E-05
    0.56126257209798042746E-06
    0.14017419027291914155E-05
    0.26418381734267175576E-05
    0.34745107064227519422E-06
    0.85504524934928461815E-07
    0.29427013230689433347E-06
    0.24829466786136259268E-05
    0.17744473126127301502E-03
    0.62894099045689357363E-05
    0.21383602858144899929E-04
    0.47735716178846210713E-05
    0.44613543008914784572E-05
    0.14524390095348413849E-04
    0.20666853143487483800E-05
    0.10860489383093681163E-05
    0.33377878565781807457E-04
    0.45182398577014399395E-04
    0.22442241820485869656E-04
    0.69321963986114114092E-04
    0.70757647060136818687E-05
    0.51792479482015596373E-04
    0.94191734356921267223E-04
    0.12140812149594140039E-03
    0.61040953561545803572E-04
    0.92410794134409657871E-04
    0.50429148783531654952E-03
    0.62547451105225584760E-03
    0.80864600673981432317E-03
    0.57089366056307586095E-03
    0.23274151973155959329E-02
    0.17316252781608980522E-02
    0.46591866025767655598E-03
    0.29632757717994905522E-03
    0.88624207392690123121E-12
    0.38653482037095565394E-12
    0.14410705139605801744E-03
    0.65980723891987587437E-04
    0.27959580366800156523E-05
    0.76589130699614327194E-05
    0.14166592154247838391E-06
    0.81357291276138754587E-05
    0.66484504281039641063E-05
    0.48512849894635387234E-04
    0.13635436262346429664E-05
    0.42004515284936950459E-05
    0.16711548795663727305E-10
    0.74156618893560556138E-10
    0.10780723605527505799E-04
    0.46389135513020700441E-05
    0.45781097890951356650E-12
    0.73059396295522249766E-11
    0.21860241627586278220E-13
    0.55141931573684032777E-12
    0.37743107391570127281E-11
    0.11311540028016534973E-09
    0.10642776107793532340E-09
    0.12846664572925729412E-08
    0.19118720761260618062E-11
    0.79824913422195163577E-11
    0.30768701672051084744E-09
    0.15486143960453651649E-10
    0.80761077046858725305E-08
    0.49398713821740700859E-09
    0.61541900624143821771E-02
    0.53002863667585753057E-03
    0.13475407353545484565E-02
    0.17399308131788935716E-02
    0.15364332247604476928E-02
    0.35163638291620097744E-03