# vtk DataFile Version 3.0
LAPLACIEN  2D
ASCII
DATASET UNSTRUCTURED_GRID
 POINTS        1616  float
  0.45880792999999997       0.87913892999999999        0.0000000000000000     
  0.40372658000000000       0.18243693000000000        0.0000000000000000     
  0.52563972999999997       0.19039755999999999        0.0000000000000000     
  0.45642953000000003       0.24226190000000000        0.0000000000000000     
  0.51984098000000001       0.24548566999999999        0.0000000000000000     
  0.21212766999999999       0.18957676000000001        0.0000000000000000     
  0.28573643999999998       0.48586826999999999        0.0000000000000000     
  0.49667887999999999       0.82979849000000006        0.0000000000000000     
  0.22848407000000001       0.23366793000000000        0.0000000000000000     
  0.27860389000000002       0.86069733000000004        0.0000000000000000     
  0.36563702999999997       0.80971340999999997        0.0000000000000000     
  0.28045499000000002       0.80393031999999998        0.0000000000000000     
  0.40374228000000001       0.78127665000000002        0.0000000000000000     
  0.56160891999999996       0.55341227999999998        0.0000000000000000     
  0.37210935000000001       0.26787699999999998        0.0000000000000000     
  0.49899838000000002       0.57286409999999999        0.0000000000000000     
  0.41023869000000002       0.33464665999999998        0.0000000000000000     
  0.33484156999999998       0.29151022999999998        0.0000000000000000     
  0.46758665999999999       0.58262307999999996        0.0000000000000000     
  0.43303693999999998       0.36569945999999998        0.0000000000000000     
  0.25741280000000000       0.61805882999999995        0.0000000000000000     
  0.28853707000000001       0.59423020000000004        0.0000000000000000     
  0.67837254000000002       0.45038665999999999        0.0000000000000000     
  0.42159046000000000       0.50697913999999999        0.0000000000000000     
  0.60276470999999998       0.73940291000000002        0.0000000000000000     
  0.30758273000000003       0.77844542000000005        0.0000000000000000     
  0.45367541000000000       0.31842187000000000        0.0000000000000000     
  0.36974101999999998       0.35807864000000000        0.0000000000000000     
  0.26919625000000003       0.65312176000000000        0.0000000000000000     
  0.61908110999999999       0.42741791000000001        0.0000000000000000     
  0.54442267000000000       0.74200747000000000        0.0000000000000000     
  0.58930464999999999       0.41588288000000001        0.0000000000000000     
  0.51511633000000001       0.74331579000000003        0.0000000000000000     
  0.12878382999999999       0.33122940000000001        0.0000000000000000     
  0.15534365000000000       0.71749246000000000        0.0000000000000000     
  0.64877724999999997       0.30161799000000000        0.0000000000000000     
  0.58853643000000000       0.28101930000000003        0.0000000000000000     
  0.56390348000000001       0.30132482999999999        0.0000000000000000     
  0.29605991999999998       0.44474459999999999        0.0000000000000000     
  0.29900669000000002       0.52983276000000001        0.0000000000000000     
  0.55954318999999997       0.48654808999999999        0.0000000000000000     
  0.42341458999999998       0.38785072999999998        0.0000000000000000     
  0.45806291999999998       0.35892998999999998        0.0000000000000000     
  0.47820750000000001       0.31147424000000001        0.0000000000000000     
  0.36344222999999998       0.38139388000000002        0.0000000000000000     
  0.17186508000000000       0.28159534000000003        0.0000000000000000     
  0.18029876000000000       0.33292397000000001        0.0000000000000000     
  0.20696366999999999       0.71822465999999996        0.0000000000000000     
  0.61326404999999995       0.34468346000000000        0.0000000000000000     
  0.29887186999999998       0.42337377999999998        0.0000000000000000     
  0.33271837999999998       0.44383096000000000        0.0000000000000000     
  0.31835012000000001       0.54267131999999996        0.0000000000000000     
  0.54882964999999995       0.45462609999999998        0.0000000000000000     
  0.20448143999999999       0.28717446000000002        0.0000000000000000     
  0.20634120000000000       0.33378063000000002        0.0000000000000000     
  0.23301781999999999       0.71859421999999995        0.0000000000000000     
  0.58606499999999995       0.35199907000000002        0.0000000000000000     
  0.20841100000000001       0.45369578999999999        0.0000000000000000     
  0.24778198000000001       0.77708496000000005        0.0000000000000000     
  0.30748062999999998       0.61002621000000001        0.0000000000000000     
  0.23337332000000000       0.41981835000000001        0.0000000000000000     
  0.25985113999999998       0.75924943000000000        0.0000000000000000     
  0.24610213000000000       0.40254353999999998        0.0000000000000000     
  0.37350351999999998       0.50127178999999999        0.0000000000000000     
  0.43235204999999999       0.78236391000000005        0.0000000000000000     
  0.30749858000000002       0.28582627999999999        0.0000000000000000     
  0.30336816000000000       0.64635111000000001        0.0000000000000000     
  0.31418906000000002       0.43625961000000002        0.0000000000000000     
  0.27223414000000001       0.78063022000000004        0.0000000000000000     
  0.22829299000000000       0.75089561000000005        0.0000000000000000     
  0.26580239000000000       0.42989294000000000        0.0000000000000000     
  0.37369119000000001       0.51975733999999996        0.0000000000000000     
  0.39681665999999999       0.51027884000000001        0.0000000000000000     
  0.32086795000000001       0.65137668999999998        0.0000000000000000     
  0.31757218999999998       0.62987181000000003        0.0000000000000000     
  0.32959777000000001       0.42500900000000003        0.0000000000000000     
  0.24663835000000001       0.74537787000000000        0.0000000000000000     
  0.26354222999999999       0.41075105000000001        0.0000000000000000     
  0.28343712999999998       0.43221330000000002        0.0000000000000000     
  0.34682245000000000       0.43182289000000001        0.0000000000000000     
  0.35306810000000000       0.45344571000000000        0.0000000000000000     
  0.57327218000000002       0.15829040000000000        0.0000000000000000     
  0.51473097999999995       0.12621746000000000        0.0000000000000000     
  0.72829681999999996       0.40151571000000003        0.0000000000000000     
  0.42703184999999999       0.53501600999999999        0.0000000000000000     
  0.32612607999999998       0.75472421999999995        0.0000000000000000     
   9.9814849999999997E-002  0.28081352999999998        0.0000000000000000     
  0.13945825000000001       0.78732252999999996        0.0000000000000000     
  0.44199519999999998       0.38275643999999998        0.0000000000000000     
  0.40132215999999998       0.36508836000000000        0.0000000000000000     
  0.43963142999999999       0.34043466999999999        0.0000000000000000     
  0.47160058999999999       0.33493045999999999        0.0000000000000000     
  0.45615203999999998       0.28038164999999998        0.0000000000000000     
  0.34321279999999998       0.35314412000000001        0.0000000000000000     
  0.29178279000000001       0.56170810000000004        0.0000000000000000     
  0.49833080000000002       0.48416767999999999        0.0000000000000000     
  0.46386271000000001       0.46452802999999998        0.0000000000000000     
  0.44722043000000000       0.45300645000000000        0.0000000000000000     
  0.46562803000000003       0.44419790999999997        0.0000000000000000     
  0.43925322000000000       0.48229485999999999        0.0000000000000000     
  0.49117628000000002       0.45665803999999999        0.0000000000000000     
  0.43435156000000003       0.46523363000000001        0.0000000000000000     
  0.19405754000000000       0.31093060000000000        0.0000000000000000     
  0.22069087000000001       0.66905079000000001        0.0000000000000000     
  0.30776597999999999       0.59042684000000001        0.0000000000000000     
  0.29541507000000000       0.57849362000000004        0.0000000000000000     
  0.28335474999999999       0.61970232999999997        0.0000000000000000     
  0.29935165000000002       0.62852803999999995        0.0000000000000000     
  0.28459435999999999       0.64121777000000002        0.0000000000000000     
  0.26698675999999999       0.63435282999999998        0.0000000000000000     
  0.24031983000000001       0.64700659000000005        0.0000000000000000     
  0.33118850000000000       0.50233682999999996        0.0000000000000000     
  0.35257061000000001       0.51072803000000000        0.0000000000000000     
  0.29038973000000001       0.78732479000000000        0.0000000000000000     
  0.28737915000000003       0.76752330999999996        0.0000000000000000     
  0.21978159000000000       0.73315437000000006        0.0000000000000000     
  0.18119734000000001       0.76257752999999995        0.0000000000000000     
  0.20353571000000001       0.75186065999999996        0.0000000000000000     
  0.39122694000000002       0.49007234000000000        0.0000000000000000     
  0.59140473999999998       0.13507609000000001        0.0000000000000000     
  0.53156702000000000        9.7663528999999999E-002   0.0000000000000000     
  0.76346223999999996       0.39657278000000001        0.0000000000000000     
  0.41119013999999998       0.52354409999999996        0.0000000000000000     
   7.2558165999999993E-002  0.26885883999999999        0.0000000000000000     
  0.10497347000000000       0.79895936000000001        0.0000000000000000     
[...]
 CELL_DATA        2963
 SCALARS Tumor_cells float
 LOOKUP_TABLE default
    0.17889789116488710975-125
    0.20822937434506575034E-74
    0.48184663567208131628E-88
    0.54635342008063334431E-88
    0.27674580325887844142E-80
    0.93213994878011891755-109
    0.27561034546190201953-105
    0.48692794167673222212E-68
    0.14328482963650203220-138
    0.11886327619425311292E-17
    0.43789884171406837657E-95
    0.10470768822804128103E-84
    0.69131235547749934369E-96
    0.34096394497200874640E-84
    0.37038238835757987349-136
    0.27211665321405407651E-98
    0.37825184271687980789E-22
    0.28454222397236206088E-96
    0.25986524220408785600-111
    0.14584189387553885583E-71
    0.62968781590221971622E-81
    0.16097847607975200743E-05
    0.71705356982174929537E-02
    0.25916071326144400864E-72
    0.50393362520836910818E-61
    0.24847621711650856631E-56
    0.13534492923475411678E-56
    0.22713933601532395262-114
    0.71189959393367838285E-88
    0.22378368174636458017E-64
    0.41915483311395953562E-38
    0.14682669462151768026-126
    0.10512111616549651663E-77
    0.43405671948147882221E-54
    0.46682123627851837762E-65
    0.31617848711886969538E-54
    0.67884787312363230202E-80
    0.26224822051434538848E-51
    0.18021130048812687563-105
    0.75328187928289695621E-16
    0.19611475044930543180E-98
    0.70039377731314076850E-83
    0.97832210223810268127E-65
    0.20159542160596296462E-61
    0.14725795164998596938-133
    0.20722681934599996844E-39
    0.18455915270945526997-102
    0.62616057919846094554-125
    0.67157585393687902140E-67
    0.18674361926701633634-130
    0.87810955712371466379E-42
    0.58577844610926170910-101
    0.57081809243486573403-101
    0.73460230256976668349E-86
    0.13776227660153537026E-87
    0.10817044116003419958E-43
    0.13210755547820775177-103
    0.65115281898686975886E-44
    0.44161113315416715837E-30
    0.37238934436769368160E-99
    0.47192362970221270697E-32
    0.44722044032218214385E-84
    0.22384208355253108568-129
    0.15287589392729244525-123
    0.26071272735695272784E-87
    0.17286938279241458024E-34
    0.49035147806451545758E-59
    0.38006766343699214314E-33
    0.11234467847741305989E-04
    0.73941983352331767789E-96
    0.19853812387507481631-104
    0.54260576618961410615E-32
    0.89842631185593236181E-87
    0.14257574271971423534E-72
    0.45748996105670981439E-18
    0.57082875862014590706E-18
    0.84577158455564668935E-06
    0.99334056574360097957E-24
    0.34708883612477277333E-95
    0.17155759306283874510E-39
    0.28918765153914743602-122
    0.34745910125270937851E-39
    0.13425450278839128064E-30
    0.26274917596076441949E-12
    0.14331727834083049763E-52
    0.12249519699591352728E-85
    0.68159774868768765257-103
    0.40221766743540551692E-70
    0.37466338401845126700E-66
    0.25894768929459250819-119
    0.26746293418794853457E-76
    0.55567096894473102825E-44
    0.21979663164550829863E-03
    0.18786228020017525970E-41
    0.58564788347395779238E-66
    0.23742744349428472630E-47
    0.36884270696883361991E-07
    0.69514788147638206390E-79
    0.74148710675444058343E-69
    0.63700816023189984263E-90
    0.12282594837228648174-102
    0.17610238604723856979E-73
    0.35371387175782814963E-39
    0.10865078120900726821E-81
    0.20152521194122690732E-21
    0.22015361143741882292-104
    0.70923943234840851617E-82
    0.33843523514703621653-124
    0.90282777783368837900E-42
    0.30863879632994051116E-90
    0.13308625704325134427E-95
    0.18025844395891740766E-95
    0.32059126626116244707-108
    0.36571000438832715907E-93
    0.76600608291447278079-122
    0.15193450272940361113-101
    0.80349515120479891767-128
    0.11590989555820484746-133
    0.35796480022975377276E-14
    0.90606397887113529475E-26
    0.27965534571845762957-101
    0.42374432785209858146-107
    0.12070067572829534776E-91
    0.12507604105715067774E-51
    0.26944300705117430196E-98
    0.18539530471265913145E-56
    0.40913924912875123614-109
    0.97157495233189687046E-37
    0.32169776843623850421E-34
    0.32441057933220030458E-28
    0.61991032273009597319E-59
    0.90768708843682191201E-45
    0.85981232660816990683E-14
    0.18429642488658333638E-56
    0.27501373777391362892E-41
    0.55028874707951089233E-28
    0.24860083045855745360E-28
    0.31656251035803685796E-44
    0.90711082417512588904-104
    0.28487628207978478777E-34
    0.23872300139273603977E-28
    0.14496561040928038590E-60
    0.84147389803565869615E-01
    0.40684206545192687820E-30
    0.88567621494785216730E-35
    0.23281725164868395190E-63
    0.23581716281145795453E-92
    0.27008337980292379783E-61
    0.13446657666748947735-104
    0.56544464558086965876E-35
    0.97642471740268999130E-82
    0.72349457661658187271E-02
    0.62727423160048254961E-33
    0.77826067706894895213E-66
    0.19825708211388610121E-93
    0.22359936158322755096E-77
    0.16456234699183378768E-89
    0.11153298074104056660E-87
    0.94430233225582624493E-99
    0.29555102232310327779E-98
    0.10637395801658067476E-90
    0.55966028136280698359E-95
    0.25633969570057794432E-60
    0.48602758866387165872E-40
    0.37688565163918264898E-87
    0.11485913650867705195E-37
    0.34904622991416215044E-95
    0.19502194550812461393E-46
    0.21366674751471242635E-15
    0.20294568897896030233E-54
    0.32697367055983958203E-09
    0.49286551144564533120E-96
    0.44318995776653776563E-72
    0.32127536713423159464E-44
    0.37924317105940719525E-82
    0.92456562607108571069E-86
    0.78916172130023595833E-73
    0.22844798732087386856E-84
    0.14982715652821563588E-93
    0.32251905150653794742E-98
    0.54003319898521496377E-16
    0.74366055639161130594E-58
    0.28145912330432040040E-52
    0.30510191260091361257-100
    0.11656385463617595929E-79
    0.52463589197302222347E-77
    0.13778223586250293279E-45
    0.18061383755402013445E-53
    0.10105832859094910214E-30
    0.14637406622205512504-101
    0.23195487814251210879E-74
    0.89084596453507878967E-09
    0.76620243842634724163-105
    0.98459661037551906406E-96
    0.71118488097315978013E-21
    0.14691678912324771586E-92
    0.80298409226458323864E-13
    0.19848983098581790617E-47
    0.53613990734878869273E-45
    0.10226846525792553742E-85
    0.35260134852238984490E-56
    0.17995970230605629711E-66
    0.87303552204704218398E-86
    0.69256196741988030077E-42
    0.86015284704826278084E-01
    0.71610751178146192508E-01
    0.71261305868338281884E-49
    0.21739837908865411453E-02
    0.23057877819841015659E-05
    0.28218039811749011825E-94
    0.33641316833812346815E-88
    0.32382572190728549366E-02
    0.11241447079663861863E+00
    0.63765871245662044741-105
    0.66561782734366954235E-80
    0.57902582060882532974E-87
    0.75441943361802756627E-54
    0.40714153561049993083E-41
    0.18990433910529175714E-23
    0.15475434288974667136E-34
    0.48739207876971767488E-72
    0.21690794076959258370E-82
    0.87422104831824100436E-51
    0.83012726816175633506E-32
    0.13257519317507640520E-35
    0.35648546020139405044E-77
    0.43186024361127400959E-41
    0.43082087179317885350E-54
    0.14938681489062343329E-56
    0.13780047901326336033E-37
    0.55046276556069701375E-49
    0.11805057498909421881E-49
    0.46387817829703678753E-90
    0.28267304184315700922E-26
    0.50442096642569994878E-62
    0.57572124230069766651E-33
    0.88047088404159196252-126
    0.33477682913987991062E-17
    0.11180112420779192428E+00
    0.15284134537075721679E-03
    0.38605617901045412236E-38
    0.30741345831731265899E-63
    0.34977447011388576304E-18
    0.30084330127730129533E-13
    0.18139546480809930123E-05
    0.24388992337385099535E-56
    0.50474747859187354710E-28
    0.98861473296498069960E-35
    0.49858219242040219912E-53
    0.58247632293123514914E-09
    0.95538297983557085076E-12
    0.23026406627286862589E-75
    0.19115482297130569150E-53
    0.38543512600444041968E-02
    0.92805910172755473989E-64
    0.15979802213691878633E-68
    0.16508405643285202012E-46
    0.21159692728665471326E-48
    0.14999669207932403083E-07
    0.26104822275121290084E-76
    0.16193020641141805833E-09
    0.25714713666122930002E-11
    0.28527257478894661588E-13
    0.43994506448577996447E-66
    0.49165038873073375177E-06
    0.88837187203312070131E-86
    0.53674238635470859077E-02
    0.10121237903422538824E-09
    0.53291105006634038302E-33
    0.94758560065175168627E-05
    0.42503659429986811007E-77
    0.16018034684952940922E-25
    0.18415346327481351347E-07
    0.20233740792787149595E-30
    0.30302107757920556458E-23
    0.16409491869576862728E-93
    0.11507642714331459506E-63
    0.37219256531328500035E-79
    0.64983682487113167394E-95
    0.35486704571008835278E-28
    0.63558438252042856105-107
    0.17624774183337271346E-39
    0.49046096370077209623E-49
    0.33066710029257796292E-70
    0.17725150924055327020E-25
    0.42847622240872031541-101
    0.73289262072686155066E-15
    0.10936116171008136917E-29
    0.18266797935764722012E-49
    0.88581299033537160108E-68
    0.29183666178078744407E-70
    0.66426259983538943778E-73
    0.65923348890901704365E-25
    0.71464609870570170121-113
    0.75845618580831247969E-59
    0.17986508869366937228E-18
    0.74515437583985752018E-22
    0.28295996950712460697E-84
    0.20063379002078679525E+00
    0.89475073722260210509E-31
    0.94148738248157197321E-57
    0.35826413644263501057E-21
    0.13955964156125538711E-39
    0.43867781389624027622E-58
    0.83829409648298204081E-48
    0.76376374036240587791E-89
    0.99236228074747779275E-17
    0.70077420661814851909E-84
    0.65322561208995041419E-09
    0.15300518953393200221E-30
    0.70897643516757157617E-24
    0.99486350704267750649E-47
    0.14451863920088664981E-32
    0.19866336292770149628E-30
    0.75847746293826262880E-85
    0.64702984770083829990-121
    0.16438796524201112634E-41
    0.32394523097502936172E-43
    0.29808650798771968466E-28
    0.13880842391721724712E-98
    0.12305813533724969708E-48
    0.75034965695029054095E-65
    0.88043834809009215790E-58
    0.25484005732550807842E-98
    0.30800054155050403969-103
    0.10826231498435456037E-52
    0.60530775725245094537E-68
    0.13995718462211488927E-23
    0.67335052750410497000E-51
    0.42296485554438235029E-92
    0.25737789605016693004E-27
    0.45266040929696873047E-37
    0.12655626326342683630E-92
    0.10451156278408774145E-89
    0.39181253405133834683E-55
    0.79375274967816019742E-96
    0.87745092585898478523E-52
    0.10858059376130523804E-43
    0.20905298870799458144E-56
    0.25743668677365618628-103
    0.58612770943747514843E-93
    0.73699890653667293030E-58
    0.75525844296493570742E-53
    0.19715583362703902821E-74
    0.95330057957789976140E-14
    0.66052802982872423996E-21
    0.18900008793738932880E-36
    0.29095071939213050040E-55
    0.77549134673408800384E-90
    0.71971842366902671100-106
    0.72259100821968213666-103
    0.18465220367425948983E-90
    0.45701843849639941148E-93
    0.30411736763094161286E-80
    0.85847663053639989651E-91
    0.90128061193919981598E-90
    0.32276749265030848126E-83
    0.38314225286169676416E-80
    0.51235946201303731358E-75
    0.13252255161917993424E-69
    0.18482149203493776807E-74
    0.60960749331938349203E-72
    0.65900670237440207710E-60
    0.32590882063799747912E-98
    0.55706269059961742154-101
    0.37775186467970556537-100
    0.63057678651512630763E-50
    0.15066846612940341989E-44
    0.13177011557510825979E+00
    0.47139452480755592652E-05
    0.16619158188387625572E-03
    0.72477598322750148505E-02
    0.11972982459442336079E-03
    0.83452186758703528202E-01
    0.14100120878542053942E-03
    0.20157515516001070499E+00
    0.17543016110098008653E+00
    0.24262998617837403027E-05
    0.29554536367065822357E-02
    0.10745818933739243069E-03
    0.98313085636872691447E-02
    0.89910622250542512998E-04
    0.10454772681591486846E-77
    0.56303449495839698559E-82
    0.94762709758258015432E-79
    0.12087602213566835908E-59
    0.35224085594254905553E-42
    0.10231548554901316697E-39
    0.29460067096482877977E-49
    0.15952310546351106857E-39
    0.18271130875002010277E-51
    0.13349833480551996091E-52
    0.30783933011914695601E-55
    0.55616268738868750252E-50
    0.52330722172649477066E-58
    0.95197449564659068473E-58
    0.57649608977418672864E-71
    0.42087717368115403752E-55
    0.22462926507760369630-112
    0.45695933436806097405E-58
    0.13043488812161058439E-28
    0.40236632497874945302E-26
    0.13090724353801099432E-17
    0.40059921131344906738E-20
    0.13700471765937928847-105
    0.23806322545333038386-101
    0.13444831027958893772E-95
    0.58787814598236761231-101
    0.21556172188358921939E-84
    0.87268058764320939057E-88
    0.26463031190323334557E-90
    0.46599482331962575433-102
    0.18507364301173973367E-93
    0.20495606977430930901E-96
    0.85434297830271228790E-14
    0.81902192436135971694E-11
    0.26429617906274306287E-61
    0.35881996722321721142E-26
    0.19425251791860169234E-85
    0.47097324976498305499E-85
    0.14786365916940373325E-85
    0.21297045287593136375E-49
    0.76135772558143216248E-54
    0.20306804923330364614E-07
    0.25493961231091941712E-09
    0.41225576238755952135-118
    0.55836089010870507340-103
    0.43097716482304387776-106
    0.32590957977057447187-115
    0.14027537846986845906-115
    0.53110826664021898346E-85
    0.72985794554345152684E-83
    0.72515409949019750534E-89
    0.10166693574562676748E-83
    0.81989400443151871885E-78
    0.54471262319859518797E-83
    0.99495982549580315381E-89
    0.79907300314546989548-101
    0.50820278017147615090E-92
    0.31637644876055508724E-98
    0.34728805410477522402E-95
    0.11563011353029948001E-92
    0.25797811283026081685E-77
    0.47579480401994205039E-66
    0.81162121411437273828E-75
    0.28889246804795193711E-74
    0.13348352789142959092E-71
    0.11799582668649273386E-71
    0.62374343510372441991E-69
    0.11642511966015494850E-60
    0.15524221599401354350E-74
    0.16249575073669643226E-64
    0.12644517429064583857E-62
    0.42144415766218112915E-54
    0.19942135453466314716E-98
    0.43833794432447448682E-95
    0.17034848191936899638E-32
    0.56542391928693951732E-40
    0.23919028122608218518E-37
    0.40538174417720987582E-37
    0.32854528734175788337E-03
    0.12245943787696831825E-01
    0.11514971528301944093E+00
    0.11454891897760417774E+00
    0.16977888519026554524E-80
    0.28860107413976672416E-89
    0.21099472848840024049E-82
    0.14436725568501708564E-80
    0.72886010428977460704E-77
    0.64601419073318832817E-74
    0.31553931342238478526E-89
    0.18523437699697366451E-68
    0.27671981223035324039E-54
    0.84538514968048791781E-52
    0.75328442013536444053E-66
    0.41673469645727052912E-67
    0.10481038773357518010E-60
    0.21868067511212680798E-52
    0.14061503994016136372E-59
    0.28304523983342670014E-42
    0.28529466280062190666E-54
    0.68539144721119859377E-50
    0.50523925296790321474E-31
    0.42076738917946622933E-22
    0.27173526313143042024E-35
    0.34108675757232665800E-31
    0.22418943686146296145E-24
    0.57495198192032767635E-22
    0.19662955743384165124E-26
    0.25111225431967913304E-29
    0.12696798672695043685E-29
    0.59957383669670903735E-27
    0.14662171587260542934-103
    0.10789919958681203667-100
    0.23925022352682870879-106
    0.36558785417713770485E-93
    0.13266587983461543403E-86
    0.14586338971801990177E-87
    0.35858051783407447621E-07
    0.16800524878921875668E-05
    0.37573930205817132409E-88
    0.67927077184222791761E-80
    0.46575260142708315648E-91
    0.39816242990349260242E-53
    0.30099928887206174676E-52
    0.33420359764910528135-121
    0.76705835933037564049-112
    0.77418175326093074149-119
    0.21124204571176065510E-86
    0.13330965359562683330E-71
    0.93073917980687152990E-72
    0.40654689101441996735E-77
    0.13720664332211803026E-03
    0.75830396554483009419E-01
    0.13723115551667997014E+00
    0.19683380954219639736E+00
    0.55548728862995185514E-78
    0.53388932000192799851E-83
    0.16455860485464969829E-74
    0.31632686400199358963E-79
    0.19745590174790895702E-73
    0.15889378956804391667E-73
    0.57674598673386825208E-76
    0.11291267777211205694E-66
    0.91642078849463180062E-52
    0.60754904446935200801E-47
    0.26516519538486152028E-55
    0.20703164262494897152E-49
    0.13987971327177716055E-48
    0.16457141070686136696E-33
    0.39386974767300849063E-45
    0.18025159908331443094E-42
    0.96229037514578107438E-20
    0.46689600507887536355E-26
    0.86183007654947316910E-24
    0.44331622704401489350E-25
    0.13441099865148313748E-22
    0.14143015021576813291E-21
    0.87099711826071551080E-32
    0.12491304560311246364E-24
    0.42716960650186649176E-34
    0.74352364110263179774E-32
    0.91803650217547894541E-37
    0.12623378175595902669E-48
    0.79748168370019095477E-37
    0.19949019681288952336E-34
    0.35644910990973915341E-36
    0.81661079933824248339E-39
    0.13669751540906689485-101
    0.11911657592912162251-104
    0.21187804730103070498E-98
    0.24544284048714857021-133
    0.31101853861606569734-110
    0.18309191655830298874-101
    0.88189405893506222945E-99
    0.18721105518327310818-104
    0.33554968322771837334E-99
    0.11240048046323180034E-98
    0.53819678260650021140E-93
    0.78355609135951335026E-96
    0.17674186625633168789E-93
    0.16118958562546122719E-89
    0.62609919149392715859E-81
    0.25000821482273171452E-77
    0.26319538757973176802E-75
    0.22002080535307220412E-72
    0.51566429419849627521E-78
    0.96931612921616489763E-86
    0.19188238619002420163E-68
    0.23790951987482243583E-69
    0.85621111198190505420E-01
    0.15124366962159271899E+00
    0.10629148800931779252E-56
    0.12724179695907113099E-64
    0.13041837499967810782E-61
    0.48115280329082469965E-59
    0.36625895288482014919E-66
    0.48333015418975780384E-71
    0.29605473553087308077E-66
    0.54533647654853006270E-58
    0.20586556454302849093E-33
    0.36498629273017844607E-53
    0.48033746575508651340E-46
    0.33230578836530824968E-51
    0.43367607383625297181E-55
    0.45192906112617433758E-50
    0.68895759114352045572E-58
    0.11573553420867366290E-60
    0.65093917992274261100E-45
    0.43822447726046296897E-43
    0.14823548219692069042E-47
    0.27524535313381589419E-40
    0.22248719053039998291E-53
    0.13847077164352044969E-42
    0.58630172494326310975E-38
    0.54855116291956839743E-36
    0.10084142512590431366E-40
    0.30896276730200446922E-38
    0.20925062696599640576E-24
    0.37536226999425896736E-22
    0.21030130576443103503E-19
    0.17432213337196271624E-20
    0.11758590978368245807E-15
    0.59269806042344394437E-16
    0.21869378351391240435E-26
    0.84773541450502566839E-29
    0.33965299576252419216-105
    0.46750462955794499113-113
    0.14475568843012150483E-35
    0.11826170464297736722E-38
    0.39839621595377153200E-58
    0.10519801148056588135E-52
    0.61745765919701800437E-67
    0.47312680971739111766E-49
    0.55725860788911198916E-51
    0.60795945224512366050E-41
    0.87349935663660395295E-59
    0.16264637630194905235E-53
    0.15520701672863558214E-98
    0.97282451831151557244E-93
    0.79566320750998455444E-51
    0.14323830325392205499E-55
    0.89051148837541455939-108
    0.29875294821046595345-101
    0.27185980067165068885-118
    0.92682027153567105503-110
    0.34580856632141797131-104
    0.76715394671091410889E-95
    0.13581081411457105116E-84
    0.13986182212426380475E-78
    0.12849776473013203057E-95
    0.80381992475019340867E-93
    0.11378853170032348190E-81
    0.31427762298103679201E-90
    0.50230572184621703755E-73
    0.22702006444350064665E-81
    0.11141535688140908851E-17
    0.13302357127406121207E-32
    0.54393106221118873550E-24
    0.96632300820248126354E-27
    0.73580295839149729577E-26
    0.21432539997017312378E-34