# vtk DataFile Version 3.0
LAPLACIEN  2D
ASCII
DATASET UNSTRUCTURED_GRID
 POINTS        1616  float
  0.45880792999999997       0.87913892999999999        0.0000000000000000     
  0.40372658000000000       0.18243693000000000        0.0000000000000000     
  0.52563972999999997       0.19039755999999999        0.0000000000000000     
  0.45642953000000003       0.24226190000000000        0.0000000000000000     
  0.51984098000000001       0.24548566999999999        0.0000000000000000     
  0.21212766999999999       0.18957676000000001        0.0000000000000000     
  0.28573643999999998       0.48586826999999999        0.0000000000000000     
  0.49667887999999999       0.82979849000000006        0.0000000000000000     
  0.22848407000000001       0.23366793000000000        0.0000000000000000     
  0.27860389000000002       0.86069733000000004        0.0000000000000000     
  0.36563702999999997       0.80971340999999997        0.0000000000000000     
  0.28045499000000002       0.80393031999999998        0.0000000000000000     
  0.40374228000000001       0.78127665000000002        0.0000000000000000     
  0.56160891999999996       0.55341227999999998        0.0000000000000000     
  0.37210935000000001       0.26787699999999998        0.0000000000000000     
  0.49899838000000002       0.57286409999999999        0.0000000000000000     
  0.41023869000000002       0.33464665999999998        0.0000000000000000     
  0.33484156999999998       0.29151022999999998        0.0000000000000000     
  0.46758665999999999       0.58262307999999996        0.0000000000000000     
  0.43303693999999998       0.36569945999999998        0.0000000000000000     
  0.25741280000000000       0.61805882999999995        0.0000000000000000     
  0.28853707000000001       0.59423020000000004        0.0000000000000000     
  0.67837254000000002       0.45038665999999999        0.0000000000000000     
  0.42159046000000000       0.50697913999999999        0.0000000000000000     
  0.60276470999999998       0.73940291000000002        0.0000000000000000     
  0.30758273000000003       0.77844542000000005        0.0000000000000000     
  0.45367541000000000       0.31842187000000000        0.0000000000000000     
  0.36974101999999998       0.35807864000000000        0.0000000000000000     
  0.26919625000000003       0.65312176000000000        0.0000000000000000     
  0.61908110999999999       0.42741791000000001        0.0000000000000000     
  0.54442267000000000       0.74200747000000000        0.0000000000000000     
  0.58930464999999999       0.41588288000000001        0.0000000000000000     
  0.51511633000000001       0.74331579000000003        0.0000000000000000     
  0.12878382999999999       0.33122940000000001        0.0000000000000000     
  0.15534365000000000       0.71749246000000000        0.0000000000000000     
  0.64877724999999997       0.30161799000000000        0.0000000000000000     
  0.58853643000000000       0.28101930000000003        0.0000000000000000     
  0.56390348000000001       0.30132482999999999        0.0000000000000000     
  0.29605991999999998       0.44474459999999999        0.0000000000000000     
  0.29900669000000002       0.52983276000000001        0.0000000000000000     
  0.55954318999999997       0.48654808999999999        0.0000000000000000     
  0.42341458999999998       0.38785072999999998        0.0000000000000000     
  0.45806291999999998       0.35892998999999998        0.0000000000000000     
  0.47820750000000001       0.31147424000000001        0.0000000000000000     
  0.36344222999999998       0.38139388000000002        0.0000000000000000     
  0.17186508000000000       0.28159534000000003        0.0000000000000000     
  0.18029876000000000       0.33292397000000001        0.0000000000000000     
  0.20696366999999999       0.71822465999999996        0.0000000000000000     
  0.61326404999999995       0.34468346000000000        0.0000000000000000     
  0.29887186999999998       0.42337377999999998        0.0000000000000000     
  0.33271837999999998       0.44383096000000000        0.0000000000000000     
  0.31835012000000001       0.54267131999999996        0.0000000000000000     
  0.54882964999999995       0.45462609999999998        0.0000000000000000     
  0.20448143999999999       0.28717446000000002        0.0000000000000000     
  0.20634120000000000       0.33378063000000002        0.0000000000000000     
  0.23301781999999999       0.71859421999999995        0.0000000000000000     
  0.58606499999999995       0.35199907000000002        0.0000000000000000     
  0.20841100000000001       0.45369578999999999        0.0000000000000000     
  0.24778198000000001       0.77708496000000005        0.0000000000000000     
  0.30748062999999998       0.61002621000000001        0.0000000000000000     
  0.23337332000000000       0.41981835000000001        0.0000000000000000     
  0.25985113999999998       0.75924943000000000        0.0000000000000000     
  0.24610213000000000       0.40254353999999998        0.0000000000000000     
  0.37350351999999998       0.50127178999999999        0.0000000000000000     
  0.43235204999999999       0.78236391000000005        0.0000000000000000     
  0.30749858000000002       0.28582627999999999        0.0000000000000000     
  0.30336816000000000       0.64635111000000001        0.0000000000000000     
  0.31418906000000002       0.43625961000000002        0.0000000000000000     
  0.27223414000000001       0.78063022000000004        0.0000000000000000     
  0.22829299000000000       0.75089561000000005        0.0000000000000000     
  0.26580239000000000       0.42989294000000000        0.0000000000000000     
  0.37369119000000001       0.51975733999999996        0.0000000000000000     
  0.39681665999999999       0.51027884000000001        0.0000000000000000     
  0.32086795000000001       0.65137668999999998        0.0000000000000000     
  0.31757218999999998       0.62987181000000003        0.0000000000000000     
  0.32959777000000001       0.42500900000000003        0.0000000000000000     
  0.24663835000000001       0.74537787000000000        0.0000000000000000     
  0.26354222999999999       0.41075105000000001        0.0000000000000000     
  0.28343712999999998       0.43221330000000002        0.0000000000000000     
  0.34682245000000000       0.43182289000000001        0.0000000000000000     
  0.35306810000000000       0.45344571000000000        0.0000000000000000     
  0.57327218000000002       0.15829040000000000        0.0000000000000000     
  0.51473097999999995       0.12621746000000000        0.0000000000000000     
  0.72829681999999996       0.40151571000000003        0.0000000000000000     
  0.42703184999999999       0.53501600999999999        0.0000000000000000     
  0.32612607999999998       0.75472421999999995        0.0000000000000000     
   9.9814849999999997E-002  0.28081352999999998        0.0000000000000000     
  0.13945825000000001       0.78732252999999996        0.0000000000000000     
  0.44199519999999998       0.38275643999999998        0.0000000000000000     
  0.40132215999999998       0.36508836000000000        0.0000000000000000     
  0.43963142999999999       0.34043466999999999        0.0000000000000000     
  0.47160058999999999       0.33493045999999999        0.0000000000000000     
  0.45615203999999998       0.28038164999999998        0.0000000000000000     
  0.34321279999999998       0.35314412000000001        0.0000000000000000     
  0.29178279000000001       0.56170810000000004        0.0000000000000000     
  0.49833080000000002       0.48416767999999999        0.0000000000000000     
  0.46386271000000001       0.46452802999999998        0.0000000000000000     
  0.44722043000000000       0.45300645000000000        0.0000000000000000     
  0.46562803000000003       0.44419790999999997        0.0000000000000000     
  0.43925322000000000       0.48229485999999999        0.0000000000000000     
  0.49117628000000002       0.45665803999999999        0.0000000000000000     
  0.43435156000000003       0.46523363000000001        0.0000000000000000     
  0.19405754000000000       0.31093060000000000        0.0000000000000000     
  0.22069087000000001       0.66905079000000001        0.0000000000000000     
  0.30776597999999999       0.59042684000000001        0.0000000000000000     
  0.29541507000000000       0.57849362000000004        0.0000000000000000     
  0.28335474999999999       0.61970232999999997        0.0000000000000000     
  0.29935165000000002       0.62852803999999995        0.0000000000000000     
  0.28459435999999999       0.64121777000000002        0.0000000000000000     
  0.26698675999999999       0.63435282999999998        0.0000000000000000     
  0.24031983000000001       0.64700659000000005        0.0000000000000000     
  0.33118850000000000       0.50233682999999996        0.0000000000000000     
  0.35257061000000001       0.51072803000000000        0.0000000000000000     
  0.29038973000000001       0.78732479000000000        0.0000000000000000     
  0.28737915000000003       0.76752330999999996        0.0000000000000000     
  0.21978159000000000       0.73315437000000006        0.0000000000000000     
  0.18119734000000001       0.76257752999999995        0.0000000000000000     
  0.20353571000000001       0.75186065999999996        0.0000000000000000     
  0.39122694000000002       0.49007234000000000        0.0000000000000000     
  0.59140473999999998       0.13507609000000001        0.0000000000000000     
  0.53156702000000000        9.7663528999999999E-002   0.0000000000000000     
  0.76346223999999996       0.39657278000000001        0.0000000000000000     
  0.41119013999999998       0.52354409999999996        0.0000000000000000     
   7.2558165999999993E-002  0.26885883999999999        0.0000000000000000     
  0.10497347000000000       0.79895936000000001        0.0000000000000000     
[...]
 CELL_DATA        2963
 SCALARS Tumor_cells float
 LOOKUP_TABLE default
    0.18925345066400599413E-83
    0.11074385765068963209E-47
    0.49607067004279557389E-57
    0.18246592234945402318E-57
    0.71652100423614826964E-52
    0.86267546644914454054E-72
    0.33571760396689773481E-69
    0.11434073517409223867E-43
    0.64549968464899488372E-94
    0.81055645280618840754E-10
    0.24557477578355210233E-62
    0.15028515948174711000E-54
    0.23548037291768195669E-62
    0.70366455161954801751E-55
    0.14620897193249226737E-91
    0.61781516239281347176E-64
    0.38482085879693449103E-13
    0.99672780884239022609E-63
    0.16174424948154975492E-73
    0.12745770706101428704E-45
    0.18314759456182695011E-52
    0.23698105883957786325E-03
    0.31965367825099857968E-01
    0.21191755964287911687E-46
    0.18887681963469940426E-38
    0.38121583065512432487E-35
    0.82535720532998719705E-36
    0.10323404684767466225E-75
    0.72006976388051361620E-57
    0.22378781543544939161E-40
    0.30030435192146034264E-23
    0.26607176599047498052E-85
    0.41830096071332878906E-50
    0.44085054458123889716E-34
    0.98351531539564549476E-42
    0.13531703316061322437E-33
    0.20003303221047922651E-51
    0.45662975691254958266E-32
    0.46364340822233571364E-70
    0.11420241109914287579E-08
    0.58114538070315876410E-65
    0.12500934657165663931E-53
    0.23539291149608147767E-41
    0.28151029984577509299E-38
    0.45921272557485453840E-89
    0.31035932212234687071E-24
    0.60777756937979688097E-68
    0.58159731795650811034E-83
    0.47265390586532652822E-42
    0.14834327400335853374E-87
    0.53008022284345674747E-26
    0.13212631833479848450E-66
    0.12691710644696823584E-66
    0.10474131596819044265E-55
    0.13920181291845044500E-56
    0.42125916379167779858E-27
    0.20314327163775748463E-68
    0.13753394033564659486E-26
    0.33101691699837263181E-17
    0.83952226072445082220E-65
    0.52870634561960744531E-19
    0.94723546492661082843E-55
    0.10502027459201116097E-85
    0.39352260511078455023E-83
    0.11294474484899307080E-56
    0.56136144134839062673E-21
    0.96837531630693891801E-37
    0.31272985661051685239E-19
    0.17428899976760952369E-02
    0.23485576214575903846E-62
    0.29505285062357862379E-69
    0.25400406894238225437E-19
    0.57496533286481313407E-56
    0.10789100154056501857E-46
    0.12701871273955746482E-10
    0.12377717073230881822E-10
    0.13416706188218557850E-03
    0.23652016142438803336E-13
    0.16024852423836610747E-62
    0.57846435799861435290E-24
    0.39379534588265678334E-81
    0.30654613436234200765E-24
    0.10983163745914750736E-17
    0.63502836328222458219E-07
    0.12945544623667328131E-32
    0.17726243397907488566E-55
    0.14701812790299042611E-67
    0.49641901415292449367E-45
    0.67598433082495959620E-42
    0.55298378227716640588E-79
    0.99517223122129318044E-49
    0.32737077898103104854E-27
    0.46847352596276923761E-02
    0.56412487011095440656E-25
    0.90998932476995111707E-42
    0.42855689388721276430E-29
    0.39057566221233300393E-04
    0.18046782601125521595E-50
    0.90077459977402335880E-44
    0.40514073515539453927E-58
    0.94919360665525409002E-67
    0.92462926364205316131E-47
    0.33600814614671460944E-24
    0.19895659156217760592E-52
    0.16578693111000358296E-12
    0.25905109133753212837E-68
    0.13146740327505979771E-52
    0.35248657817615839368E-82
    0.91054913703301591152E-26
    0.20125233140909837588E-58
    0.44833361797611004325E-62
    0.55599534154441868539E-62
    0.17951536184208043952E-71
    0.16498180328685212795E-60
    0.10950459635465531426E-80
    0.24235225793961783683E-66
    0.61328345717693450402E-85
    0.37936663240733524698E-89
    0.59766204367500051824E-08
    0.35767687571658738869E-15
    0.43512286570410173624E-66
    0.33548663106654445554E-70
    0.87466518456074830924E-60
    0.17642776806021975513E-32
    0.82753884221656737354E-65
    0.12736886276700123827E-35
    0.39814438958721204311E-72
    0.21109777072622962010E-22
    0.62082838510542406698E-21
    0.37301425501454058630E-16
    0.15534483724357699875E-36
    0.22670182963238849176E-27
    0.18883394910408307336E-07
    0.65286428111296279855E-35
    0.15773092321074396780E-25
    0.15040436711170585945E-16
    0.74722813585155214331E-17
    0.14374150108960919097E-27
    0.10005020485758131974E-67
    0.60903045555996750080E-21
    0.29184802462527373721E-16
    0.51236321752662771111E-38
    0.71284370271763278226E-01
    0.77253144433135584014E-18
    0.83576815598695903805E-21
    0.83214875830667075249E-40
    0.10650078004170095654E-59
    0.47462098655732960619E-38
    0.15193052088752693873E-68
    0.98536936712420663343E-22
    0.29834997146814310301E-53
    0.31857716042655276345E-01
    0.91313585850942536802E-20
    0.17263374510097011381E-41
    0.66666586268154125667E-61
    0.95135223498211762596E-50
    0.14610754637075798721E-58
    0.74319095117676597600E-57
    0.16527201622385167626E-64
    0.47289561260903106047E-64
    0.51056927625266771601E-59
    0.12372773041869065639E-61
    0.76498900650542444156E-38
    0.22614037081278899199E-24
    0.34039976895329003646E-56
    0.85011009847834742672E-23
    0.15410089227013740580E-62
    0.29274236131472402999E-28
    0.55551519180413213685E-09
    0.10830980772910459956E-33
    0.24875633652739470773E-05
    0.11705265458506023757E-62
    0.15491668586092723441E-45
    0.13515419450030023865E-27
    0.13123799704181084258E-52
    0.14607909026279304798E-55
    0.66174858143493561729E-47
    0.29414958661698210413E-54
    0.14492767763281064851E-61
    0.10277654851146717451E-64
    0.17469569796920004596E-09
    0.25956450903090801530E-36
    0.19632627477453373715E-32
    0.36431079939071700095E-65
    0.61158083193754678465E-51
    0.39505771702553179782E-49
    0.36843018197707117578E-28
    0.24504493256240673080E-33
    0.21355686009592992265E-18
    0.30660401014210287856E-67
    0.25474647357062223923E-48
    0.75021054402197592743E-05
    0.91254629118876876190E-69
    0.49094821062617333743E-63
    0.57503416571513179461E-12
    0.91767709847268566303E-61
    0.29853080519589089658E-07
    0.34978783304143386416E-29
    0.11691884246867747457E-27
    0.14130402402481388847E-55
    0.98395057686844040950E-35
    0.22634850754800951720E-42
    0.13170472228759359562E-55
    0.43804346749014366274E-26
    0.73054326056507218334E-01
    0.50930963395133622973E-01
    0.18073023476171017516E-30
    0.87501594340455325638E-02
    0.42854496347548938148E-03
    0.14306540640798236704E-61
    0.36381241152461802430E-57
    0.11100001400420993203E-01
    0.10754502040492680548E+00
    0.45699769709784373766E-69
    0.17534440202866674889E-51
    0.52690856368397623288E-56
    0.74379435444856509683E-34
    0.24958349799900752627E-25
    0.11069923761393478554E-13
    0.11434744589938569921E-20
    0.36060263375530345324E-46
    0.13334512552443612690E-53
    0.98644039377228244259E-32
    0.42007730728066242817E-18
    0.78889149547880378354E-21
    0.27369789592893030352E-50
    0.21472976985676356298E-25
    0.22719212561042368346E-33
    0.55542659865690248507E-35
    0.90789532135459078642E-23
    0.58384698290611394339E-30
    0.11726949345679021939E-30
    0.29618758668364957883E-58
    0.13093306776450718602E-15
    0.17460773758569173336E-39
    0.81302620691038908273E-20
    0.14242397957901509222E-83
    0.58931680315375479080E-10
    0.10215789731414035013E+00
    0.42066043872576244778E-02
    0.16026755425364805663E-22
    0.62883815514846729847E-40
    0.38356385159559002081E-10
    0.14916173704097214311E-07
    0.33288949890861987881E-03
    0.26187105900908019013E-35
    0.14279509011049952579E-16
    0.92337522830892030427E-21
    0.77033620818646729351E-33
    0.46062272288577226390E-05
    0.61448953058985149108E-07
    0.15467189891328631718E-48
    0.16732570222236361963E-33
    0.16132749498929125492E-01
    0.11477292046399893237E-39
    0.16560677241191338450E-43
    0.66625526661961917625E-29
    0.66052648017632469895E-30
    0.20671437432853637507E-04
    0.96573718774807190045E-49
    0.15734447345720647772E-05
    0.13759455465106775127E-06
    0.10350106011688932986E-07
    0.76339450829548344550E-42
    0.30072408088728150820E-03
    0.13049556961518580735E-55
    0.24214597129948993437E-01
    0.97679353227724230232E-06
    0.84911929770997441657E-20
    0.12980739075561474865E-02
    0.17950829844096383304E-49
    0.64918439431279844322E-15
    0.23811647475630039580E-04
    0.43435028646122865156E-18
    0.17858354653665710730E-13
    0.81998468978326294049E-61
    0.20377599962123351197E-40
    0.97913156095446914716E-51
    0.32825651846172722487E-62
    0.11362053001170272483E-16
    0.54087325920876707896E-70
    0.78807054491969690257E-24
    0.11350540869308215016E-30
    0.16616135104088000291E-44
    0.76106814377916043904E-15
    0.95377103541245989659E-67
    0.18539385144946567651E-08
    0.21650185715727724001E-17
    0.46558083844897967904E-31
    0.64147318919641088663E-43
    0.14873222105408564282E-44
    0.23925831403744478594E-46
    0.49015224657345079640E-15
    0.35594947470941355299E-74
    0.14895553738929447572E-36
    0.21610027686257938668E-10
    0.77986678259798057206E-13
    0.25909633969183265843E-54
    0.20525012105093792814E+00
    0.33375635442412022005E-19
    0.37724088728207862920E-35
    0.54946041718315890659E-13
    0.12006364326823584222E-24
    0.19547642368728772330E-36
    0.15191578263270489994E-29
    0.78766954604158657162E-58
    0.17473010612992207636E-09
    0.11190985242464632273E-54
    0.57139271323984174039E-05
    0.32247429001089965997E-18
    0.43439086820196853308E-14
    0.28942123598469421709E-29
    0.21240434489391230300E-19
    0.42074886754541642599E-18
    0.98865779508025680767E-55
    0.88127597597673024656E-80
    0.10000745158183099258E-25
    0.13886838956575400888E-26
    0.10682463704753960212E-16
    0.30844277383929737372E-64
    0.22680016656310294029E-30
    0.76080481776477261634E-41
    0.33459302034833334366E-36
    0.55051363310206693571E-64
    0.58586860429570919606E-68
    0.83164566320815983673E-33
    0.10095030864058632727E-43
    0.89713663177257301300E-14
    0.91135587664338831041E-32
    0.32018509360383695776E-60
    0.26925866501122895287E-16
    0.22659844570011043591E-22
    0.10568558954211856372E-60
    0.11476704726121166658E-58
    0.23951492729543759680E-34
    0.33399094089633253389E-63
    0.66687828773465453772E-32
    0.40465553327843131790E-27
    0.14464304182309182528E-35
    0.27509953648577628906E-67
    0.26189467948024210069E-60
    0.32672512877273480303E-36
    0.73267684109106165181E-33
    0.12832922302371314744E-47
    0.45123843296055884332E-08
    0.55826305720913311963E-12
    0.23742256050783102271E-22
    0.15656668010761605392E-34
    0.35170767209955936589E-58
    0.95321486202899653463E-70
    0.12472603208036945735E-67
    0.11817740061774080836E-58
    0.21442310639267520409E-60
    0.90806957789316492438E-52
    0.64111875976969335718E-59
    0.86631684994725265851E-59
    0.56178760996446790589E-54
    0.10994149893933361894E-51
    0.25826874289924187325E-48
    0.66186409034768713016E-44
    0.11142906950275845368E-47
    0.43363051295139849265E-46
    0.32926396775892992084E-38
    0.10368435363766001396E-64
    0.12219948575636803454E-66
    0.78297268179276529023E-66
    0.81388693960796883910E-31
    0.34759558031215315181E-27
    0.13476954939110527554E+00
    0.69819610985444649758E-03
    0.42491930923940473414E-02
    0.27304777379206113253E-01
    0.26800557827281138584E-02
    0.60712067160115047726E-01
    0.43304110623359117621E-02
    0.19714390760166755623E+00
    0.16786792823294380272E+00
    0.46706618034362277006E-03
    0.12179765066628074968E-01
    0.43975828176258252578E-02
    0.34062210124000388833E-01
    0.22538742360506333617E-02
    0.48437105975793512288E-50
    0.11504039089893914697E-52
    0.25992186208080310755E-50
    0.34510353812797511395E-37
    0.11536760509735691205E-25
    0.47998867413304447934E-24
    0.33052079077449838108E-30
    0.74161773710855650675E-24
    0.13743994118754569851E-31
    0.11512801879335457605E-32
    0.22133936558384200869E-34
    0.68801407303262167709E-31
    0.26200182188241925295E-36
    0.40640686455256369622E-36
    0.42916743228893400850E-45
    0.26931639835929231993E-34
    0.10583088754109422789E-73
    0.20602893566586608409E-36
    0.40027817832064704555E-17
    0.60550613167772389171E-15
    0.24865128501722997258E-10
    0.58794647807282291761E-12
    0.84760395048443355511E-69
    0.37319222684398128374E-66
    0.42477884301391080853E-62
    0.88540612813457460836E-66
    0.27896510949918540899E-54
    0.83491086642007274206E-57
    0.17649086306246505675E-58
    0.78382081992756973356E-67
    0.89720063948485995193E-61
    0.69700078878830443760E-63
    0.39204610327811596445E-08
    0.35763235719817736761E-06
    0.73949911266559653908E-39
    0.61661160735568892319E-15
    0.51039339694594086152E-56
    0.18312460659281072664E-55
    0.18518235179323984730E-55
    0.11037530719267417198E-30
    0.43969587568312682746E-33
    0.25394593667775337468E-04
    0.22103337939550257454E-05
    0.12988898404269379332E-78
    0.43540444106984016093E-67
    0.59622474257325138287E-70
    0.95716305469716859503E-76
    0.39038846146486670967E-76
    0.12953771982891423182E-54
    0.15158614516619386681E-53
    0.73419177106182501656E-58
    0.17969664366467526954E-54
    0.29148852043700766677E-50
    0.10932160402635001427E-53
    0.97349615677507814800E-58
    0.18721822340704676933E-66
    0.36340029604405213146E-60
    0.10900408509750019043E-64
    0.15751849280111421260E-62
    0.78089479043054659208E-61
    0.88644208291716324806E-50
    0.65760667189040041101E-42
    0.20153402829607153279E-47
    0.17349175287261796426E-47
    0.11405633475123243438E-45
    0.10144970477260683627E-45
    0.61167648059170123161E-44
    0.29032501955463694222E-38
    0.74069752437724666828E-48
    0.36045849012799790725E-41
    0.44250585246745372671E-40
    0.41922127448757714385E-34
    0.62024949832324332715E-65
    0.19067980367878988971E-62
    0.22674759835708543808E-19
    0.28861887895197953034E-24
    0.15645563423857717212E-22
    0.26652280854654876303E-22
    0.85664327024470698219E-02
    0.50937140416091000739E-01
    0.11828196642622264279E+00
    0.10357316767566492055E+00
    0.46869826365113967715E-52
    0.28927453314746957575E-58
    0.43591684289566934045E-53
    0.46199183428467576222E-52
    0.30859374594334547693E-49
    0.39042872178726821692E-47
    0.20741427185828082150E-57
    0.20686913518070733141E-43
    0.15393728468447995623E-33
    0.66279490791961790379E-32
    0.12608073218663732653E-41
    0.69010918789525878651E-43
    0.37533117646150312197E-38
    0.19464307930213412211E-32
    0.38461976552863120915E-37
    0.93345681338631398918E-26
    0.16282578459098402995E-33
    0.87211937307308572958E-31
    0.11152238197334577820E-18
    0.38942549582198341732E-13
    0.27339373651937226853E-21
    0.80087658809596363773E-19
    0.14091421001142951708E-14
    0.52926931925301743243E-13
    0.94641844227261485074E-16
    0.92711662253062754591E-18
    0.88129859753345234504E-18
    0.32027543307187621699E-16
    0.16189915117844996873E-67
    0.12114036748882339945E-65
    0.18412903353186101609E-69
    0.16565700393775486752E-60
    0.12530965977395349963E-55
    0.13377575666624873047E-56
    0.39033066123480589466E-04
    0.29171119213205099104E-03
    0.82085784521724982982E-58
    0.60706463702211241499E-52
    0.61020796128677903212E-60
    0.44397976680167613424E-33
    0.29955667004580024546E-32
    0.48847269899835612369E-80
    0.53108119707389513915E-74
    0.16345202800162579237E-78
    0.26025707269466661261E-56
    0.16504741118418509143E-46
    0.62944586532794319381E-46
    0.24630957610854659396E-50
    0.38914610405704555540E-02
    0.68546458297006201965E-01
    0.14083653341280302773E+00
    0.19361743320378899114E+00
    0.21978570066815805868E-50
    0.11519811886381434668E-53
    0.10011731713240739315E-47
    0.92596112491798414900E-51
    0.10878810345238781606E-46
    0.83152847133564239092E-47
    0.22506109651534796141E-48
    0.10760017941574701600E-41
    0.74137235774607710778E-32
    0.97643849974913225704E-29
    0.17486993875693669324E-34
    0.23921842067897114679E-30
    0.32369801647880103861E-30
    0.26825728008048796237E-20
    0.10494511101903926141E-27
    0.65975344060597304335E-26
    0.12542156150161123458E-11
    0.19604254795846370866E-15
    0.18405729359523644295E-13
    0.37939944100806588988E-15
    0.17146639385514573776E-13
    0.46173922861171972483E-12
    0.23468683816754847656E-19
    0.93317554963719569321E-15
    0.78875133066406757464E-21
    0.19516854278512275306E-19
    0.12449205150643771935E-22
    0.24738615041626127231E-30
    0.10261535044218521696E-22
    0.36181544181094911912E-21
    0.40746849437867494690E-22
    0.71208435230387920905E-24
    0.21858522484605463291E-66
    0.13962074598933454725E-68
    0.48145311264839610543E-64
    0.86406688818582172542E-89
    0.17645319209754218615E-72
    0.29383291192345331166E-66
    0.20650038213433770018E-64
    0.21240253946394418412E-68
    0.80172360076682425966E-65
    0.25533948156993739710E-64
    0.24758520422388463248E-60
    0.25905073243655010841E-62
    0.85278466454715665328E-61
    0.10482880961759959296E-57
    0.15708261751414192743E-52
    0.83701413983331080459E-50
    0.11787804735742330670E-48
    0.13889704015398442404E-46
    0.16286722185214222387E-50
    0.23456203958271171798E-56
    0.33457605564042913104E-44
    0.21162461169934167885E-44
    0.81397266869531414990E-01
    0.15967771685691481420E+00
    0.41322453275779635371E-35
    0.17603860632534548801E-40
    0.25143386477424976250E-38
    0.13244918856839276108E-36
    0.94174693969146504107E-42
    0.36609196744768718381E-45
    0.49668625876114432262E-42
    0.25368564764919928196E-36
    0.31620020088530048851E-20
    0.37341672211852545940E-33
    0.15095855525404494141E-28
    0.46923955774918393814E-32
    0.27327639963479883405E-34
    0.59731820438961141107E-31
    0.30705910714047125271E-36
    0.36616715713454287661E-38
    0.16853008262398079878E-27
    0.18292767024611447000E-26
    0.27592095764804685602E-29
    0.14602405293059467359E-24
    0.25661105830479316252E-33
    0.51001330683257440879E-26
    0.44165812581359672701E-23
    0.64175276437763711579E-22
    0.60755897796961986285E-25
    0.24846906380980874765E-23
    0.14195567710432093100E-14
    0.41194729590917440122E-13
    0.96799182429590584321E-11
    0.32125695494355445061E-12
    0.11383476075499605154E-08
    0.18256312583724003531E-09
    0.96371523987816391211E-16
    0.28453548769366509897E-17
    0.42092711128098631707E-69
    0.22686850229063659039E-74
    0.15670302891575183573E-21
    0.99126337121135523822E-24
    0.20741584375659191533E-36
    0.97311634679587718525E-33
    0.10974963148413971877E-42
    0.10735503583977557006E-30
    0.78626058059272818961E-32
    0.35213773295097728285E-25
    0.40723029718229761562E-37
    0.15447491161390287479E-33
    0.36746736139950220713E-64
    0.44577452032927402164E-60
    0.12555949666965152783E-31
    0.10617681891681956083E-34
    0.77165579161686085838E-71
    0.49785408993961916328E-66
    0.56221383012938625228E-78
    0.55458448331787483692E-72
    0.42539303553257742973E-68
    0.25249181163132771435E-61
    0.12629473825201644891E-54
    0.25242819347325810008E-50
    0.29012649872457010540E-62
    0.26981254961041613343E-60
    0.14737386097499135798E-52
    0.14786714765675418715E-58
    0.17923519179707458776E-46
    0.29196802210154518690E-52
    0.23132718583576232816E-10
    0.33767792960038829390E-20
    0.38564937937261566630E-14
    0.70627563910781311396E-16
    0.55188131523462805542E-16
    0.35663106297408086331E-21