# vtk DataFile Version 3.0
LAPLACIEN  2D
ASCII
DATASET UNSTRUCTURED_GRID
 POINTS        1616  float
  0.45880792999999997       0.87913892999999999        0.0000000000000000     
  0.40372658000000000       0.18243693000000000        0.0000000000000000     
  0.52563972999999997       0.19039755999999999        0.0000000000000000     
  0.45642953000000003       0.24226190000000000        0.0000000000000000     
  0.51984098000000001       0.24548566999999999        0.0000000000000000     
  0.21212766999999999       0.18957676000000001        0.0000000000000000     
  0.28573643999999998       0.48586826999999999        0.0000000000000000     
  0.49667887999999999       0.82979849000000006        0.0000000000000000     
  0.22848407000000001       0.23366793000000000        0.0000000000000000     
  0.27860389000000002       0.86069733000000004        0.0000000000000000     
  0.36563702999999997       0.80971340999999997        0.0000000000000000     
  0.28045499000000002       0.80393031999999998        0.0000000000000000     
  0.40374228000000001       0.78127665000000002        0.0000000000000000     
  0.56160891999999996       0.55341227999999998        0.0000000000000000     
  0.37210935000000001       0.26787699999999998        0.0000000000000000     
  0.49899838000000002       0.57286409999999999        0.0000000000000000     
  0.41023869000000002       0.33464665999999998        0.0000000000000000     
  0.33484156999999998       0.29151022999999998        0.0000000000000000     
  0.46758665999999999       0.58262307999999996        0.0000000000000000     
  0.43303693999999998       0.36569945999999998        0.0000000000000000     
  0.25741280000000000       0.61805882999999995        0.0000000000000000     
  0.28853707000000001       0.59423020000000004        0.0000000000000000     
  0.67837254000000002       0.45038665999999999        0.0000000000000000     
  0.42159046000000000       0.50697913999999999        0.0000000000000000     
  0.60276470999999998       0.73940291000000002        0.0000000000000000     
  0.30758273000000003       0.77844542000000005        0.0000000000000000     
  0.45367541000000000       0.31842187000000000        0.0000000000000000     
  0.36974101999999998       0.35807864000000000        0.0000000000000000     
  0.26919625000000003       0.65312176000000000        0.0000000000000000     
  0.61908110999999999       0.42741791000000001        0.0000000000000000     
  0.54442267000000000       0.74200747000000000        0.0000000000000000     
  0.58930464999999999       0.41588288000000001        0.0000000000000000     
  0.51511633000000001       0.74331579000000003        0.0000000000000000     
  0.12878382999999999       0.33122940000000001        0.0000000000000000     
  0.15534365000000000       0.71749246000000000        0.0000000000000000     
  0.64877724999999997       0.30161799000000000        0.0000000000000000     
  0.58853643000000000       0.28101930000000003        0.0000000000000000     
  0.56390348000000001       0.30132482999999999        0.0000000000000000     
  0.29605991999999998       0.44474459999999999        0.0000000000000000     
  0.29900669000000002       0.52983276000000001        0.0000000000000000     
  0.55954318999999997       0.48654808999999999        0.0000000000000000     
  0.42341458999999998       0.38785072999999998        0.0000000000000000     
  0.45806291999999998       0.35892998999999998        0.0000000000000000     
  0.47820750000000001       0.31147424000000001        0.0000000000000000     
  0.36344222999999998       0.38139388000000002        0.0000000000000000     
  0.17186508000000000       0.28159534000000003        0.0000000000000000     
  0.18029876000000000       0.33292397000000001        0.0000000000000000     
  0.20696366999999999       0.71822465999999996        0.0000000000000000     
  0.61326404999999995       0.34468346000000000        0.0000000000000000     
  0.29887186999999998       0.42337377999999998        0.0000000000000000     
  0.33271837999999998       0.44383096000000000        0.0000000000000000     
  0.31835012000000001       0.54267131999999996        0.0000000000000000     
  0.54882964999999995       0.45462609999999998        0.0000000000000000     
  0.20448143999999999       0.28717446000000002        0.0000000000000000     
  0.20634120000000000       0.33378063000000002        0.0000000000000000     
  0.23301781999999999       0.71859421999999995        0.0000000000000000     
  0.58606499999999995       0.35199907000000002        0.0000000000000000     
  0.20841100000000001       0.45369578999999999        0.0000000000000000     
  0.24778198000000001       0.77708496000000005        0.0000000000000000     
  0.30748062999999998       0.61002621000000001        0.0000000000000000     
  0.23337332000000000       0.41981835000000001        0.0000000000000000     
  0.25985113999999998       0.75924943000000000        0.0000000000000000     
  0.24610213000000000       0.40254353999999998        0.0000000000000000     
  0.37350351999999998       0.50127178999999999        0.0000000000000000     
  0.43235204999999999       0.78236391000000005        0.0000000000000000     
  0.30749858000000002       0.28582627999999999        0.0000000000000000     
  0.30336816000000000       0.64635111000000001        0.0000000000000000     
  0.31418906000000002       0.43625961000000002        0.0000000000000000     
  0.27223414000000001       0.78063022000000004        0.0000000000000000     
  0.22829299000000000       0.75089561000000005        0.0000000000000000     
  0.26580239000000000       0.42989294000000000        0.0000000000000000     
  0.37369119000000001       0.51975733999999996        0.0000000000000000     
  0.39681665999999999       0.51027884000000001        0.0000000000000000     
  0.32086795000000001       0.65137668999999998        0.0000000000000000     
  0.31757218999999998       0.62987181000000003        0.0000000000000000     
  0.32959777000000001       0.42500900000000003        0.0000000000000000     
  0.24663835000000001       0.74537787000000000        0.0000000000000000     
  0.26354222999999999       0.41075105000000001        0.0000000000000000     
  0.28343712999999998       0.43221330000000002        0.0000000000000000     
  0.34682245000000000       0.43182289000000001        0.0000000000000000     
  0.35306810000000000       0.45344571000000000        0.0000000000000000     
  0.57327218000000002       0.15829040000000000        0.0000000000000000     
  0.51473097999999995       0.12621746000000000        0.0000000000000000     
  0.72829681999999996       0.40151571000000003        0.0000000000000000     
  0.42703184999999999       0.53501600999999999        0.0000000000000000     
  0.32612607999999998       0.75472421999999995        0.0000000000000000     
   9.9814849999999997E-002  0.28081352999999998        0.0000000000000000     
  0.13945825000000001       0.78732252999999996        0.0000000000000000     
  0.44199519999999998       0.38275643999999998        0.0000000000000000     
  0.40132215999999998       0.36508836000000000        0.0000000000000000     
  0.43963142999999999       0.34043466999999999        0.0000000000000000     
  0.47160058999999999       0.33493045999999999        0.0000000000000000     
  0.45615203999999998       0.28038164999999998        0.0000000000000000     
  0.34321279999999998       0.35314412000000001        0.0000000000000000     
  0.29178279000000001       0.56170810000000004        0.0000000000000000     
  0.49833080000000002       0.48416767999999999        0.0000000000000000     
  0.46386271000000001       0.46452802999999998        0.0000000000000000     
  0.44722043000000000       0.45300645000000000        0.0000000000000000     
  0.46562803000000003       0.44419790999999997        0.0000000000000000     
  0.43925322000000000       0.48229485999999999        0.0000000000000000     
  0.49117628000000002       0.45665803999999999        0.0000000000000000     
  0.43435156000000003       0.46523363000000001        0.0000000000000000     
  0.19405754000000000       0.31093060000000000        0.0000000000000000     
  0.22069087000000001       0.66905079000000001        0.0000000000000000     
  0.30776597999999999       0.59042684000000001        0.0000000000000000     
  0.29541507000000000       0.57849362000000004        0.0000000000000000     
  0.28335474999999999       0.61970232999999997        0.0000000000000000     
  0.29935165000000002       0.62852803999999995        0.0000000000000000     
  0.28459435999999999       0.64121777000000002        0.0000000000000000     
  0.26698675999999999       0.63435282999999998        0.0000000000000000     
  0.24031983000000001       0.64700659000000005        0.0000000000000000     
  0.33118850000000000       0.50233682999999996        0.0000000000000000     
  0.35257061000000001       0.51072803000000000        0.0000000000000000     
  0.29038973000000001       0.78732479000000000        0.0000000000000000     
  0.28737915000000003       0.76752330999999996        0.0000000000000000     
  0.21978159000000000       0.73315437000000006        0.0000000000000000     
  0.18119734000000001       0.76257752999999995        0.0000000000000000     
  0.20353571000000001       0.75186065999999996        0.0000000000000000     
  0.39122694000000002       0.49007234000000000        0.0000000000000000     
  0.59140473999999998       0.13507609000000001        0.0000000000000000     
  0.53156702000000000        9.7663528999999999E-002   0.0000000000000000     
  0.76346223999999996       0.39657278000000001        0.0000000000000000     
  0.41119013999999998       0.52354409999999996        0.0000000000000000     
   7.2558165999999993E-002  0.26885883999999999        0.0000000000000000     
  0.10497347000000000       0.79895936000000001        0.0000000000000000     
[...]
 CELL_DATA        2963
 SCALARS Endothelial_cells float
 LOOKUP_TABLE default
    0.10918928728842514086E+01
    0.10759535421952104439E+01
    0.10817253543468292598E+01
    0.10875903555027903735E+01
    0.10850366076667383730E+01
    0.10893390944791985220E+01
    0.10903853809896488780E+01
    0.10753614427137798693E+01
    0.10927517818563885488E+01
    0.24558815013545563292E-06
    0.10858588571897413999E+01
    0.10767857717034616805E+01
    0.10871550726891079375E+01
    0.10822612110955511788E+01
    0.10927674589140954353E+01
    0.10877887113927475760E+01
    0.24500047704413546568E-06
    0.10861811690306983902E+01
    0.10886808415545969897E+01
    0.10402508580415343875E+01
    0.10723795099749890980E+01
    0.24941817946982946039E-06
    0.93124375281816076239E-02
    0.10479637966690023010E+01
    0.50434392355189128221E+00
    0.95693525145994007275E+00
    0.10474343873214682077E+01
    0.10896522374653951903E+01
    0.10808668186891632335E+01
    0.42224149072475486433E-02
    0.95018736222275501646E+00
    0.10925623615535382527E+01
    0.10650172093170424681E+01
    0.23885599733819892765E+00
    0.10781010216949848957E+01
    0.39588093285782988140E+00
    0.10717639243337431232E+01
    0.30808467250311474643E-02
    0.28481478710806179544E+00
    0.70228113256204383053E+00
    0.33687354584366689669E-01
    0.10863409679006168496E+01
    0.10177022606852499376E+01
    0.33399762551693371049E-01
    0.10927485918935049281E+01
    0.28216077011455625031E-06
    0.40229763858337347360E+00
    0.10924792681979174080E+01
    0.10000879993097369376E-02
    0.10927279156906815061E+01
    0.11894441519771757490E-04
    0.24625545447527898422E-06
    0.25503276693148764071E-06
    0.24369636275443348247E-06
    0.10808630450469247641E+01
    0.89073350348121027587E+00
    0.58070770962947056149E-02
    0.28117765786712017952E-06
    0.22828413702582378651E-06
    0.10888112533582796626E+01
    0.24539660630151877863E-06
    0.10794347063969254030E+01
    0.10921825290583278001E+01
    0.10925402654748066489E+01
    0.10852459040961028869E+01
    0.24745161938945008453E-06
    0.10379253487259445521E+01
    0.24434948261835047727E-06
    0.11951952245381656237E+01
    0.10872136171151900452E+01
    0.92707159149572476720E-01
    0.24686286751209949589E-06
    0.35706685029460133451E+00
    0.10529703493950584026E+01
    0.24509289074475671765E-06
    0.24847372906948277607E-06
    0.24922228343655747302E-06
    0.24650575693903841924E-06
    0.37033183306235198793E-06
    0.25014313252492391421E-06
    0.10925860726550427060E+01
    0.30885770520422611600E-05
    0.24533944942068718335E-06
    0.23398271293669498364E-06
    0.76649803051191830149E-03
    0.10734845427289969599E+01
    0.10844821615569681938E+01
    0.10424074475754081526E+01
    0.87691245310354981601E+00
    0.10912559276167042022E+01
    0.10541430355469005864E+01
    0.31620704412513252662E-05
    0.15169615630318186977E-02
    0.24598496100311684916E-06
    0.35276936178529361143E+00
    0.50475525168609968363E-04
    0.24771420219917935621E-06
    0.10628343541572566888E+01
    0.13596620909201137029E-03
    0.10840029183632118315E+01
    0.48059654649802985293E+00
    0.10262009358249573054E+01
    0.53112883227828956820E-05
    0.10724873415364224449E+01
    0.77149664599842326940E+00
    0.10890144031130364333E+01
    0.10731176003736999647E+01
    0.10912121445484763704E+01
    0.56030990910636151033E-06
    0.10838115269763777260E+01
    0.10845265671627088988E+01
    0.10862955651473331642E+01
    0.99810076178933326840E+00
    0.10865596319912764756E+01
    0.10918144792250985553E+01
    0.10879612920260717246E+01
    0.10921459898885430562E+01
    0.10923456071906951781E+01
    0.24157796986803752576E-06
    0.23548091405299582913E-06
    0.10854507410386509125E+01
    0.10901914848313469797E+01
    0.24639252518445547865E-06
    0.11472196042600250887E+00
    0.24829215592877775829E-06
    0.57661583227399448859E+00
    0.10889025019429741103E+01
    0.26330761942793368298E-06
    0.88019120637280745534E+00
    0.24582005238463140481E-06
    0.40693529196300417945E-06
    0.81137136008252679280E-06
    0.73451557656733212909E+00
    0.28354795081261428912E-06
    0.86628571441827217914E+00
    0.24180911636058927316E-06
    0.24439141887375920781E-06
    0.96476627164238537571E+00
    0.10894802487732688778E+01
    0.88960927282830071228E+00
    0.23911117621326034985E-06
    0.24628845785552074682E-02
    0.16822240955759115710E+01
    0.24456105329109136485E-06
    0.24496485068955253737E-06
    0.26746543990209948986E-03
    0.10790236153561894028E+01
    0.19972485331392669267E-05
    0.10893165954836292464E+01
    0.74406292203472135238E+00
    0.10816524215509875084E+01
    0.15892423782581417413E+01
    0.24428773613230630022E-06
    0.17633244948903918289E-02
    0.38281387885461941887E-03
    0.35677925842190404475E-06
    0.24834302261974210095E-06
    0.27981013398079195367E-02
    0.41872402498095077743E-03
    0.83455443414636178395E-04
    0.20557990301245648163E-02
    0.41936235356129258900E+00
    0.56813964263194099980E-01
    0.96333662647644857646E+00
    0.10819820186468560586E+01
    0.24844960496831871894E-06
    0.24411026652860694370E-06
    0.25930093928243399497E-06
    0.24774025697377691816E-06
    0.31636736082719239046E-06
    0.26009590657863698384E-06
    0.22444011044920929646E-02
    0.30961367230078212125E-04
    0.12861120269823909934E-03
    0.25047188465472983686E-06
    0.24411700467679338304E-06
    0.10532993805377810492E+01
    0.10775098309093793514E+01
    0.10882221965370655337E+01
    0.24669176306859504111E-06
    0.24737255175614441954E-06
    0.90128409645749044121E-01
    0.51834583586456672855E+00
    0.10887415396310231586E+01
    0.29616748666286545585E-06
    0.70201281100942398628E-06
    0.91969868493072615134E+00
    0.97587353290081768620E+00
    0.24559974809910636338E-06
    0.21581218751707400422E-01
    0.10819102956052444320E+01
    0.88860466396184234483E+00
    0.10872772631813123478E+01
    0.24885585739429354494E-06
    0.77230370322864638766E+00
    0.24614368244036276274E-06
    0.81522523402142532678E+00
    0.64618148862059201809E-05
    0.93324330697184887384E+00
    0.24547638283687009038E-06
    0.30724901202489152130E+00
    0.30495737078709291012E-01
    0.10786370613765410287E+01
    0.25896891933045065154E-04
    0.11127201992593616087E+01
    0.55791589862971957547E+00
    0.40344664761866351607E-03
    0.10633813142488451886E+00
    0.10986482295044546209E+01
    0.24599832296507207758E-06
    0.24170163898445156221E-06
    0.28310392117789892232E-05
    0.30143993901862620177E-01
    0.10906511587611724678E+01
    0.10790982011807987995E+01
    0.10791036429027365262E+01
    0.40546674924891512592E+00
    0.97870183460143822529E+00
    0.78444687692880255003E+00
    0.24460491226807452993E-06
    0.10766832761966722565E+01
    0.10819403531020772569E+01
    0.10228668250896164604E+01
    0.23244929126378441914E-06
    0.24957472394126764977E-06
    0.10833730291527270406E+01
    0.97894364749973949991E+00
    0.49973001407521623713E-05
    0.12799452343798015194E-05
    0.95036013859199941489E+00
    0.35612953292541514914E-06
    0.66672518429390403849E+00
    0.10841899773674497087E+01
    0.82239484397421613870E+00
    0.81621543411647734523E+00
    0.90221412990342619853E+00
    0.10914563295825432387E+01
    0.75912163380532748924E+00
    0.46748261914436883835E+00
    0.13251172109318132275E+01
    0.24664241009309918877E-06
    0.60348162564672321387E-02
    0.68684269225044691787E+00
    0.78742206362930611263E+00
    0.94673206452410823109E-06
    0.95341110238865300897E+00
    0.84639157460462477456E+00
    0.24471166689727373432E-06
    0.91844876857810975324E+00
    0.89847940531231729189E+00
    0.24731051424350330525E-06
    0.10604710120341109825E+01
    0.98863408782343986658E+00
    0.15415156457266017132E+01
    0.91879807559487443677E-05
    0.84748149325629418271E+00
    0.49136322204708760377E-04
    0.92759967557727329712E+00
    0.42646172361582463545E-06
    0.10464189778036248057E+01
    0.25410801725089089116E-06
    0.23493671949296046426E-06
    0.24169818752929923029E-06
    0.11140047314147684138E-02
    0.12365117366403082747E-04
    0.24478617707262419383E-06
    0.16065816328895814458E+01
    0.24478293957573493090E-06
    0.44573855671728229710E+00
    0.33390983250409334926E-03
    0.10661854828370684878E+01
    0.81924958671422187795E+00
    0.27000210535230045312E-06
    0.35217499950174702139E-01
    0.40319152717595907465E+00
    0.10845403872197509898E+01
    0.13367836309403524631E-01
    0.10664369047860347006E+01
    0.24822888911247802107E-06
    0.30617219569971093477E-04
    0.10889584215582444049E+01
    0.24066663010063741534E-06
    0.10277455776471511317E+01
    0.89562250192569925478E+00
    0.25643278739861928052E-02
    0.24421889660157430481E-06
    0.77860451115895523699E+00
    0.28134799312826369675E-03
    0.89565552642660428706E+00
    0.10258476761794570464E+01
    0.10632351746339212539E+01
    0.10654346070190816587E+01
    0.64291178234939549974E+00
    0.10909887952092303109E+01
    0.98086539780082221407E-01
    0.68473769718123356220E+00
    0.36932171489602617807E-05
    0.98466018923859505163E-01
    0.20566474641967023018E+01
    0.63447338118733853651E+00
    0.26435971865049055773E-01
    0.52024706346947835467E+00
    0.82466331770112843991E+00
    0.10084744160133012336E+01
    0.94826831582972859191E+00
    0.24631882217758719372E-06
    0.72369381746367825170E-02
    0.19556975914965621377E-01
    0.96644871481516298397E-06
    0.75616079753516762807E+00
    0.23971755059661960592E-06
    0.94942671360477256300E-03
    0.78307527882730609825E+00
    0.39984614792190231736E+00
    0.10791788666599042568E+01
    0.10918665096449682306E+01
    0.31887302292179984218E-04
    0.89757669736963563434E+00
    0.71866643421415810078E+00
    0.10880630498966410435E+01
    0.95417403871422790118E+00
    0.10488778179919355793E+01
    0.10187112018525332768E+01
    0.10850499726040732096E+01
    0.10872312053458408343E+01
    0.99934674417105906485E+00
    0.10630770714987338721E+01
    0.67189802871248360816E+00
    0.97522095707254852215E+00
    0.10788332019054609479E+01
    0.24539890043356757223E-06
    0.24579467057656365967E-06
    0.10852135962650593104E+01
    0.10847041823387493231E+01
    0.13498382720883311554E-02
    0.19377030962763015093E-01
    0.25959068218732662640E-06
    0.89876823096857927364E+00
    0.10089319312445912402E+01
    0.10864575919912273783E+01
    0.10861315506684916521E+01
    0.10053936142384802821E+01
    0.90998021724609789995E+00
    0.10757861302185915964E+01
    0.24652258186168090514E-06
    0.40058400373555003160E+00
    0.44585965475802959616E-06
    0.10110177797120500909E+01
    0.10501877568352429027E+01
    0.10886051117052486514E+01
    0.10883803130470837139E+01
    0.10846530067755961735E+01
    0.10854578564475667601E+01
    0.25437309109646975697E-06
    0.24471987772580989398E-06
    0.24711425690165643507E-06
    0.62496069571092035000E-06
    0.26685336246724561192E-06
    0.21948501830020555028E-05
    0.15075107299431910607E-03
    0.17997678330846105472E-05
    0.22794038211854069688E-04
    0.26486059106639231464E+00
    0.56017743513760436154E-03
    0.24919213515814802498E-06
    0.98863733013786444153E-05
    0.67838155794809233213E-04
    0.13368784034321468605E-05
    0.22753565191030467041E+01
    0.69555398063126061504E-04
    0.45541663868357112888E+00
    0.11553355149150295808E-01
    0.62612367460009284506E-02
    0.16112488420208950779E+00
    0.11133453638597206048E+01
    0.19349639785479713083E+01
    0.12681808735982418312E+01
    0.10946024589534103445E-04
    0.89049712251734425283E+00
    0.14964466396607312149E+01
    0.40273435196349224863E-01
    0.20727934622568263703E-03
    0.10659622959703216605E+01
    0.10732804330740948195E+01
    0.10627256155197812859E+01
    0.25590333013079247237E+00
    0.37559712839850535027E-06
    0.25238332534273730242E-06
    0.36709083641122013434E-04
    0.25362525970707047654E-06
    0.18181748502175524174E-05
    0.17653568581897820309E-03
    0.52847418920337754311E-04
    0.14424601425790098264E-04
    0.35233710012073579665E-03
    0.85059327161002545176E-02
    0.85161448851758125844E+00
    0.41089535395499232270E-02
    0.10888201671670003634E+01
    0.52950471784226127436E-01
    0.24544327631788842591E-06
    0.24481031681404489304E-06
    0.24655733198103272416E-06
    0.24620225307955226356E-06
    0.10896207192328160041E+01
    0.10887672911548988974E+01
    0.10868603435090042897E+01
    0.10759122125614359877E+01
    0.10756852214160390613E+01
    0.10811282410714353475E+01
    0.10834587993323705479E+01
    0.10892381088704337078E+01
    0.10854366610505172819E+01
    0.10873462566749461100E+01
    0.24593061439838064823E-06
    0.23822766508597523039E-06
    0.10478975366734726293E+01
    0.24485685054162155174E-06
    0.10867877634439901957E+01
    0.10834437362550815021E+01
    0.10874278375680903608E+01
    0.89468323818934814007E+00
    0.95697099431785681567E+00
    0.24912888125932064432E-06
    0.24792032170701491923E-06
    0.10908609285923622778E+01
    0.99291845047681281944E+00
    0.10884030536339781570E+01
    0.10903580973854352099E+01
    0.10913688837287451872E+01
    0.24760780884303656087E-06
    0.24598752425326127556E-06
    0.24542331736481168907E-06
    0.24921610539189976124E-06
    0.42698186074488813223E-06
    0.24696363314662614711E-06
    0.24583392070793447104E-06
    0.24930781955755226750E-06
    0.24683442708978693406E-06
    0.24787405171294243006E-06
    0.24646533293048370888E-06
    0.24723388583858880492E-06
    0.12248001179265913737E-04
    0.22440241335024394172E-02
    0.37439200444570218455E-05
    0.25231698692728205333E-05
    0.18242160434033919287E-04
    0.16223176945589237269E-04
    0.30062805750138499664E-03
    0.77121290092107330771E-01
    0.14885883254401390289E-03
    0.82894512496402916746E+00
    0.35499838405801448227E+00
    0.80375856009581225781E+00
    0.24613635348135491198E-06
    0.24484715624586547971E-06
    0.24490119644817362921E-06
    0.29963901803765568318E-06
    0.24432979534632897069E-06
    0.24546555070848815344E-06
    0.15888489871502935458E+01
    0.15907146989734495257E+01
    0.19755234264676746481E+01
    0.17953395587672713596E+01
    0.10719491098727014222E+01
    0.10820834148437126210E+01
    0.10744287177135358746E+01
    0.10728957311416855713E+01
    0.10636114977446164964E+01
    0.10505850715719800004E+01
    0.10782557272749424548E+01
    0.85397052161099196166E+00
    0.15261409394281420966E-02
    0.39494743325348531876E-03
    0.75590112800937914184E+00
    0.10284468596845739441E+01
    0.21928018267747817482E+00
    0.32110691773170373445E-02
    0.86797220560925661403E-01
    0.39554795121526828536E-06
    0.50955507368271434759E-02
    0.38492981754685432535E-03
    0.24704281449124778004E-06
    0.24409231924150434517E-06
    0.24418082005181535137E-06
    0.24875457346516510275E-06
    0.24347125423133077775E-06
    0.24711411441443192785E-06
    0.24628964543439602930E-06
    0.24819976855674932118E-06
    0.24603358562853340823E-06
    0.24811687536555683543E-06
    0.10480813755587543579E+01
    0.10695769169543942745E+01
    0.10899896029486748628E+01
    0.10856441977630426621E+01
    0.10746116840140251814E+01
    0.10804636797520033031E+01
    0.70918927757728004286E-06
    0.85335288163042136188E-05
    0.10865043171656736387E+01
    0.10808620138138758104E+01
    0.10884160242386222706E+01
    0.93779188448735495420E+00
    0.94904612137107546843E+00
    0.10909558081702881438E+01
    0.10891884904985689175E+01
    0.10912588640034019960E+01
    0.44009960048241592379E-06
    0.11690600260686380418E+00
    0.78469556426029134482E-03
    0.33371797779070261347E+00
    0.14241849320399335710E+01
    0.15768242718433793659E+01
    0.21693661870366995892E+01
    0.23017343711273365869E+01
    0.10681716326729748801E+01
    0.10750509182597096647E+01
    0.10606169930269151447E+01
    0.10674028486848330388E+01
    0.10285944962481037290E+01
    0.98465673345167781250E+00
    0.10493772043025437757E+01
    0.52732767181098594289E+00
    0.73366909282010983259E-03
    0.11533171322525947227E-04
    0.30637786819883851969E-01
    0.12380275917388784885E-03
    0.23112160499759524645E-03
    0.25050899439329570272E-06
    0.73796092148573457894E-05
    0.77458374778646445829E-06
    0.24651932615665625884E-06
    0.24349178295925308416E-06
    0.24289045310935208777E-06
    0.24613389675753390305E-06
    0.24385382425003036622E-06
    0.24487726191530387904E-06
    0.25038467914612014693E-06
    0.24655378254482329334E-06
    0.28666401231606975770E-06
    0.24886946069862078838E-06
    0.67649433161547349438E-06
    0.21011019063805053825E-01
    0.47425680585338073487E-06
    0.27579213647892521581E-06
    0.31244352854187481946E-06
    0.28465342363993856430E-05
    0.10889941506845708385E+01
    0.10897948895505700229E+01
    0.10879538232781402751E+01
    0.10922275034384663073E+01
    0.10908676386017601700E+01
    0.10888798367846597159E+01
    0.10881336196610622569E+01
    0.10897694605211454277E+01
    0.10881578627725165820E+01
    0.10879265297072331364E+01
    0.10852485974592165352E+01
    0.10866644659859736599E+01
    0.10854372218434726882E+01
    0.10800755837154052408E+01
    0.27526501590846006611E-06
    0.52399983214859442542E-03
    0.46497529265248065816E-02
    0.27511186772566604414E-01
    0.71369030665338409336E-02
    0.99585927093426485079E+00
    0.32200152367955647836E+00
    0.75762226076536778874E-02
    0.17513674545554753781E+01
    0.21185847289283463724E+01
    0.11273031843181610667E-01
    0.78065277478572303593E+00
    0.11132321866163460977E+00
    0.20820261770469115220E-01
    0.71273044361186543849E+00
    0.10370328328240787652E+01
    0.96933202652542871380E+00
    0.31854807369684007279E+00
    0.24720560781209024479E-06
    0.92353217417367738928E-02
    0.42753914528240017875E-04
    0.27571850102021400186E+00
    0.24960901411366937658E-01
    0.45339422207975121166E-03
    0.20505073506116608395E+00
    0.51850934832988404555E+00
    0.69734473818208840280E-05
    0.13079801814588549114E-05
    0.60354991668539682468E-04
    0.33894873685827261962E-06
    0.83332497820564309376E-02
    0.11145045388563054480E-05
    0.28239577186655425034E-06
    0.24657746612481109355E-06
    0.37236772947082565845E-06
    0.25981919601215640675E-06
    0.24467117787038370124E-06
    0.24354716516524153652E-06
    0.24470765321548262264E-06
    0.24405781930509243259E-06
    0.24333270291329400884E-06
    0.24640170719300612610E-06
    0.24415704191168458685E-06
    0.24691508762994730570E-06
    0.10895560182660659621E+01
    0.10891560186422455381E+01
    0.24833701118757298024E-06
    0.68341388184498296816E-06
    0.35160542982237558141E+00
    0.46092134898898899642E-02
    0.10241398555458964825E+01
    0.30394061800322814959E-01
    0.12338393081554835384E-01
    0.51173778014463530762E-05
    0.59171102487207227760E+00
    0.52243222769548222639E-01
    0.10866977658701444387E+01
    0.10844725796828302844E+01
    0.17825797217699108303E-02
    0.67022153107653650861E-01
    0.10900392072044160496E+01
    0.10878089739890755006E+01
    0.10908829387302112490E+01
    0.10895427822189840406E+01
    0.10882193761185394720E+01
    0.10830101320507368179E+01
    0.21883987614642639447E-01
    0.10412611828790647728E+01
    0.15454532957369238456E-03
    0.16863765041773930847E-01
    0.38256611027505126044E-01
    0.18404299542377853399E-01
    0.72650584670419160460E+00
    0.30576258282647778008E+00
    0.41903722051787867242E+00
    0.72313828741804864197E+00
    0.66666253537347639445E-04
    0.52120368078422851799E+00
    0.58096639455930165763E+00
    0.77551381818614084640E+00