# vtk DataFile Version 3.0
LAPLACIEN  2D
ASCII
DATASET UNSTRUCTURED_GRID
 POINTS        1616  float
  0.45880792999999997       0.87913892999999999        0.0000000000000000     
  0.40372658000000000       0.18243693000000000        0.0000000000000000     
  0.52563972999999997       0.19039755999999999        0.0000000000000000     
  0.45642953000000003       0.24226190000000000        0.0000000000000000     
  0.51984098000000001       0.24548566999999999        0.0000000000000000     
  0.21212766999999999       0.18957676000000001        0.0000000000000000     
  0.28573643999999998       0.48586826999999999        0.0000000000000000     
  0.49667887999999999       0.82979849000000006        0.0000000000000000     
  0.22848407000000001       0.23366793000000000        0.0000000000000000     
  0.27860389000000002       0.86069733000000004        0.0000000000000000     
  0.36563702999999997       0.80971340999999997        0.0000000000000000     
  0.28045499000000002       0.80393031999999998        0.0000000000000000     
  0.40374228000000001       0.78127665000000002        0.0000000000000000     
  0.56160891999999996       0.55341227999999998        0.0000000000000000     
  0.37210935000000001       0.26787699999999998        0.0000000000000000     
  0.49899838000000002       0.57286409999999999        0.0000000000000000     
  0.41023869000000002       0.33464665999999998        0.0000000000000000     
  0.33484156999999998       0.29151022999999998        0.0000000000000000     
  0.46758665999999999       0.58262307999999996        0.0000000000000000     
  0.43303693999999998       0.36569945999999998        0.0000000000000000     
  0.25741280000000000       0.61805882999999995        0.0000000000000000     
  0.28853707000000001       0.59423020000000004        0.0000000000000000     
  0.67837254000000002       0.45038665999999999        0.0000000000000000     
  0.42159046000000000       0.50697913999999999        0.0000000000000000     
  0.60276470999999998       0.73940291000000002        0.0000000000000000     
  0.30758273000000003       0.77844542000000005        0.0000000000000000     
  0.45367541000000000       0.31842187000000000        0.0000000000000000     
  0.36974101999999998       0.35807864000000000        0.0000000000000000     
  0.26919625000000003       0.65312176000000000        0.0000000000000000     
  0.61908110999999999       0.42741791000000001        0.0000000000000000     
  0.54442267000000000       0.74200747000000000        0.0000000000000000     
  0.58930464999999999       0.41588288000000001        0.0000000000000000     
  0.51511633000000001       0.74331579000000003        0.0000000000000000     
  0.12878382999999999       0.33122940000000001        0.0000000000000000     
  0.15534365000000000       0.71749246000000000        0.0000000000000000     
  0.64877724999999997       0.30161799000000000        0.0000000000000000     
  0.58853643000000000       0.28101930000000003        0.0000000000000000     
  0.56390348000000001       0.30132482999999999        0.0000000000000000     
  0.29605991999999998       0.44474459999999999        0.0000000000000000     
  0.29900669000000002       0.52983276000000001        0.0000000000000000     
  0.55954318999999997       0.48654808999999999        0.0000000000000000     
  0.42341458999999998       0.38785072999999998        0.0000000000000000     
  0.45806291999999998       0.35892998999999998        0.0000000000000000     
  0.47820750000000001       0.31147424000000001        0.0000000000000000     
  0.36344222999999998       0.38139388000000002        0.0000000000000000     
  0.17186508000000000       0.28159534000000003        0.0000000000000000     
  0.18029876000000000       0.33292397000000001        0.0000000000000000     
  0.20696366999999999       0.71822465999999996        0.0000000000000000     
  0.61326404999999995       0.34468346000000000        0.0000000000000000     
  0.29887186999999998       0.42337377999999998        0.0000000000000000     
  0.33271837999999998       0.44383096000000000        0.0000000000000000     
  0.31835012000000001       0.54267131999999996        0.0000000000000000     
  0.54882964999999995       0.45462609999999998        0.0000000000000000     
  0.20448143999999999       0.28717446000000002        0.0000000000000000     
  0.20634120000000000       0.33378063000000002        0.0000000000000000     
  0.23301781999999999       0.71859421999999995        0.0000000000000000     
  0.58606499999999995       0.35199907000000002        0.0000000000000000     
  0.20841100000000001       0.45369578999999999        0.0000000000000000     
  0.24778198000000001       0.77708496000000005        0.0000000000000000     
  0.30748062999999998       0.61002621000000001        0.0000000000000000     
  0.23337332000000000       0.41981835000000001        0.0000000000000000     
  0.25985113999999998       0.75924943000000000        0.0000000000000000     
  0.24610213000000000       0.40254353999999998        0.0000000000000000     
  0.37350351999999998       0.50127178999999999        0.0000000000000000     
  0.43235204999999999       0.78236391000000005        0.0000000000000000     
  0.30749858000000002       0.28582627999999999        0.0000000000000000     
  0.30336816000000000       0.64635111000000001        0.0000000000000000     
  0.31418906000000002       0.43625961000000002        0.0000000000000000     
  0.27223414000000001       0.78063022000000004        0.0000000000000000     
  0.22829299000000000       0.75089561000000005        0.0000000000000000     
  0.26580239000000000       0.42989294000000000        0.0000000000000000     
  0.37369119000000001       0.51975733999999996        0.0000000000000000     
  0.39681665999999999       0.51027884000000001        0.0000000000000000     
  0.32086795000000001       0.65137668999999998        0.0000000000000000     
  0.31757218999999998       0.62987181000000003        0.0000000000000000     
  0.32959777000000001       0.42500900000000003        0.0000000000000000     
  0.24663835000000001       0.74537787000000000        0.0000000000000000     
  0.26354222999999999       0.41075105000000001        0.0000000000000000     
  0.28343712999999998       0.43221330000000002        0.0000000000000000     
  0.34682245000000000       0.43182289000000001        0.0000000000000000     
  0.35306810000000000       0.45344571000000000        0.0000000000000000     
  0.57327218000000002       0.15829040000000000        0.0000000000000000     
  0.51473097999999995       0.12621746000000000        0.0000000000000000     
  0.72829681999999996       0.40151571000000003        0.0000000000000000     
  0.42703184999999999       0.53501600999999999        0.0000000000000000     
  0.32612607999999998       0.75472421999999995        0.0000000000000000     
   9.9814849999999997E-002  0.28081352999999998        0.0000000000000000     
  0.13945825000000001       0.78732252999999996        0.0000000000000000     
  0.44199519999999998       0.38275643999999998        0.0000000000000000     
  0.40132215999999998       0.36508836000000000        0.0000000000000000     
  0.43963142999999999       0.34043466999999999        0.0000000000000000     
  0.47160058999999999       0.33493045999999999        0.0000000000000000     
  0.45615203999999998       0.28038164999999998        0.0000000000000000     
  0.34321279999999998       0.35314412000000001        0.0000000000000000     
  0.29178279000000001       0.56170810000000004        0.0000000000000000     
  0.49833080000000002       0.48416767999999999        0.0000000000000000     
  0.46386271000000001       0.46452802999999998        0.0000000000000000     
  0.44722043000000000       0.45300645000000000        0.0000000000000000     
  0.46562803000000003       0.44419790999999997        0.0000000000000000     
  0.43925322000000000       0.48229485999999999        0.0000000000000000     
  0.49117628000000002       0.45665803999999999        0.0000000000000000     
  0.43435156000000003       0.46523363000000001        0.0000000000000000     
  0.19405754000000000       0.31093060000000000        0.0000000000000000     
  0.22069087000000001       0.66905079000000001        0.0000000000000000     
  0.30776597999999999       0.59042684000000001        0.0000000000000000     
  0.29541507000000000       0.57849362000000004        0.0000000000000000     
  0.28335474999999999       0.61970232999999997        0.0000000000000000     
  0.29935165000000002       0.62852803999999995        0.0000000000000000     
  0.28459435999999999       0.64121777000000002        0.0000000000000000     
  0.26698675999999999       0.63435282999999998        0.0000000000000000     
  0.24031983000000001       0.64700659000000005        0.0000000000000000     
  0.33118850000000000       0.50233682999999996        0.0000000000000000     
  0.35257061000000001       0.51072803000000000        0.0000000000000000     
  0.29038973000000001       0.78732479000000000        0.0000000000000000     
  0.28737915000000003       0.76752330999999996        0.0000000000000000     
  0.21978159000000000       0.73315437000000006        0.0000000000000000     
  0.18119734000000001       0.76257752999999995        0.0000000000000000     
  0.20353571000000001       0.75186065999999996        0.0000000000000000     
  0.39122694000000002       0.49007234000000000        0.0000000000000000     
  0.59140473999999998       0.13507609000000001        0.0000000000000000     
  0.53156702000000000        9.7663528999999999E-002   0.0000000000000000     
  0.76346223999999996       0.39657278000000001        0.0000000000000000     
  0.41119013999999998       0.52354409999999996        0.0000000000000000     
   7.2558165999999993E-002  0.26885883999999999        0.0000000000000000     
  0.10497347000000000       0.79895936000000001        0.0000000000000000     
[...]
 CELL_DATA        2963
 SCALARS Nutrients float
 LOOKUP_TABLE default
    0.36292760693720062193E+02
    0.36160570145745396076E+02
    0.33378348527113956834E+02
    0.35975524848485932239E+02
    0.35432129758456696322E+02
    0.35723294303825340990E+02
    0.35333551760829550403E+02
    0.34764450919164644915E+02
    0.36582060638656038520E+02
    0.11568276497515405765E+02
    0.37291655298570333343E+02
    0.32678834230090835433E+02
    0.32441419357152973646E+02
    0.36909099682023764899E+02
    0.36812937819293992447E+02
    0.31943879362496549135E+02
    0.12430310380104863555E+02
    0.34697204037286148548E+02
    0.35520117374879653482E+02
    0.30718873368479137298E+02
    0.32871582507707799437E+02
    0.12651519645996200936E+02
    0.11641048519787808857E+02
    0.30541383544132504113E+02
    0.26410723899684047211E+02
    0.36069198816147995501E+02
    0.29804349295921358731E+02
    0.35806008587875197691E+02
    0.33653737477001087086E+02
    0.21893480190577971456E+02
    0.35010750113900407143E+02
    0.35986823127609667949E+02
    0.32042548774690658320E+02
    0.23475909133133662010E+02
    0.31757457871576665553E+02
    0.26125994830309679173E+02
    0.32486180841628097937E+02
    0.21778304910178224674E+02
    0.26429528086291870892E+02
    0.30094273026299976692E+02
    0.24699236467153156127E+02
    0.35431873177880071069E+02
    0.28254119283234224724E+02
    0.23163619212599041219E+02
    0.36615727144152934613E+02
    0.15991548703043347857E+02
    0.27107915974011788762E+02
    0.36699320101954555184E+02
    0.21223097709858244286E+02
    0.36750529821461029201E+02
    0.18125217354550358095E+02
    0.16375854669111241435E+02
    0.18107792734603481932E+02
    0.16891787067460462879E+02
    0.32929350648057308604E+02
    0.31188673178615310633E+02
    0.23369993613869212368E+02
    0.17576513352213197550E+02
    0.12409547249261851931E+02
    0.34784669149448539827E+02
    0.13355476043340173575E+02
    0.37048385600998180678E+02
    0.37111919923937954024E+02
    0.35806787473100960995E+02
    0.36181684167238643113E+02
    0.14566235845036665353E+02
    0.33841490714707731513E+02
    0.12781539219398851515E+02
    0.23191997433019086117E+02
    0.34740335799532523708E+02
    0.25559197560301097241E+02
    0.14146896506214147848E+02
    0.32475130632682684961E+02
    0.28880762430454513634E+02
    0.11684879416998557033E+02
    0.11729235355122213491E+02
    0.11940522104576253071E+02
    0.12008182652215037223E+02
    0.18938766756399690649E+02
    0.15020516283091675191E+02
    0.36264591494061839683E+02
    0.17500379175444155777E+02
    0.12861371525305420604E+02
    0.11181822039630068488E+02
    0.20491412537161416196E+02
    0.31987784548972594934E+02
    0.34016199525991261510E+02
    0.28687264734873739513E+02
    0.28723744708906302492E+02
    0.36283626704447179634E+02
    0.29260775203770709396E+02
    0.17730334064717823139E+02
    0.11650119552742637552E+02
    0.17064458208677731221E+02
    0.23226194672959749710E+02
    0.19151019153462549127E+02
    0.12113257541533290151E+02
    0.30252603724347679304E+02
    0.20587784526855475775E+02
    0.33373123561593509123E+02
    0.32854845091060234097E+02
    0.27985320144940345699E+02
    0.17471118242688262967E+02
    0.31459440934801502721E+02
    0.32705202177344816050E+02
    0.35295362153150044549E+02
    0.31502191564022506753E+02
    0.36232619625986586698E+02
    0.16864435494085327605E+02
    0.33593912640660064994E+02
    0.33890830181362893825E+02
    0.33729060878496646581E+02
    0.28703602844666615823E+02
    0.34084493414298115965E+02
    0.36852461580414107800E+02
    0.34185331645585179672E+02
    0.36974379890982810082E+02
    0.37294903319815730924E+02
    0.11260858921440503266E+02
    0.13498125681112531637E+02
    0.33909026168892111741E+02
    0.35857809340657226471E+02
    0.16263531004102294020E+02
    0.22885325816209871164E+02
    0.17550759003198230346E+02
    0.24949000782904327878E+02
    0.35593908724281469347E+02
    0.15409218371766982614E+02
    0.35001918533265538258E+02
    0.12480943670958822622E+02
    0.19073858080686189709E+02
    0.17977735409265751088E+02
    0.29054583442208063104E+02
    0.18922765256133317280E+02
    0.30838232102663720724E+02
    0.13953396210120924792E+02
    0.13907777793800862653E+02
    0.35970428846941622680E+02
    0.35385774774215967398E+02
    0.34921065842243109500E+02
    0.12287638074467995608E+02
    0.21068243167534006943E+02
    0.18526822161995614380E+02
    0.14441920829322251407E+02
    0.15367451520296429024E+02
    0.20155851625087155554E+02
    0.32549969001058556728E+02
    0.19348067722435793314E+02
    0.34813230112121097193E+02
    0.26314665472705794258E+02
    0.36375370497470171927E+02
    0.20415013867337005848E+02
    0.15056350821114772742E+02
    0.20702064301870340302E+02
    0.31640288559545975744E+02
    0.18254644612086675437E+02
    0.17428314957892549586E+02
    0.31795210234843434449E+02
    0.31700536482418506523E+02
    0.31627158742673888270E+02
    0.31729198378724273510E+02
    0.32745290738039393830E+02
    0.22748182008734840309E+02
    0.31823191312727995950E+02
    0.33059789472884816064E+02
    0.16216202783773912444E+02
    0.17104949566507492875E+02
    0.17882000633111495347E+02
    0.11503931025194530591E+02
    0.18826790525819859567E+02
    0.11113008846321442036E+02
    0.31831913262813632315E+02
    0.20011802262426687804E+02
    0.19345792982881974353E+02
    0.17878502221981108278E+02
    0.17061203776874354077E+02
    0.30620755965180258329E+02
    0.32242956897724134535E+02
    0.36305627252874444366E+02
    0.16274263421602892521E+02
    0.11609032007303433431E+02
    0.25154529287917174685E+02
    0.27204809106325996026E+02
    0.34759714200743246693E+02
    0.18271182905743696523E+02
    0.18762684029760006155E+02
    0.32379315716404192926E+02
    0.36253302474607004058E+02
    0.14467076495848333550E+02
    0.24531858439503604785E+02
    0.35837689654362847591E+02
    0.26603414683904254900E+02
    0.35130463345213343018E+02
    0.16102750824308632360E+02
    0.32193105903986726446E+02
    0.16954003879536120536E+02
    0.29694229918475652852E+02
    0.18788361168933924716E+02
    0.30471652415410389381E+02
    0.17289569244790811808E+02
    0.25486345511961982169E+02
    0.24541442776682220739E+02
    0.33509951409442869874E+02
    0.18582693665751484957E+02
    0.12666447611862945877E+02
    0.12176110535290671777E+02
    0.20545762323524627391E+02
    0.12108290483757892630E+02
    0.24071569284182771753E+02
    0.16157037189425857093E+02
    0.16823337414261317235E+02
    0.12679891269014680333E+02
    0.13111481598031017981E+02
    0.36397970816613735678E+02
    0.36254414478161592683E+02
    0.32621871813036797505E+02
    0.23464793320305403768E+02
    0.33259773075021172417E+02
    0.32991010441087723848E+02
    0.13976202831224167511E+02
    0.36035634725173011361E+02
    0.36248996218407135927E+02
    0.36285073214665814589E+02
    0.12510505368121897618E+02
    0.12987109035489156739E+02
    0.36004159036759546098E+02
    0.35663584388811955250E+02
    0.19204508268050563657E+02
    0.19125926957146884178E+02
    0.32235386362910098512E+02
    0.18320308322200354212E+02
    0.28357915015944314518E+02
    0.33600553330397190166E+02
    0.33209598168513089433E+02
    0.27543431920355899933E+02
    0.32859973310992266704E+02
    0.36248621944128558425E+02
    0.31680001698438264413E+02
    0.14517100392231270689E+02
    0.21105219334701583733E+02
    0.13673833102376498516E+02
    0.22746396638080167207E+02
    0.30982648423504336677E+02
    0.29781564073323764319E+02
    0.11491102849185041990E+02
    0.36031631979853273151E+02
    0.32947665150642791332E+02
    0.15611231335810883181E+02
    0.35613283635613846911E+02
    0.27499617425639858226E+02
    0.11225250376644899220E+02
    0.31633094332258419712E+02
    0.36351225378110221698E+02
    0.18266226358382091632E+02
    0.19545009310045390549E+02
    0.26018634052894096698E+02
    0.19308633629376512175E+02
    0.35775599261478497226E+02
    0.11179289629507659143E+02
    0.29167449946884580925E+02
    0.11137066052962465434E+02
    0.11299178997147915737E+02
    0.11310967171902738926E+02
    0.21715988291649534148E+02
    0.11324779277626580765E+02
    0.16856283769018137519E+02
    0.16151728452171070671E+02
    0.11312918154519065794E+02
    0.21421130468855992035E+02
    0.11768456733121341884E+02
    0.32003624471084002323E+02
    0.32755183765106913540E+02
    0.11278767411651006825E+02
    0.19886675755001139265E+02
    0.20003575715265487389E+02
    0.34380291086613169682E+02
    0.24079027719804475538E+02
    0.30448765422926086899E+02
    0.16065728890836322051E+02
    0.18984006856366651306E+02
    0.35246939981024546285E+02
    0.16701291130289938280E+02
    0.33810868855684446999E+02
    0.33273621646406539298E+02
    0.18976109133623410230E+02
    0.16553448490383114944E+02
    0.30775084655229033359E+02
    0.19157245766901894513E+02
    0.35177434545426208956E+02
    0.33553361984236794058E+02
    0.33743220257660354378E+02
    0.33687681986121909006E+02
    0.25115820879623694140E+02
    0.36283249208858620705E+02
    0.24101638967696036531E+02
    0.31055746753425601980E+02
    0.18235542296800552720E+02
    0.32203215928775669852E+02
    0.14251921891519458541E+02
    0.23447511862040997244E+02
    0.21961636262541404108E+02
    0.22440396815858452584E+02
    0.28939947821101469572E+02
    0.35274134582577453045E+02
    0.33646808217533212826E+02
    0.16495183724992767083E+02
    0.18090175661496889603E+02
    0.23918180770313945516E+02
    0.15339368429749439926E+02
    0.30141631731271431249E+02
    0.12973471997314470983E+02
    0.20404661901027939308E+02
    0.31185925008890418297E+02
    0.20427180435989122032E+02
    0.32682325407445077303E+02
    0.36794138901985462553E+02
    0.18495021762648395480E+02
    0.34176530822997854386E+02
    0.32924347510346919421E+02
    0.34276585347482708244E+02
    0.32532362132035366642E+02
    0.33740401599944306099E+02
    0.34059843501509206476E+02
    0.33718640613063563194E+02
    0.37399300276016219868E+02
    0.33325989843598854634E+02
    0.35908847633778670172E+02
    0.27599916081973489668E+02
    0.34155830791011965175E+02
    0.37110199172305122772E+02
    0.13014588938319318956E+02
    0.14041648827068671679E+02
    0.37271575573908826584E+02
    0.37148425682537194348E+02
    0.20801026398680203755E+02
    0.24171781190616627555E+02
    0.18504279634920880682E+02
    0.30883851450942518824E+02
    0.35036742898143785396E+02
    0.31258665297104357705E+02
    0.33737337111842016668E+02
    0.35120621161765406271E+02
    0.34796223091544767669E+02
    0.34743577367942947376E+02
    0.11308282008595751833E+02
    0.19391026331524159332E+02
    0.16214784343453533921E+02
    0.33706594625728662606E+02
    0.33601644361956061857E+02
    0.35535309076612783485E+02
    0.35472637983381169136E+02
    0.33994214987417521456E+02
    0.34189329431097071677E+02
    0.17668410766853167360E+02
    0.16610327991695687189E+02
    0.16708482228620312071E+02
    0.19239120512990535161E+02
    0.18166451387108008220E+02
    0.19697536353636966311E+02
    0.20524195529893738410E+02
    0.18968546073718638212E+02
    0.20497210858661141231E+02
    0.26557146172311185239E+02
    0.22101755744657356928E+02
    0.17084667646793235463E+02
    0.20209781652953335396E+02
    0.19383366461530496139E+02
    0.17960572179702907647E+02
    0.18333231554289746157E+02
    0.11431276218464930139E+02
    0.12323098850311946961E+02
    0.11610041186329009832E+02
    0.11925026446288896409E+02
    0.11786450019780723153E+02
    0.13101682475488233948E+02
    0.13596761408112103098E+02
    0.12340841484025588670E+02
    0.11275966808135120090E+02
    0.12775149516219036272E+02
    0.14941868687209227673E+02
    0.11833819287513952290E+02
    0.11288201807559307355E+02
    0.32095964057048554707E+02
    0.32466668207130886969E+02
    0.29825610360718545877E+02
    0.23135515408161946738E+02
    0.17538181127723621699E+02
    0.16714468020711564122E+02
    0.19250812191062887990E+02
    0.16600890629006688215E+02
    0.18795032353956585780E+02
    0.19951996845092228483E+02
    0.19807981266107372420E+02
    0.19066146966229990056E+02
    0.20372338628491135637E+02
    0.21726979952679307928E+02
    0.26091171376079618227E+02
    0.21009580786362718641E+02
    0.35060745402232662116E+02
    0.22692115687666781554E+02
    0.13931403019252048381E+02
    0.12512777150364311041E+02
    0.11795942138443550107E+02
    0.12142238489936397983E+02
    0.35216883020910024982E+02
    0.34635905576904015390E+02
    0.33984967073148325767E+02
    0.33590941610316932042E+02
    0.31978702822805544770E+02
    0.33091205371837773441E+02
    0.33637897170236811917E+02
    0.35431506015392095321E+02
    0.34095160332288543259E+02
    0.34778398853298909899E+02
    0.11309051963517095629E+02
    0.11141719175513870255E+02
    0.36500403517249601748E+02
    0.12234252936298114278E+02
    0.36131678032056306904E+02
    0.36250802102822845541E+02
    0.35669831241937700383E+02
    0.35210282486688150527E+02
    0.36076190900579931053E+02
    0.11674007820666895796E+02
    0.11447623039456731320E+02
    0.36126001652969272016E+02
    0.33361137893405029331E+02
    0.35473544756311369497E+02
    0.35792204099411833340E+02
    0.36464876622092432967E+02
    0.17384701059571607829E+02
    0.17261248909795806838E+02
    0.16551047482642179176E+02
    0.17706058023041730820E+02
    0.18838133949333307982E+02
    0.17406684234372534092E+02
    0.16741428156068156596E+02
    0.16107557100232327230E+02
    0.16162364671253090620E+02
    0.16074065386442867975E+02
    0.16517823876065634181E+02
    0.16398455721958875131E+02
    0.20351034922353715473E+02
    0.22820510913293944100E+02
    0.19294121279856252471E+02
    0.19233751340659232199E+02
    0.20155293388782986597E+02
    0.19801415867722699460E+02
    0.21872727140491544873E+02
    0.25447727358058475744E+02
    0.21571611996172652681E+02
    0.27971518533635617132E+02
    0.26769652536758123063E+02
    0.28161857806345178545E+02
    0.16814253037182773198E+02
    0.17702452868660348173E+02
    0.15086355361339903070E+02
    0.16901883900159436536E+02
    0.16420766864873630908E+02
    0.16026887000749756140E+02
    0.17309512315644784763E+02
    0.14003609449737039583E+02
    0.18499684162881617766E+02
    0.15725490477392561672E+02
    0.32792231079483116218E+02
    0.34217230169320195898E+02
    0.32801760720500041657E+02
    0.32784013680632291710E+02
    0.31766774519084425066E+02
    0.31018643754328781625E+02
    0.32401859782448504177E+02
    0.26238262760056887402E+02
    0.20865447122895705689E+02
    0.20301687938018961432E+02
    0.25458701598067783323E+02
    0.27864320674887935070E+02
    0.23158616062187711293E+02
    0.20893175665620617565E+02
    0.23005215172409513968E+02
    0.17488583920262581017E+02
    0.21151165268466240121E+02
    0.19958453669423729337E+02
    0.14494234295170638660E+02
    0.12556853611961360073E+02
    0.15713306174176063124E+02
    0.14711946164912697910E+02
    0.13121167076263747120E+02
    0.12540839490435308434E+02
    0.13190899469573954761E+02
    0.14183796285500639200E+02
    0.13440439303102502677E+02
    0.13362603888839545974E+02
    0.33463848594064621977E+02
    0.33671401739386894292E+02
    0.35620324701242616072E+02
    0.34261558520609192158E+02
    0.31671710096027062775E+02
    0.32935687173654805804E+02
    0.11150208868389817951E+02
    0.11234888630840323742E+02
    0.36262184879676070182E+02
    0.36235543945198777749E+02
    0.36218371070447375359E+02
    0.35849470440080501987E+02
    0.36001002156557838418E+02
    0.36076277402672666028E+02
    0.35673997747376049006E+02
    0.36304627131961105135E+02
    0.19026816947641904676E+02
    0.25237534266030557717E+02
    0.22186405353475532110E+02
    0.26328388401848378919E+02
    0.20158565396571699324E+02
    0.19591762506694060164E+02
    0.18211974482136966458E+02
    0.16353626873320042279E+02
    0.32381790730468722472E+02
    0.33062519624470908752E+02
    0.31649251740542261757E+02
    0.32022692156300244903E+02
    0.27937160607368255683E+02
    0.27544445883218212856E+02
    0.28553545923012404018E+02
    0.24646764811715375032E+02
    0.20229798778138363247E+02
    0.18757519476416700144E+02
    0.21860845986252126494E+02
    0.19505145342038975542E+02
    0.19831828624502666258E+02
    0.15426976163548753007E+02
    0.18373212282804125550E+02
    0.17510453114795016205E+02
    0.12228621840787255337E+02
    0.13316185481422289527E+02
    0.12201463226725168809E+02
    0.12956557821399856678E+02
    0.12257302478177287242E+02
    0.11932457260984838499E+02
    0.14828528482536897926E+02
    0.13048068291689942200E+02
    0.15753861367546154071E+02
    0.14611101598988284422E+02
    0.16664178649672020782E+02
    0.21522935261306852084E+02
    0.16225213407765004092E+02
    0.15778670778396199026E+02
    0.16481233796985367945E+02
    0.17231268129160980607E+02
    0.35356526967792731853E+02
    0.35659775369856248517E+02
    0.34854986778148052906E+02
    0.37024220637822345736E+02
    0.36183533749500277565E+02
    0.35319516817936538189E+02
    0.35013349855476221251E+02
    0.35669063122840270808E+02
    0.35033233426578668457E+02
    0.34974723680747509036E+02
    0.33998586318938670559E+02
    0.34521696642163391289E+02
    0.34187027053574851720E+02
    0.32836752598736161701E+02
    0.18318647837502105347E+02
    0.21904037749377849309E+02
    0.23221085708679432003E+02
    0.24143692168018095145E+02
    0.23377899025021438462E+02
    0.28107809795271503361E+02
    0.26193900914178794181E+02
    0.23469720662837861624E+02
    0.19668388934948769275E+02
    0.16910727006678058615E+02
    0.21806118456492736613E+02
    0.24997378408989529674E+02
    0.23248955097474681253E+02
    0.22308458688500145684E+02
    0.25243588516619279716E+02
    0.27736482947670104693E+02
    0.26083322619090804295E+02
    0.22975773159286337233E+02
    0.15256119269263487936E+02
    0.21553849925814059674E+02
    0.19283569375321135908E+02
    0.22478734549315213087E+02
    0.21910283474680142035E+02
    0.19956741182009476887E+02
    0.23010178884161401669E+02
    0.24051814267324385099E+02
    0.18298131494543305564E+02
    0.17832993301308210476E+02
    0.19210603588061609059E+02
    0.16997524321211205489E+02
    0.21188686093248616515E+02
    0.17731038427730858587E+02
    0.16487185150228402364E+02
    0.15902297724909052690E+02
    0.17177483409340851495E+02
    0.16550513633126247015E+02
    0.13028617352114718386E+02
    0.12322253029375348277E+02
    0.11698289116780559382E+02
    0.12143256635547549749E+02
    0.11409703508523751481E+02
    0.11566028342876530033E+02
    0.13367155128640948902E+02
    0.14086603081621102973E+02
    0.35524474263981012712E+02
    0.35208691030403940658E+02
    0.15620394687134821154E+02
    0.17010056958919626879E+02
    0.22927648875746431401E+02
    0.21062704787169373333E+02
    0.27995682444896516472E+02
    0.21372502835685232014E+02
    0.21705853255956675696E+02
    0.17879602627907779322E+02
    0.24301275310766701665E+02
    0.22554062592384408248E+02
    0.34517813912956114564E+02
    0.33909149252541553210E+02
    0.20604544561812463854E+02
    0.22029733711022696951E+02
    0.35726959475749410444E+02
    0.34888730209720918651E+02
    0.36055971451126012539E+02
    0.35449836949063069369E+02
    0.34968746889947894374E+02
    0.33471638824460100636E+02
    0.32015846153147350606E+02
    0.33351905723873969123E+02
    0.31624753578062140491E+02
    0.31987631264142734722E+02
    0.32177063992397641812E+02
    0.31940804741070316197E+02
    0.32984822155220157924E+02
    0.32445599138239671788E+02
    0.20533075018660408517E+02
    0.26344090507856623873E+02
    0.18591210853802273562E+02
    0.21772612363520035927E+02
    0.22964589203835384268E+02
    0.28002180552681029013E+02