# vtk DataFile Version 3.0
LAPLACIEN  2D
ASCII
DATASET UNSTRUCTURED_GRID
 POINTS        1616  float
  0.45880792999999997       0.87913892999999999        0.0000000000000000     
  0.40372658000000000       0.18243693000000000        0.0000000000000000     
  0.52563972999999997       0.19039755999999999        0.0000000000000000     
  0.45642953000000003       0.24226190000000000        0.0000000000000000     
  0.51984098000000001       0.24548566999999999        0.0000000000000000     
  0.21212766999999999       0.18957676000000001        0.0000000000000000     
  0.28573643999999998       0.48586826999999999        0.0000000000000000     
  0.49667887999999999       0.82979849000000006        0.0000000000000000     
  0.22848407000000001       0.23366793000000000        0.0000000000000000     
  0.27860389000000002       0.86069733000000004        0.0000000000000000     
  0.36563702999999997       0.80971340999999997        0.0000000000000000     
  0.28045499000000002       0.80393031999999998        0.0000000000000000     
  0.40374228000000001       0.78127665000000002        0.0000000000000000     
  0.56160891999999996       0.55341227999999998        0.0000000000000000     
  0.37210935000000001       0.26787699999999998        0.0000000000000000     
  0.49899838000000002       0.57286409999999999        0.0000000000000000     
  0.41023869000000002       0.33464665999999998        0.0000000000000000     
  0.33484156999999998       0.29151022999999998        0.0000000000000000     
  0.46758665999999999       0.58262307999999996        0.0000000000000000     
  0.43303693999999998       0.36569945999999998        0.0000000000000000     
  0.25741280000000000       0.61805882999999995        0.0000000000000000     
  0.28853707000000001       0.59423020000000004        0.0000000000000000     
  0.67837254000000002       0.45038665999999999        0.0000000000000000     
  0.42159046000000000       0.50697913999999999        0.0000000000000000     
  0.60276470999999998       0.73940291000000002        0.0000000000000000     
  0.30758273000000003       0.77844542000000005        0.0000000000000000     
  0.45367541000000000       0.31842187000000000        0.0000000000000000     
  0.36974101999999998       0.35807864000000000        0.0000000000000000     
  0.26919625000000003       0.65312176000000000        0.0000000000000000     
  0.61908110999999999       0.42741791000000001        0.0000000000000000     
  0.54442267000000000       0.74200747000000000        0.0000000000000000     
  0.58930464999999999       0.41588288000000001        0.0000000000000000     
  0.51511633000000001       0.74331579000000003        0.0000000000000000     
  0.12878382999999999       0.33122940000000001        0.0000000000000000     
  0.15534365000000000       0.71749246000000000        0.0000000000000000     
  0.64877724999999997       0.30161799000000000        0.0000000000000000     
  0.58853643000000000       0.28101930000000003        0.0000000000000000     
  0.56390348000000001       0.30132482999999999        0.0000000000000000     
  0.29605991999999998       0.44474459999999999        0.0000000000000000     
  0.29900669000000002       0.52983276000000001        0.0000000000000000     
  0.55954318999999997       0.48654808999999999        0.0000000000000000     
  0.42341458999999998       0.38785072999999998        0.0000000000000000     
  0.45806291999999998       0.35892998999999998        0.0000000000000000     
  0.47820750000000001       0.31147424000000001        0.0000000000000000     
  0.36344222999999998       0.38139388000000002        0.0000000000000000     
  0.17186508000000000       0.28159534000000003        0.0000000000000000     
  0.18029876000000000       0.33292397000000001        0.0000000000000000     
  0.20696366999999999       0.71822465999999996        0.0000000000000000     
  0.61326404999999995       0.34468346000000000        0.0000000000000000     
  0.29887186999999998       0.42337377999999998        0.0000000000000000     
  0.33271837999999998       0.44383096000000000        0.0000000000000000     
  0.31835012000000001       0.54267131999999996        0.0000000000000000     
  0.54882964999999995       0.45462609999999998        0.0000000000000000     
  0.20448143999999999       0.28717446000000002        0.0000000000000000     
  0.20634120000000000       0.33378063000000002        0.0000000000000000     
  0.23301781999999999       0.71859421999999995        0.0000000000000000     
  0.58606499999999995       0.35199907000000002        0.0000000000000000     
  0.20841100000000001       0.45369578999999999        0.0000000000000000     
  0.24778198000000001       0.77708496000000005        0.0000000000000000     
  0.30748062999999998       0.61002621000000001        0.0000000000000000     
  0.23337332000000000       0.41981835000000001        0.0000000000000000     
  0.25985113999999998       0.75924943000000000        0.0000000000000000     
  0.24610213000000000       0.40254353999999998        0.0000000000000000     
  0.37350351999999998       0.50127178999999999        0.0000000000000000     
  0.43235204999999999       0.78236391000000005        0.0000000000000000     
  0.30749858000000002       0.28582627999999999        0.0000000000000000     
  0.30336816000000000       0.64635111000000001        0.0000000000000000     
  0.31418906000000002       0.43625961000000002        0.0000000000000000     
  0.27223414000000001       0.78063022000000004        0.0000000000000000     
  0.22829299000000000       0.75089561000000005        0.0000000000000000     
  0.26580239000000000       0.42989294000000000        0.0000000000000000     
  0.37369119000000001       0.51975733999999996        0.0000000000000000     
  0.39681665999999999       0.51027884000000001        0.0000000000000000     
  0.32086795000000001       0.65137668999999998        0.0000000000000000     
  0.31757218999999998       0.62987181000000003        0.0000000000000000     
  0.32959777000000001       0.42500900000000003        0.0000000000000000     
  0.24663835000000001       0.74537787000000000        0.0000000000000000     
  0.26354222999999999       0.41075105000000001        0.0000000000000000     
  0.28343712999999998       0.43221330000000002        0.0000000000000000     
  0.34682245000000000       0.43182289000000001        0.0000000000000000     
  0.35306810000000000       0.45344571000000000        0.0000000000000000     
  0.57327218000000002       0.15829040000000000        0.0000000000000000     
  0.51473097999999995       0.12621746000000000        0.0000000000000000     
  0.72829681999999996       0.40151571000000003        0.0000000000000000     
  0.42703184999999999       0.53501600999999999        0.0000000000000000     
  0.32612607999999998       0.75472421999999995        0.0000000000000000     
   9.9814849999999997E-002  0.28081352999999998        0.0000000000000000     
  0.13945825000000001       0.78732252999999996        0.0000000000000000     
  0.44199519999999998       0.38275643999999998        0.0000000000000000     
  0.40132215999999998       0.36508836000000000        0.0000000000000000     
  0.43963142999999999       0.34043466999999999        0.0000000000000000     
  0.47160058999999999       0.33493045999999999        0.0000000000000000     
  0.45615203999999998       0.28038164999999998        0.0000000000000000     
  0.34321279999999998       0.35314412000000001        0.0000000000000000     
  0.29178279000000001       0.56170810000000004        0.0000000000000000     
  0.49833080000000002       0.48416767999999999        0.0000000000000000     
  0.46386271000000001       0.46452802999999998        0.0000000000000000     
  0.44722043000000000       0.45300645000000000        0.0000000000000000     
  0.46562803000000003       0.44419790999999997        0.0000000000000000     
  0.43925322000000000       0.48229485999999999        0.0000000000000000     
  0.49117628000000002       0.45665803999999999        0.0000000000000000     
  0.43435156000000003       0.46523363000000001        0.0000000000000000     
  0.19405754000000000       0.31093060000000000        0.0000000000000000     
  0.22069087000000001       0.66905079000000001        0.0000000000000000     
  0.30776597999999999       0.59042684000000001        0.0000000000000000     
  0.29541507000000000       0.57849362000000004        0.0000000000000000     
  0.28335474999999999       0.61970232999999997        0.0000000000000000     
  0.29935165000000002       0.62852803999999995        0.0000000000000000     
  0.28459435999999999       0.64121777000000002        0.0000000000000000     
  0.26698675999999999       0.63435282999999998        0.0000000000000000     
  0.24031983000000001       0.64700659000000005        0.0000000000000000     
  0.33118850000000000       0.50233682999999996        0.0000000000000000     
  0.35257061000000001       0.51072803000000000        0.0000000000000000     
  0.29038973000000001       0.78732479000000000        0.0000000000000000     
  0.28737915000000003       0.76752330999999996        0.0000000000000000     
  0.21978159000000000       0.73315437000000006        0.0000000000000000     
  0.18119734000000001       0.76257752999999995        0.0000000000000000     
  0.20353571000000001       0.75186065999999996        0.0000000000000000     
  0.39122694000000002       0.49007234000000000        0.0000000000000000     
  0.59140473999999998       0.13507609000000001        0.0000000000000000     
  0.53156702000000000        9.7663528999999999E-002   0.0000000000000000     
  0.76346223999999996       0.39657278000000001        0.0000000000000000     
  0.41119013999999998       0.52354409999999996        0.0000000000000000     
   7.2558165999999993E-002  0.26885883999999999        0.0000000000000000     
  0.10497347000000000       0.79895936000000001        0.0000000000000000     
[...]
 CELL_DATA        2963
 SCALARS Nutrients float
 LOOKUP_TABLE default
    0.34326784669099389191E+02
    0.34248067604935314989E+02
    0.31669354348547003042E+02
    0.34081502728534211144E+02
    0.33595888594391198012E+02
    0.33642833386040287280E+02
    0.33414304510330090636E+02
    0.33025422155340869779E+02
    0.34701340817462316579E+02
    0.14402922887673009100E+02
    0.35637558788926412490E+02
    0.31086292146232541000E+02
    0.31069586399715635849E+02
    0.35274825343288057411E+02
    0.34964146665235816158E+02
    0.30729096089483089571E+02
    0.15341790593416398281E+02
    0.32761191801362194553E+02
    0.33384029176500817471E+02
    0.29501298155396739276E+02
    0.31102427733244777386E+02
    0.14713241507825081555E+02
    0.13543616218969436460E+02
    0.29311826168634507184E+02
    0.26248644399153544526E+02
    0.33990714644796838684E+02
    0.29282884828922409071E+02
    0.33717653537748169867E+02
    0.31861940249291993865E+02
    0.23791879739893218471E+02
    0.33082330758393815984E+02
    0.34112792417827300540E+02
    0.30470619991996471754E+02
    0.24056486546587933617E+02
    0.30684789789367233226E+02
    0.26713150703700925703E+02
    0.30898106511390562190E+02
    0.22792692694999328040E+02
    0.26913961395486872163E+02
    0.28048811898784105523E+02
    0.25722147323959308807E+02
    0.33597602534822634368E+02
    0.27491581683177880535E+02
    0.24668564480663633276E+02
    0.34756448551215605391E+02
    0.18362825448788928639E+02
    0.27382567725550561732E+02
    0.34836096922850117608E+02
    0.23328662239694558878E+02
    0.34898936845919202199E+02
    0.20030293870758619335E+02
    0.19924547749184988277E+02
    0.21159582686418211495E+02
    0.20287392613227812177E+02
    0.31320804986047207308E+02
    0.30124832006002193907E+02
    0.24808552563753487163E+02
    0.20111811629063812035E+02
    0.15400255329370382995E+02
    0.33500398116986659147E+02
    0.16216389058078707563E+02
    0.35331773877356695834E+02
    0.35451931981064390698E+02
    0.33951845450883091360E+02
    0.34787978743265355774E+02
    0.17223174494583854965E+02
    0.32857761722501862778E+02
    0.15735596300943333503E+02
    0.21994781983824459815E+02
    0.33030838245681778176E+02
    0.26313905982381498916E+02
    0.16879717168809946770E+02
    0.32804577439422722307E+02
    0.28613580727430100836E+02
    0.14540484229728722454E+02
    0.14576978405434738661E+02
    0.14095277631709125288E+02
    0.14976921183105828206E+02
    0.21739908569294350116E+02
    0.17588382261049329003E+02
    0.34410043018765470890E+02
    0.19550882644684609346E+02
    0.15793118068630871420E+02
    0.13755633555677230007E+02
    0.22200619500062959588E+02
    0.30026341054342505998E+02
    0.31676633273511107802E+02
    0.27622199313833853296E+02
    0.27982527721127063103E+02
    0.34335236909191685584E+02
    0.28684708083449827143E+02
    0.19723777063843822788E+02
    0.13376216219681692721E+02
    0.19676400407403125570E+02
    0.24323325330029923919E+02
    0.21041426062816679377E+02
    0.14246167371529461221E+02
    0.29546736209793898809E+02
    0.22884734835332835701E+02
    0.32305093455561994631E+02
    0.32873382185499984587E+02
    0.27696642056596029846E+02
    0.19568551579139349172E+02
    0.30513584251348206067E+02
    0.30746282532265706067E+02
    0.33349327447267242519E+02
    0.30418814113850370262E+02
    0.34258806154993912685E+02
    0.19050251037148335342E+02
    0.32285630524875720937E+02
    0.32134470142203809928E+02
    0.32843041034339222506E+02
    0.28485807131451657881E+02
    0.32862578752535434035E+02
    0.35241594433942864839E+02
    0.33278603894657315720E+02
    0.35199070852514516616E+02
    0.35643942374587560096E+02
    0.13925337085715471019E+02
    0.16418385739705385618E+02
    0.33158293601324452027E+02
    0.34064382593442971370E+02
    0.19838126715440207448E+02
    0.23612626730892497307E+02
    0.20765281891306006656E+02
    0.25126037773736509706E+02
    0.33476280577830912932E+02
    0.17902748256851893416E+02
    0.32982852760691443450E+02
    0.15445824982983323181E+02
    0.21415352992030786794E+02
    0.20380815366174250158E+02
    0.27040419530741647947E+02
    0.21295110151697585366E+02
    0.29799072383977847522E+02
    0.16857067445668647565E+02
    0.16796863303046162486E+02
    0.33975645548112169081E+02
    0.33819058395892497515E+02
    0.32928884953734886665E+02
    0.15284275268803515502E+02
    0.22787313246329347294E+02
    0.18406132050892733076E+02
    0.17317989928685221912E+02
    0.18128047031220337004E+02
    0.22182048130176088563E+02
    0.30575364507642611045E+02
    0.21613581310060965279E+02
    0.33688358469468546730E+02
    0.26364328221588571921E+02
    0.34874756150169730518E+02
    0.19965837458964152518E+02
    0.17822962922381957895E+02
    0.22564887536246128974E+02
    0.32477007282256991516E+02
    0.21253779004569537392E+02
    0.20671578742445170462E+02
    0.32533336824996098358E+02
    0.32496105054878334784E+02
    0.32470778516707532901E+02
    0.32510220367695978894E+02
    0.32871865243943986457E+02
    0.23895870242514735793E+02
    0.30608554751183405074E+02
    0.31956119766540492577E+02
    0.18802545674524051122E+02
    0.20445189272876945097E+02
    0.20396771119966956576E+02
    0.14235191406887979682E+02
    0.21213135808187143283E+02
    0.13511393823523603075E+02
    0.32542474855334198480E+02
    0.22487524375216533912E+02
    0.20962376828884121238E+02
    0.20990788082450304586E+02
    0.20410305336143132138E+02
    0.29254199868490943004E+02
    0.31216115642901684168E+02
    0.34387270423073935888E+02
    0.19849925615833790005E+02
    0.14408871910699067698E+02
    0.26038998642958457452E+02
    0.27458232628755474991E+02
    0.33844460100202923059E+02
    0.21268300376365530724E+02
    0.21613821033827033347E+02
    0.30959205197326092218E+02
    0.34231519443626865495E+02
    0.17294529486107695249E+02
    0.25607166019746220087E+02
    0.33951769757822177098E+02
    0.24772143207414835331E+02
    0.32957748285022134382E+02
    0.19723361933347387520E+02
    0.30259017002770221438E+02
    0.20336096778010279706E+02
    0.27739133222217919439E+02
    0.21006833061050382838E+02
    0.29711776757133545601E+02
    0.20570206041517227646E+02
    0.26271468283935956123E+02
    0.25608111717884945335E+02
    0.31717469053320471062E+02
    0.20389861941034784110E+02
    0.14054565344041085595E+02
    0.13696574721162342314E+02
    0.21867008000002527979E+02
    0.13606615687317706431E+02
    0.22744165290315777384E+02
    0.19761288921330468327E+02
    0.20240433474135137715E+02
    0.14675904570389572967E+02
    0.14885853223993358085E+02
    0.34491703247235683705E+02
    0.34334581492200008768E+02
    0.31403013454264705473E+02
    0.24035254750364789089E+02
    0.31700873986616961986E+02
    0.31019981326225462226E+02
    0.16741497761521234366E+02
    0.34132076652160897368E+02
    0.34328218103394696925E+02
    0.34340800956089296392E+02
    0.15493370831260040887E+02
    0.15917948141584156829E+02
    0.34102384243157608523E+02
    0.33706178762106816293E+02
    0.21448219040115233724E+02
    0.21421214000721114701E+02
    0.30874888612239402619E+02
    0.20768649967892347519E+02
    0.28255804654862771486E+02
    0.32358544759680675895E+02
    0.31327233550230719317E+02
    0.27078848618947535698E+02
    0.31245030367071453981E+02
    0.34253202586213539860E+02
    0.29694877517009359735E+02
    0.15994754753874264708E+02
    0.20358341744103171322E+02
    0.16495480553776310728E+02
    0.24377243945741611242E+02
    0.28908143706810783158E+02
    0.27807865421186569677E+02
    0.13661637884026799128E+02
    0.33940854778115173929E+02
    0.31176241797131709177E+02
    0.18386350454970678214E+02
    0.33433239191319657380E+02
    0.25706987915837885339E+02
    0.13834062599481166345E+02
    0.30198409514671805454E+02
    0.34353658762282627492E+02
    0.18178632350182237332E+02
    0.21758222871491657457E+02
    0.26292924132380449009E+02
    0.20929393281275309846E+02
    0.33659231308958695195E+02
    0.13484793310002110900E+02
    0.28682866064909106285E+02
    0.13555657471557131188E+02
    0.13820916317871224877E+02
    0.13918699786909764171E+02
    0.23666870620773774903E+02
    0.13295189982349119973E+02
    0.20262709850042352144E+02
    0.16598432001222011678E+02
    0.13722915012245612942E+02
    0.22763152810387897063E+02
    0.13409316119321003313E+02
    0.30506128632680940882E+02
    0.30910976003564677228E+02
    0.13573500974247659556E+02
    0.21632493370482986705E+02
    0.21540268254920281521E+02
    0.32474766143982250810E+02
    0.25292046208173676547E+02
    0.29558653620136812634E+02
    0.19695962431768293754E+02
    0.20947646317499447832E+02
    0.33270789200982576972E+02
    0.19359179059390744015E+02
    0.32208144593578552417E+02
    0.33020565370953534057E+02
    0.20881191633785828543E+02
    0.20052930274283557566E+02
    0.28802778263113687274E+02
    0.21081729208277604215E+02
    0.32897251494657446358E+02
    0.33097421390391090767E+02
    0.33231011046521082619E+02
    0.33249280222025504372E+02
    0.25231646220587862217E+02
    0.34803665683542234888E+02
    0.25315380918955987966E+02
    0.28966118094073255662E+02
    0.20277343127561746172E+02
    0.32687419224460342093E+02
    0.15354612921010067694E+02
    0.24227493994008220568E+02
    0.23090054365854875584E+02
    0.23241974555600723562E+02
    0.28390678130425751391E+02
    0.33212947334242002739E+02
    0.31854797987961276817E+02
    0.20004789928087628681E+02
    0.19872447545588030948E+02
    0.25178695928855823638E+02
    0.17227307436104236871E+02
    0.28775190051459208718E+02
    0.15902401586840104741E+02
    0.21762082712721454669E+02
    0.29508760808579094004E+02
    0.22024145603349456479E+02
    0.31328776400347567943E+02
    0.35051652858071697949E+02
    0.20328360244606525242E+02
    0.31914423960181895978E+02
    0.30727297367518612958E+02
    0.33221398460896722327E+02
    0.31381711987123182439E+02
    0.33087120155886374562E+02
    0.32819665728602920751E+02
    0.32981853573369100729E+02
    0.35752423436719141137E+02
    0.32165209053976717257E+02
    0.34325747989587981124E+02
    0.26675596186097202178E+02
    0.32365197337991219229E+02
    0.35351875729901273360E+02
    0.15908790311581597621E+02
    0.16798085389421721914E+02
    0.35609754273902048283E+02
    0.35501510643915572984E+02
    0.22508730225311957440E+02
    0.25359052193066656145E+02
    0.20953058275418769085E+02
    0.29963651653799217911E+02
    0.33148766012063653363E+02
    0.30263800963334990257E+02
    0.32720410887341508044E+02
    0.33115242710198344867E+02
    0.32453798768504526606E+02
    0.33804599997542254641E+02
    0.13965898612871040285E+02
    0.20985648859210066064E+02
    0.18568947627499930775E+02
    0.32545209320236516248E+02
    0.33281742736878598521E+02
    0.33453021514385433477E+02
    0.33414495387376753399E+02
    0.32368878001903247821E+02
    0.32614421045594731652E+02
    0.20840721766365902567E+02
    0.20087839996478930260E+02
    0.20157392446813094722E+02
    0.21943821245420995325E+02
    0.21190499998336459697E+02
    0.22262558228311629449E+02
    0.22844349842677047491E+02
    0.21754906674703768488E+02
    0.22819323702285373656E+02
    0.27006647074109245921E+02
    0.23935840156837876691E+02
    0.20434301756436084929E+02
    0.22628398834567661879E+02
    0.21399336192926412537E+02
    0.20255547711278492073E+02
    0.18354784706593374466E+02
    0.13302277578178282269E+02
    0.13745907600590703268E+02
    0.13456222913521482809E+02
    0.13491861212416074167E+02
    0.13525986465681658188E+02
    0.14312209923026891545E+02
    0.14887266546591812144E+02
    0.14012815767774798204E+02
    0.13371734259336838235E+02
    0.14079659882397095316E+02
    0.15684509675963315800E+02
    0.13510816647500259791E+02
    0.13319814663479769834E+02
    0.30562500593226801016E+02
    0.30897039980670211179E+02
    0.28959731490600741921E+02
    0.23881098448891567188E+02
    0.19988106747877711911E+02
    0.19320117462272957454E+02
    0.21244804059650046923E+02
    0.19185636650960049110E+02
    0.21114217862684945715E+02
    0.21927831709713995423E+02
    0.21868147835029429160E+02
    0.21266048365163594980E+02
    0.22298812314848412086E+02
    0.23191654225608616002E+02
    0.26373970837780149168E+02
    0.22605045034651233493E+02
    0.32954767060234630094E+02
    0.23786879501612666843E+02
    0.16768440144415354354E+02
    0.15461343085911700257E+02
    0.14625859455813907672E+02
    0.15040295472224356033E+02
    0.34072034943853871880E+02
    0.33461785951499813052E+02
    0.32891133464222733096E+02
    0.32990195006535799394E+02
    0.30881814387333751171E+02
    0.31719885929789644052E+02
    0.32183263999017711399E+02
    0.33544012471295573619E+02
    0.32626817991377023986E+02
    0.32986950143962516790E+02
    0.14004604298920202865E+02
    0.13644627999349310699E+02
    0.34573217045459159635E+02
    0.15222676231998908847E+02
    0.34222352959744597456E+02
    0.34329571079215057239E+02
    0.33808793031613284086E+02
    0.32943000361111145935E+02
    0.34014133107559665348E+02
    0.13888364416889810826E+02
    0.13771376671218128251E+02
    0.34097281414189765769E+02
    0.33013497283912656144E+02
    0.33360605624993453944E+02
    0.33778466590768672972E+02
    0.34667230198219520787E+02
    0.20640925814243601621E+02
    0.20551825648487000109E+02
    0.20043742905049754199E+02
    0.20865661816403392237E+02
    0.21661819165198682668E+02
    0.20653006430285248740E+02
    0.20180172100259767376E+02
    0.19728862971416770478E+02
    0.19764960187859387020E+02
    0.19703544428624741869E+02
    0.20023509969886699622E+02
    0.19936163513960096338E+02
    0.22716998896237331707E+02
    0.24425559501989955180E+02
    0.21986633631780961196E+02
    0.21942786082278590953E+02
    0.22583057197023848062E+02
    0.22339416973942455513E+02
    0.23770671418648745998E+02
    0.26239325410883370893E+02
    0.23561527694629504026E+02
    0.27986441577910081691E+02
    0.27151057238084330692E+02
    0.28127071845364387315E+02
    0.20240318469177456251E+02
    0.20869952084394398639E+02
    0.17905412615159224998E+02
    0.19341803922362689860E+02
    0.19101578509703962538E+02
    0.18683942121160669103E+02
    0.17451595938627669113E+02
    0.15042504792766898447E+02
    0.18445815813303074293E+02
    0.16326119090356655761E+02
    0.31104244304988000636E+02
    0.32276317575972512941E+02
    0.31152423076882648445E+02
    0.31122248028853945812E+02
    0.30322511692826534357E+02
    0.29734600210279253929E+02
    0.30906880726297693229E+02
    0.26384916351688580960E+02
    0.22407425729535230374E+02
    0.21984587486814074708E+02
    0.25730977264450835662E+02
    0.27042666855286935146E+02
    0.24077733896397177205E+02
    0.22280199706745253962E+02
    0.23932923572407375445E+02
    0.19865550693126277082E+02
    0.22508536365744582497E+02
    0.21602218138276541026E+02
    0.17283000710369893937E+02
    0.15472785989813315766E+02
    0.18363570784928661794E+02
    0.17398614771163586568E+02
    0.16034912196307736565E+02
    0.15467094405065045848E+02
    0.16072196496756035344E+02
    0.16919043114616250989E+02
    0.16282930423967354017E+02
    0.16211480874294252885E+02
    0.33001248954254407408E+02
    0.33157530712976800658E+02
    0.34030405232579724384E+02
    0.32622459277841890923E+02
    0.30327463734874513079E+02
    0.31482043791069042271E+02
    0.13380923718947661527E+02
    0.13300583548131722722E+02
    0.34342272923772547699E+02
    0.34316081725033264149E+02
    0.34306946630630164918E+02
    0.33717406389516050069E+02
    0.33922424593816550953E+02
    0.34075838450695904669E+02
    0.33566192965186168351E+02
    0.34372863311861934221E+02
    0.21797333240986262126E+02
    0.26083217241767492567E+02
    0.23985886023135968514E+02
    0.26834660799429041589E+02
    0.19619443904545438073E+02
    0.19214174983763918192E+02
    0.18357591751567206018E+02
    0.16907272676928695176E+02
    0.30773330960463880501E+02
    0.31344198600052536108E+02
    0.30220249693811418013E+02
    0.30528290016971702414E+02
    0.27594238232463013105E+02
    0.27463264408920082360E+02
    0.28012015978160647478E+02
    0.25000366669108128548E+02
    0.21881319454422804682E+02
    0.20854624605962097661E+02
    0.22910890305140345191E+02
    0.21349355073904366265E+02
    0.21413161080798449376E+02
    0.18003149209002049957E+02
    0.20386869012125007572E+02
    0.19845872961860994366E+02
    0.15125796542289815960E+02
    0.16233838949435032362E+02
    0.15146279877683786808E+02
    0.15851162689637424918E+02
    0.15189758918912698249E+02
    0.14873934504842234006E+02
    0.17472313483154216840E+02
    0.15933520478426196121E+02
    0.18217741024100487124E+02
    0.17266662219801883538E+02
    0.18957108535702886343E+02
    0.22587067551215984196E+02
    0.18556865121345506253E+02
    0.18213109006989597560E+02
    0.18835750401924897801E+02
    0.19365444901536083222E+02
    0.33595926396360042077E+02
    0.33927942632267125589E+02
    0.33305804473757660844E+02
    0.35245246182766450715E+02
    0.34352892572852177011E+02
    0.33521807576547125507E+02
    0.33336242598797973358E+02
    0.33829858111756557548E+02
    0.33177298684658424577E+02
    0.33196776426310087516E+02
    0.32587219978779636165E+02
    0.32924410960493887046E+02
    0.32465124815760290744E+02
    0.31359717569819611782E+02
    0.21297350570612863407E+02
    0.23790679976759079750E+02
    0.24696706057203694940E+02
    0.25330793776380723159E+02
    0.24805152939592510108E+02
    0.28069248597600420680E+02
    0.26745331948862649085E+02
    0.24868763706245143652E+02
    0.19292724608544510545E+02
    0.17274929418304957096E+02
    0.23059295856030466609E+02
    0.25184793841196849939E+02
    0.24037751131583096509E+02
    0.23373350324793712218E+02
    0.25490761086685264303E+02
    0.27025848920217359961E+02
    0.25837596614686948016E+02
    0.23676405285935150147E+02
    0.17920381218375393217E+02
    0.22634264680075794729E+02
    0.20998706429616433411E+02
    0.23282603301624522629E+02
    0.22975065706007864463E+02
    0.21558007176596433396E+02
    0.23761225659026582235E+02
    0.24461107619862914930E+02
    0.20405377255387691093E+02
    0.20016570891033872215E+02
    0.20999140212789122018E+02
    0.19312826888973464889E+02
    0.22400125127556325566E+02
    0.19871904154296881728E+02
    0.18886329924699840177E+02
    0.18488039514486914072E+02
    0.19519688134883345754E+02
    0.18998839593182317742E+02
    0.15926147298566705857E+02
    0.15234519041521986438E+02
    0.14580468939883552082E+02
    0.15061593610205532556E+02
    0.14164028233813295898E+02
    0.14381316848939560415E+02
    0.16257532564302756839E+02
    0.16872025033002586270E+02
    0.33588797827774499183E+02
    0.33120040081613389304E+02
    0.18196119493852688009E+02
    0.19264706872946412375E+02
    0.23619753529950411775E+02
    0.22334079879374581168E+02
    0.27219401207413259414E+02
    0.22470001780367471866E+02
    0.22712204967953532275E+02
    0.19929095206026946840E+02
    0.24559184383876093705E+02
    0.23325509877342945231E+02
    0.32650700221230124498E+02
    0.32199038668127698770E+02
    0.21968752394988207755E+02
    0.22984107588710450898E+02
    0.33785065432598443635E+02
    0.33001444986323207331E+02
    0.34064885680335258655E+02
    0.33441689839225091418E+02
    0.32993799240848446175E+02
    0.31743814403803341406E+02
    0.32613420896427562923E+02
    0.33169884305746940356E+02
    0.32470735126210598764E+02
    0.32605364447300118513E+02
    0.32668073852770547205E+02
    0.32590079239504554209E+02
    0.32942693022823341664E+02
    0.32776536215340811964E+02
    0.21651274096560012339E+02
    0.26342713814637971126E+02
    0.20596889439364325369E+02
    0.22904174131020958782E+02
    0.23773360308434721588E+02
    0.27576263971300456035E+02