# vtk DataFile Version 3.0
LAPLACIEN  2D
ASCII
DATASET UNSTRUCTURED_GRID
 POINTS        1616  float
  0.45880792999999997       0.87913892999999999        0.0000000000000000     
  0.40372658000000000       0.18243693000000000        0.0000000000000000     
  0.52563972999999997       0.19039755999999999        0.0000000000000000     
  0.45642953000000003       0.24226190000000000        0.0000000000000000     
  0.51984098000000001       0.24548566999999999        0.0000000000000000     
  0.21212766999999999       0.18957676000000001        0.0000000000000000     
  0.28573643999999998       0.48586826999999999        0.0000000000000000     
  0.49667887999999999       0.82979849000000006        0.0000000000000000     
  0.22848407000000001       0.23366793000000000        0.0000000000000000     
  0.27860389000000002       0.86069733000000004        0.0000000000000000     
  0.36563702999999997       0.80971340999999997        0.0000000000000000     
  0.28045499000000002       0.80393031999999998        0.0000000000000000     
  0.40374228000000001       0.78127665000000002        0.0000000000000000     
  0.56160891999999996       0.55341227999999998        0.0000000000000000     
  0.37210935000000001       0.26787699999999998        0.0000000000000000     
  0.49899838000000002       0.57286409999999999        0.0000000000000000     
  0.41023869000000002       0.33464665999999998        0.0000000000000000     
  0.33484156999999998       0.29151022999999998        0.0000000000000000     
  0.46758665999999999       0.58262307999999996        0.0000000000000000     
  0.43303693999999998       0.36569945999999998        0.0000000000000000     
  0.25741280000000000       0.61805882999999995        0.0000000000000000     
  0.28853707000000001       0.59423020000000004        0.0000000000000000     
  0.67837254000000002       0.45038665999999999        0.0000000000000000     
  0.42159046000000000       0.50697913999999999        0.0000000000000000     
  0.60276470999999998       0.73940291000000002        0.0000000000000000     
  0.30758273000000003       0.77844542000000005        0.0000000000000000     
  0.45367541000000000       0.31842187000000000        0.0000000000000000     
  0.36974101999999998       0.35807864000000000        0.0000000000000000     
  0.26919625000000003       0.65312176000000000        0.0000000000000000     
  0.61908110999999999       0.42741791000000001        0.0000000000000000     
  0.54442267000000000       0.74200747000000000        0.0000000000000000     
  0.58930464999999999       0.41588288000000001        0.0000000000000000     
  0.51511633000000001       0.74331579000000003        0.0000000000000000     
  0.12878382999999999       0.33122940000000001        0.0000000000000000     
  0.15534365000000000       0.71749246000000000        0.0000000000000000     
  0.64877724999999997       0.30161799000000000        0.0000000000000000     
  0.58853643000000000       0.28101930000000003        0.0000000000000000     
  0.56390348000000001       0.30132482999999999        0.0000000000000000     
  0.29605991999999998       0.44474459999999999        0.0000000000000000     
  0.29900669000000002       0.52983276000000001        0.0000000000000000     
  0.55954318999999997       0.48654808999999999        0.0000000000000000     
  0.42341458999999998       0.38785072999999998        0.0000000000000000     
  0.45806291999999998       0.35892998999999998        0.0000000000000000     
  0.47820750000000001       0.31147424000000001        0.0000000000000000     
  0.36344222999999998       0.38139388000000002        0.0000000000000000     
  0.17186508000000000       0.28159534000000003        0.0000000000000000     
  0.18029876000000000       0.33292397000000001        0.0000000000000000     
  0.20696366999999999       0.71822465999999996        0.0000000000000000     
  0.61326404999999995       0.34468346000000000        0.0000000000000000     
  0.29887186999999998       0.42337377999999998        0.0000000000000000     
  0.33271837999999998       0.44383096000000000        0.0000000000000000     
  0.31835012000000001       0.54267131999999996        0.0000000000000000     
  0.54882964999999995       0.45462609999999998        0.0000000000000000     
  0.20448143999999999       0.28717446000000002        0.0000000000000000     
  0.20634120000000000       0.33378063000000002        0.0000000000000000     
  0.23301781999999999       0.71859421999999995        0.0000000000000000     
  0.58606499999999995       0.35199907000000002        0.0000000000000000     
  0.20841100000000001       0.45369578999999999        0.0000000000000000     
  0.24778198000000001       0.77708496000000005        0.0000000000000000     
  0.30748062999999998       0.61002621000000001        0.0000000000000000     
  0.23337332000000000       0.41981835000000001        0.0000000000000000     
  0.25985113999999998       0.75924943000000000        0.0000000000000000     
  0.24610213000000000       0.40254353999999998        0.0000000000000000     
  0.37350351999999998       0.50127178999999999        0.0000000000000000     
  0.43235204999999999       0.78236391000000005        0.0000000000000000     
  0.30749858000000002       0.28582627999999999        0.0000000000000000     
  0.30336816000000000       0.64635111000000001        0.0000000000000000     
  0.31418906000000002       0.43625961000000002        0.0000000000000000     
  0.27223414000000001       0.78063022000000004        0.0000000000000000     
  0.22829299000000000       0.75089561000000005        0.0000000000000000     
  0.26580239000000000       0.42989294000000000        0.0000000000000000     
  0.37369119000000001       0.51975733999999996        0.0000000000000000     
  0.39681665999999999       0.51027884000000001        0.0000000000000000     
  0.32086795000000001       0.65137668999999998        0.0000000000000000     
  0.31757218999999998       0.62987181000000003        0.0000000000000000     
  0.32959777000000001       0.42500900000000003        0.0000000000000000     
  0.24663835000000001       0.74537787000000000        0.0000000000000000     
  0.26354222999999999       0.41075105000000001        0.0000000000000000     
  0.28343712999999998       0.43221330000000002        0.0000000000000000     
  0.34682245000000000       0.43182289000000001        0.0000000000000000     
  0.35306810000000000       0.45344571000000000        0.0000000000000000     
  0.57327218000000002       0.15829040000000000        0.0000000000000000     
  0.51473097999999995       0.12621746000000000        0.0000000000000000     
  0.72829681999999996       0.40151571000000003        0.0000000000000000     
  0.42703184999999999       0.53501600999999999        0.0000000000000000     
  0.32612607999999998       0.75472421999999995        0.0000000000000000     
   9.9814849999999997E-002  0.28081352999999998        0.0000000000000000     
  0.13945825000000001       0.78732252999999996        0.0000000000000000     
  0.44199519999999998       0.38275643999999998        0.0000000000000000     
  0.40132215999999998       0.36508836000000000        0.0000000000000000     
  0.43963142999999999       0.34043466999999999        0.0000000000000000     
  0.47160058999999999       0.33493045999999999        0.0000000000000000     
  0.45615203999999998       0.28038164999999998        0.0000000000000000     
  0.34321279999999998       0.35314412000000001        0.0000000000000000     
  0.29178279000000001       0.56170810000000004        0.0000000000000000     
  0.49833080000000002       0.48416767999999999        0.0000000000000000     
  0.46386271000000001       0.46452802999999998        0.0000000000000000     
  0.44722043000000000       0.45300645000000000        0.0000000000000000     
  0.46562803000000003       0.44419790999999997        0.0000000000000000     
  0.43925322000000000       0.48229485999999999        0.0000000000000000     
  0.49117628000000002       0.45665803999999999        0.0000000000000000     
  0.43435156000000003       0.46523363000000001        0.0000000000000000     
  0.19405754000000000       0.31093060000000000        0.0000000000000000     
  0.22069087000000001       0.66905079000000001        0.0000000000000000     
  0.30776597999999999       0.59042684000000001        0.0000000000000000     
  0.29541507000000000       0.57849362000000004        0.0000000000000000     
  0.28335474999999999       0.61970232999999997        0.0000000000000000     
  0.29935165000000002       0.62852803999999995        0.0000000000000000     
  0.28459435999999999       0.64121777000000002        0.0000000000000000     
  0.26698675999999999       0.63435282999999998        0.0000000000000000     
  0.24031983000000001       0.64700659000000005        0.0000000000000000     
  0.33118850000000000       0.50233682999999996        0.0000000000000000     
  0.35257061000000001       0.51072803000000000        0.0000000000000000     
  0.29038973000000001       0.78732479000000000        0.0000000000000000     
  0.28737915000000003       0.76752330999999996        0.0000000000000000     
  0.21978159000000000       0.73315437000000006        0.0000000000000000     
  0.18119734000000001       0.76257752999999995        0.0000000000000000     
  0.20353571000000001       0.75186065999999996        0.0000000000000000     
  0.39122694000000002       0.49007234000000000        0.0000000000000000     
  0.59140473999999998       0.13507609000000001        0.0000000000000000     
  0.53156702000000000        9.7663528999999999E-002   0.0000000000000000     
  0.76346223999999996       0.39657278000000001        0.0000000000000000     
  0.41119013999999998       0.52354409999999996        0.0000000000000000     
   7.2558165999999993E-002  0.26885883999999999        0.0000000000000000     
  0.10497347000000000       0.79895936000000001        0.0000000000000000     
[...]
 CELL_DATA        2963
 SCALARS Nutrients float
 LOOKUP_TABLE default
    0.36403883283066448939E+02
    0.36271907092271916895E+02
    0.33493466119638384271E+02
    0.36088237361713112250E+02
    0.35546469264523345544E+02
    0.35842891449558123895E+02
    0.35451057903107027869E+02
    0.34877028263082372916E+02
    0.36688322912019408761E+02
    0.11390830077737284398E+02
    0.37385448413933488609E+02
    0.32788473667359752994E+02
    0.32536370816618962465E+02
    0.37006344721703356981E+02
    0.36915665306880065089E+02
    0.32028302689181330720E+02
    0.12241067665812748189E+02
    0.34819044462539032736E+02
    0.35643412075701021990E+02
    0.30800494438674057562E+02
    0.32988530052755770328E+02
    0.12505090756853304512E+02
    0.11516950337245789981E+02
    0.30624038039376731746E+02
    0.26411005532409728147E+02
    0.36184399507652855732E+02
    0.29840765125040835670E+02
    0.35925077401472314875E+02
    0.33772226063753684855E+02
    0.21747747442111236893E+02
    0.35128348299575833380E+02
    0.36098665560001272468E+02
    0.32148116720697835547E+02
    0.23419817519142519302E+02
    0.31835918304908169318E+02
    0.26076516847151982148E+02
    0.32594576030205352879E+02
    0.21690370340509460334E+02
    0.26387677143632370047E+02
    0.30196986632110757398E+02
    0.24616483998133723787E+02
    0.35546213777936777944E+02
    0.28305721407052850225E+02
    0.23046215839780082035E+02
    0.36721070927259290784E+02
    0.15819273437044113706E+02
    0.27082653044636657569E+02
    0.36803806532241203797E+02
    0.21062944468521045849E+02
    0.36854099592899181914E+02
    0.17978022839893121443E+02
    0.16133147499613805564E+02
    0.17888263492258474230E+02
    0.16656770806921660011E+02
    0.33039795630367201795E+02
    0.31267024712392039731E+02
    0.23256287662876257372E+02
    0.17379656194054085461E+02
    0.12216506141892987003E+02
    0.34872351392149667504E+02
    0.13164049436360258483E+02
    0.37146165348617032009E+02
    0.37207834632035336142E+02
    0.35919395237983536617E+02
    0.36272048634044359972E+02
    0.14381111423395708471E+02
    0.33907433854494136938E+02
    0.12588037766887120839E+02
    0.23240967228273152756E+02
    0.34853499607417383288E+02
    0.25496538529647573057E+02
    0.13958829841293889373E+02
    0.32406871638680740944E+02
    0.28901645769619030091E+02
    0.11505209805291011449E+02
    0.11549398447774889220E+02
    0.11795904142286408600E+02
    0.11819499560672745986E+02
    0.18733843322436865009E+02
    0.14839345986492377349E+02
    0.36373510049729112836E+02
    0.17344734107380375576E+02
    0.12668772315950095120E+02
    0.11022616006677568024E+02
    0.20355548706336449527E+02
    0.32122356197470168127E+02
    0.34160246245578093749E+02
    0.28767354753306477733E+02
    0.28768756970245945581E+02
    0.36394717727939202234E+02
    0.29306309251114722514E+02
    0.17578054346200744362E+02
    0.11538039506798195788E+02
    0.16864307826345569907E+02
    0.23138923585508596403E+02
    0.19002610038023668437E+02
    0.11967948021854901697E+02
    0.30307205376985422163E+02
    0.20415410063556034714E+02
    0.33448962131780128004E+02
    0.32819146629081402011E+02
    0.28009345896934004116E+02
    0.17311458273498367078E+02
    0.31531083680834573357E+02
    0.32817829741147939160E+02
    0.35415116778101399575E+02
    0.31583592371103357266E+02
    0.36344868031787108009E+02
    0.16701483342421603595E+02
    0.33687952807310637127E+02
    0.34009549802741823044E+02
    0.33785942551592171412E+02
    0.28715599141314662290E+02
    0.34170191866836859163E+02
    0.36949445050961884363E+02
    0.34242537476966909082E+02
    0.37073988628251051125E+02
    0.37388603056270909519E+02
    0.11095728658742393336E+02
    0.13299631129100609073E+02
    0.33952051379345704163E+02
    0.35968515904148695483E+02
    0.16020572836470282851E+02
    0.22818576300331233853E+02
    0.17322897352614077704E+02
    0.24925014337239453255E+02
    0.35715896886179514524E+02
    0.15231010904280887885E+02
    0.35120479268354152680E+02
    0.12288969479760739389E+02
    0.18885135147968899361E+02
    0.17790673819294504199E+02
    0.29152896776619321884E+02
    0.18731952337090241656E+02
    0.30914692555477444103E+02
    0.13752572334013382971E+02
    0.13708473824309827194E+02
    0.36084024421229337065E+02
    0.35489463808667991884E+02
    0.35039642881383535666E+02
    0.12095148868278705834E+02
    0.20930132434029591337E+02
    0.18511515973878204022E+02
    0.14239404304607280238E+02
    0.15167108504365732102E+02
    0.19992309921129187700E+02
    0.32684459273542799451E+02
    0.19165261555786926806E+02
    0.34888016015951812676E+02
    0.26305131441682075177E+02
    0.36470766067604991179E+02
    0.20421736694959538028E+02
    0.14857838951527272187E+02
    0.20551820776851418060E+02
    0.31513163367096939993E+02
    0.18039629667347796271E+02
    0.17200158087638289572E+02
    0.31680147149490718306E+02
    0.31577857073820652545E+02
    0.31498968648609515952E+02
    0.31608832191217043572E+02
    0.32698305877881665538E+02
    0.22657034797960911021E+02
    0.31903944802143875847E+02
    0.33139823101289159979E+02
    0.16024220742254218663E+02
    0.16871586991441713366E+02
    0.17684726752065699884E+02
    0.11332270041927264614E+02
    0.18635240982736309689E+02
    0.10964568527155329036E+02
    0.31719088540738237469E+02
    0.19827269268855285844E+02
    0.19216599900501602605E+02
    0.17656941512604465316E+02
    0.16827884654437244905E+02
    0.30715946169067223082E+02
    0.32319294606706066020E+02
    0.36416056080526217897E+02
    0.16030741953838990810E+02
    0.11432765490608973735E+02
    0.25083239313398632220E+02
    0.27180231083824189398E+02
    0.34817511160770500567E+02
    0.18055748502236820485E+02
    0.18555507749741231294E+02
    0.32480595960261887001E+02
    0.36365203176206783553E+02
    0.14268185938870981744E+02
    0.24444997784131452079E+02
    0.35950991266089822318E+02
    0.26691416886583223089E+02
    0.35258424024495347737E+02
    0.15857940229107065022E+02
    0.32302686666734672372E+02
    0.16718948116568341788E+02
    0.29789621868567433438E+02
    0.18613570612519446001E+02
    0.30521145913238179048E+02
    0.17060066088250497529E+02
    0.25422124619831468095E+02
    0.24457408364413794288E+02
    0.33628351819701407521E+02
    0.18441083380317010665E+02
    0.12570528819711849877E+02
    0.12073875092498090211E+02
    0.20436399490859077588E+02
    0.12007862412410689856E+02
    0.24125329934256765085E+02
    0.15912954795371945238E+02
    0.16586904769802771398E+02
    0.12538146855213804898E+02
    0.12981781784638542376E+02
    0.36507067544451182073E+02
    0.36365228947009946125E+02
    0.32711591987047619057E+02
    0.23410343923303635449E+02
    0.33363018085199371399E+02
    0.33105165183450566246E+02
    0.13787153091132161364E+02
    0.36147772398677119554E+02
    0.36359979353771237243E+02
    0.36395275691603274026E+02
    0.12317197137702500243E+02
    0.12793621458390090240E+02
    0.36116758471205770320E+02
    0.35778932941802914058E+02
    0.19024830990834576738E+02
    0.18941566534064811833E+02
    0.32325436790779718876E+02
    0.18126286262103182167E+02
    0.28359575178767784109E+02
    0.33689698221251283883E+02
    0.33323996327525840400E+02
    0.27567573842836004872E+02
    0.32964697959960659546E+02
    0.36360772954532407653E+02
    0.31786983222786584946E+02
    0.14399583258254816442E+02
    0.21126072670025251909E+02
    0.13482927966677209497E+02
    0.22620159997032253330E+02
    0.31090794272264890452E+02
    0.29878095239099657476E+02
    0.11351427916003776986E+02
    0.36147543883833286316E+02
    0.33058379730118609530E+02
    0.15407836374738300478E+02
    0.35735711247379150279E+02
    0.27581219876092699650E+02
    0.11063363393334281426E+02
    0.31730181089461581223E+02
    0.36461599637335595503E+02
    0.18249753874196184000E+02
    0.19366256188304998176E+02
    0.25998352485465385797E+02
    0.19179580645143460060E+02
    0.35894421006912949679E+02
    0.11035291154202157671E+02
    0.29205757656782981968E+02
    0.10986997057327851479E+02
    0.11140987088665649907E+02
    0.11147934991976940822E+02
    0.21566942933600408594E+02
    0.11200231795389536060E+02
    0.16620619597754906493E+02
    0.16106417684918660882E+02
    0.11160785461784772821E+02
    0.21302308123087861702E+02
    0.11660913251443339789E+02
    0.32105902263703761434E+02
    0.32866671344917058661E+02
    0.11134039012522380929E+02
    0.19732531820403210077E+02
    0.19864938484642742367E+02
    0.34502204856640780406E+02
    0.23983697297570667928E+02
    0.30517288923491062036E+02
    0.15820628387284838112E+02
    0.18810828135186284271E+02
    0.35368149036203014646E+02
    0.16499664314588606828E+02
    0.33916905416651623284E+02
    0.33268476418422551433E+02
    0.18807416237929114544E+02
    0.16312636579333464226E+02
    0.30876611109816998635E+02
    0.18987487751786357393E+02
    0.35307003185767754871E+02
    0.33569056512835317108E+02
    0.33764419503647701504E+02
    0.33701600729800006206E+02
    0.25096017565705668773E+02
    0.36377939676889120335E+02
    0.24005631544361296648E+02
    0.31166015652152598392E+02
    0.18055151535647819827E+02
    0.32117783738809016825E+02
    0.14166923836558254379E+02
    0.23376235744754293222E+02
    0.21871258860858890927E+02
    0.22361929040096210741E+02
    0.28979461260841159032E+02
    0.35397516109939580531E+02
    0.33766832639512891490E+02
    0.16254851040124055572E+02
    0.17929533051469146443E+02
    0.23818683665219310797E+02
    0.15181089762075663074E+02
    0.30235966649530247707E+02
    0.12778456737918393316E+02
    0.20292637201536667391E+02
    0.31299367873561553921E+02
    0.20285927625474769798E+02
    0.32780630050027049549E+02
    0.36895223364012679212E+02
    0.18351765437225356692E+02
    0.34313659682861434419E+02
    0.33054397295136077162E+02
    0.34347150679557877595E+02
    0.32616336119126010828E+02
    0.33775547454334422071E+02
    0.34147026102114310220E+02
    0.33760894530305108674E+02
    0.37491637127438060872E+02
    0.33409056591241046874E+02
    0.36010946426457707048E+02
    0.27654742128608674534E+02
    0.34274409301076531165E+02
    0.37207760588348030240E+02
    0.12823126562567818354E+02
    0.13852832739745538859E+02
    0.37365736758897007519E+02
    0.37243687483204503508E+02
    0.20664668973996878520E+02
    0.24076698323123640222E+02
    0.18308740046859210082E+02
    0.30951918169505074019E+02
    0.35155682755761425540E+02
    0.31327965279443116486E+02
    0.33806816193739685161E+02
    0.35243334277585312009E+02
    0.34931643470697103737E+02
    0.34803522608734240862E+02
    0.11142675133385520070E+02
    0.19246100086803423324E+02
    0.16041741455620186940E+02
    0.33788566989650227868E+02
    0.33603373434909578066E+02
    0.35656619144143178346E+02
    0.35593655193665043157E+02
    0.34105555665968189771E+02
    0.34297717656252963536E+02
    0.17444003732482553204E+02
    0.16371252330121397023E+02
    0.16470945314458980135E+02
    0.19040694144551192579E+02
    0.17950218598137247739E+02
    0.19508044344947922610E+02
    0.20349592707925051371E+02
    0.18765805453947521642E+02
    0.20323285107577696351E+02
    0.26519511971989491173E+02
    0.21959235820827654351E+02
    0.16850218413747448665E+02
    0.20027898016347538857E+02
    0.19224129974651038566E+02
    0.17783196386554259050E+02
    0.18309664536863085260E+02
    0.11311955699261750041E+02
    0.12226660458144005261E+02
    0.11490307046453922979E+02
    0.11821231039783757666E+02
    0.11672108668100285911E+02
    0.13016560417612410561E+02
    0.13501676457925922747E+02
    0.12225709774003387764E+02
    0.11143828545088197757E+02
    0.12684799174388960097E+02
    0.14881667848870607784E+02
    0.11723363679733333598E+02
    0.11160031324262913444E+02
    0.32199434664984785570E+02
    0.32574586941378349536E+02
    0.29893294999501463849E+02
    0.23075543593752932736E+02
    0.17349631463183730062E+02
    0.16517503094486475135E+02
    0.19093935759047010237E+02
    0.16406543578485010215E+02
    0.18610511386769569953E+02
    0.19794228380093073838E+02
    0.19642875592799182272E+02
    0.18891570394907976294E+02
    0.20217424982900833896E+02
    0.21610011347766217682E+02
    0.26069973816170609382E+02
    0.20882473146050038793E+02
    0.35188191411492951488E+02
    0.22605256371426587947E+02
    0.13736025522014619682E+02
    0.12321537897891360558E+02
    0.11616244335650126374E+02
    0.11956145428996372004E+02
    0.35292274533212392384E+02
    0.34715335189997787779E+02
    0.34060325550706878062E+02
    0.33619808568585710873E+02
    0.32060862505490810292E+02
    0.33190163097446131246E+02
    0.33740871421293249455E+02
    0.35548162007928915784E+02
    0.34198232256442771870E+02
    0.34894955820741579089E+02
    0.11141603584998673426E+02
    0.10986964954317839371E+02
    0.36608192418431485748E+02
    0.12042674802179535121E+02
    0.36243495181218555956E+02
    0.36361824453357733944E+02
    0.35783665465237035619E+02
    0.35339093705767069764E+02
    0.36190812853150191586E+02
    0.11528931929635168885E+02
    0.11298748489525783256E+02
    0.36240200278943625278E+02
    0.33364342179125436871E+02
    0.35596418970515692592E+02
    0.35910047894415455971E+02
    0.36570604758800293155E+02
    0.17155771388417285550E+02
    0.17030928138000902550E+02
    0.16311736257682898810E+02
    0.17482553383402184011E+02
    0.18633216023112655790E+02
    0.17178968509359840766E+02
    0.16504455419789337611E+02
    0.15862398353791103744E+02
    0.15918421149192040431E+02
    0.15828774368531819405E+02
    0.16277432118716635756E+02
    0.16156982592724084213E+02
    0.20173980105080456582E+02
    0.22696242999811254037E+02
    0.19096203386681615655E+02
    0.19035142217959517552E+02
    0.19974488675905273993E+02
    0.19613249283005004031E+02
    0.21727593263884241281E+02
    0.25383759956201096486E+02
    0.21419800255067464434E+02
    0.27968645601083665042E+02
    0.26737948370376791729E+02
    0.28160074065164774737E+02
    0.16576505337544958252E+02
    0.17477455169270754709E+02
    0.14883361173036570690E+02
    0.16717757520072527910E+02
    0.16219252594958874170E+02
    0.15830359045653535688E+02
    0.17280322453219728374E+02
    0.13926022367873880370E+02
    0.18480375433908587723E+02
    0.15670432234339491728E+02
    0.32904772906141097621E+02
    0.34340476989482326076E+02
    0.32913462995315263981E+02
    0.32895745130345446228E+02
    0.31865763965763711951E+02
    0.31105430340604275585E+02
    0.32509644203557904518E+02
    0.26228443093455165780E+02
    0.20742788093636889357E+02
    0.20168230493043697749E+02
    0.25438867751552166396E+02
    0.27926502358833637629E+02
    0.23085912624078638089E+02
    0.20782122442949155783E+02
    0.22931663623262256380E+02
    0.17306509761496034372E+02
    0.21042707651776591860E+02
    0.19827890917559845008E+02
    0.14298180922532841564E+02
    0.12366186860286706661E+02
    0.15519403060540247097E+02
    0.14522399583210802376E+02
    0.12926279342105329917E+02
    0.12349333131931079066E+02
    0.12998222767832993796E+02
    0.13994856499764210866E+02
    0.13249552782194591316E+02
    0.13171382451116564027E+02
    0.33478824319283823741E+02
    0.33691632015133194500E+02
    0.35724068669259615660E+02
    0.34372983989756342282E+02
    0.31771200204111213594E+02
    0.33039904359302255443E+02
    0.11011433257321991519E+02
    0.11105246318644748982E+02
    0.36373101812439188052E+02
    0.36346579258637611076E+02
    0.36329448566382062324E+02
    0.35968286307014018632E+02
    0.36116773318869228149E+02
    0.36190888454765271831E+02
    0.35794930754386356853E+02
    0.36415108762115714569E+02
    0.18824217612981279046E+02
    0.25171131432949273687E+02
    0.22048102669267880316E+02
    0.26288821013619418920E+02
    0.20167620665408506397E+02
    0.19591610956776307262E+02
    0.18180234169999263116E+02
    0.16296413644235485663E+02
    0.32489657737816195038E+02
    0.33177232551209584699E+02
    0.31746388151154583568E+02
    0.32125272856906128993E+02
    0.27965833717998116015E+02
    0.27551697985159144366E+02
    0.28597546915190740435E+02
    0.24619441437028140029E+02
    0.20098823148947232653E+02
    0.18593626374532863821E+02
    0.21775401037946398475E+02
    0.19359824781767507318E+02
    0.19705385015886566435E+02
    0.15240967340480064962E+02
    0.18216645551196087638E+02
    0.17331724350461978901E+02
    0.12041415338047123385E+02
    0.13119402412375384515E+02
    0.12012676757530160288E+02
    0.12765342843241491266E+02
    0.12068774008418634125E+02
    0.11745955267159128965E+02
    0.14641695892731926065E+02
    0.12856344058345481329E+02
    0.15574893057172563005E+02
    0.14425397159113231282E+02
    0.16492939547844361670E+02
    0.21432806741954298246E+02
    0.16054375307535991624E+02
    0.15602163222062941372E+02
    0.16305993800842617958E+02
    0.17070021617250525026E+02
    0.35469191134754495920E+02
    0.35769639299332055771E+02
    0.34960006327152548522E+02
    0.37123236088969356672E+02
    0.36292706735652913608E+02
    0.35433690299074449115E+02
    0.35124243839456511296E+02
    0.35782555761680917783E+02
    0.35151127753684839661E+02
    0.35089887387108689154E+02
    0.34098432457073904800E+02
    0.34630391950604355600E+02
    0.34302754970365000986E+02
    0.32942576220019404332E+02
    0.18104851420252206395E+02
    0.21759353291652228535E+02
    0.23106238963297098366E+02
    0.24050851447909060710E+02
    0.23266452938218396440E+02
    0.28111451432513884896E+02
    0.26150009301257515659E+02
    0.23360859952026231667E+02
    0.19668884606488433064E+02
    0.16865575127794173227E+02
    0.21706279900164297203E+02
    0.24982990124709687052E+02
    0.23186279323362718685E+02
    0.22223410332869530492E+02
    0.25225371953975727735E+02
    0.27792429888912042912E+02
    0.26102220021560562202E+02
    0.22918071325675544614E+02
    0.15064229795277700674E+02
    0.21465144052283068987E+02
    0.19147660773354331809E+02
    0.22408720884255227901E+02
    0.21824097714877424892E+02
    0.19829122804816194048E+02
    0.22949336157538233749E+02
    0.24018366757766131059E+02
    0.18134808787408239539E+02
    0.17664990896118133890E+02
    0.19069463934248840786E+02
    0.16822730079812451720E+02
    0.21090116743502168362E+02
    0.17566728575097254605E+02
    0.16308460953565507623E+02
    0.15712276965560834086E+02
    0.16999742112085446166E+02
    0.16367562782081396477E+02
    0.12835870782614348329E+02
    0.12134232487581599003E+02
    0.11517071492127373133E+02
    0.11956327313143393809E+02
    0.11238183011674733436E+02
    0.11389535515967462942E+02
    0.13172155883017163447E+02
    0.13894144743253079355E+02
    0.35642175522028651358E+02
    0.35334275701373236700E+02
    0.15433010663919837668E+02
    0.16839954464710665150E+02
    0.22870180785500110687E+02
    0.20959825465048982807E+02
    0.28051161663529459389E+02
    0.21281594576015468334E+02
    0.21622228562924579620E+02
    0.17721960868558422675E+02
    0.24278222711489025443E+02
    0.22489364541624063065E+02
    0.34638916635927813559E+02
    0.34025300955843817974E+02
    0.20494262164680108640E+02
    0.21951218965276307671E+02
    0.35843200601266694605E+02
    0.35008713100137249796E+02
    0.36170545220973416178E+02
    0.35570558839739156554E+02
    0.35091771096278129960E+02
    0.33590366098371454484E+02
    0.31917363667178356934E+02
    0.33339985059592976313E+02
    0.31496420545989799677E+02
    0.31885941868765261376E+02
    0.32091031996926020042E+02
    0.31835753767981060491E+02
    0.32957733250547562420E+02
    0.32377657436117139866E+02
    0.20424129455456604632E+02
    0.26338398153307107208E+02
    0.18414065017793280532E+02
    0.21669623040615743292E+02
    0.22888832685956835178E+02
    0.28031146892344338539E+02