# vtk DataFile Version 3.0
LAPLACIEN  2D
ASCII
DATASET UNSTRUCTURED_GRID
 POINTS        1616  float
  0.45880792999999997       0.87913892999999999        0.0000000000000000     
  0.40372658000000000       0.18243693000000000        0.0000000000000000     
  0.52563972999999997       0.19039755999999999        0.0000000000000000     
  0.45642953000000003       0.24226190000000000        0.0000000000000000     
  0.51984098000000001       0.24548566999999999        0.0000000000000000     
  0.21212766999999999       0.18957676000000001        0.0000000000000000     
  0.28573643999999998       0.48586826999999999        0.0000000000000000     
  0.49667887999999999       0.82979849000000006        0.0000000000000000     
  0.22848407000000001       0.23366793000000000        0.0000000000000000     
  0.27860389000000002       0.86069733000000004        0.0000000000000000     
  0.36563702999999997       0.80971340999999997        0.0000000000000000     
  0.28045499000000002       0.80393031999999998        0.0000000000000000     
  0.40374228000000001       0.78127665000000002        0.0000000000000000     
  0.56160891999999996       0.55341227999999998        0.0000000000000000     
  0.37210935000000001       0.26787699999999998        0.0000000000000000     
  0.49899838000000002       0.57286409999999999        0.0000000000000000     
  0.41023869000000002       0.33464665999999998        0.0000000000000000     
  0.33484156999999998       0.29151022999999998        0.0000000000000000     
  0.46758665999999999       0.58262307999999996        0.0000000000000000     
  0.43303693999999998       0.36569945999999998        0.0000000000000000     
  0.25741280000000000       0.61805882999999995        0.0000000000000000     
  0.28853707000000001       0.59423020000000004        0.0000000000000000     
  0.67837254000000002       0.45038665999999999        0.0000000000000000     
  0.42159046000000000       0.50697913999999999        0.0000000000000000     
  0.60276470999999998       0.73940291000000002        0.0000000000000000     
  0.30758273000000003       0.77844542000000005        0.0000000000000000     
  0.45367541000000000       0.31842187000000000        0.0000000000000000     
  0.36974101999999998       0.35807864000000000        0.0000000000000000     
  0.26919625000000003       0.65312176000000000        0.0000000000000000     
  0.61908110999999999       0.42741791000000001        0.0000000000000000     
  0.54442267000000000       0.74200747000000000        0.0000000000000000     
  0.58930464999999999       0.41588288000000001        0.0000000000000000     
  0.51511633000000001       0.74331579000000003        0.0000000000000000     
  0.12878382999999999       0.33122940000000001        0.0000000000000000     
  0.15534365000000000       0.71749246000000000        0.0000000000000000     
  0.64877724999999997       0.30161799000000000        0.0000000000000000     
  0.58853643000000000       0.28101930000000003        0.0000000000000000     
  0.56390348000000001       0.30132482999999999        0.0000000000000000     
  0.29605991999999998       0.44474459999999999        0.0000000000000000     
  0.29900669000000002       0.52983276000000001        0.0000000000000000     
  0.55954318999999997       0.48654808999999999        0.0000000000000000     
  0.42341458999999998       0.38785072999999998        0.0000000000000000     
  0.45806291999999998       0.35892998999999998        0.0000000000000000     
  0.47820750000000001       0.31147424000000001        0.0000000000000000     
  0.36344222999999998       0.38139388000000002        0.0000000000000000     
  0.17186508000000000       0.28159534000000003        0.0000000000000000     
  0.18029876000000000       0.33292397000000001        0.0000000000000000     
  0.20696366999999999       0.71822465999999996        0.0000000000000000     
  0.61326404999999995       0.34468346000000000        0.0000000000000000     
  0.29887186999999998       0.42337377999999998        0.0000000000000000     
  0.33271837999999998       0.44383096000000000        0.0000000000000000     
  0.31835012000000001       0.54267131999999996        0.0000000000000000     
  0.54882964999999995       0.45462609999999998        0.0000000000000000     
  0.20448143999999999       0.28717446000000002        0.0000000000000000     
  0.20634120000000000       0.33378063000000002        0.0000000000000000     
  0.23301781999999999       0.71859421999999995        0.0000000000000000     
  0.58606499999999995       0.35199907000000002        0.0000000000000000     
  0.20841100000000001       0.45369578999999999        0.0000000000000000     
  0.24778198000000001       0.77708496000000005        0.0000000000000000     
  0.30748062999999998       0.61002621000000001        0.0000000000000000     
  0.23337332000000000       0.41981835000000001        0.0000000000000000     
  0.25985113999999998       0.75924943000000000        0.0000000000000000     
  0.24610213000000000       0.40254353999999998        0.0000000000000000     
  0.37350351999999998       0.50127178999999999        0.0000000000000000     
  0.43235204999999999       0.78236391000000005        0.0000000000000000     
  0.30749858000000002       0.28582627999999999        0.0000000000000000     
  0.30336816000000000       0.64635111000000001        0.0000000000000000     
  0.31418906000000002       0.43625961000000002        0.0000000000000000     
  0.27223414000000001       0.78063022000000004        0.0000000000000000     
  0.22829299000000000       0.75089561000000005        0.0000000000000000     
  0.26580239000000000       0.42989294000000000        0.0000000000000000     
  0.37369119000000001       0.51975733999999996        0.0000000000000000     
  0.39681665999999999       0.51027884000000001        0.0000000000000000     
  0.32086795000000001       0.65137668999999998        0.0000000000000000     
  0.31757218999999998       0.62987181000000003        0.0000000000000000     
  0.32959777000000001       0.42500900000000003        0.0000000000000000     
  0.24663835000000001       0.74537787000000000        0.0000000000000000     
  0.26354222999999999       0.41075105000000001        0.0000000000000000     
  0.28343712999999998       0.43221330000000002        0.0000000000000000     
  0.34682245000000000       0.43182289000000001        0.0000000000000000     
  0.35306810000000000       0.45344571000000000        0.0000000000000000     
  0.57327218000000002       0.15829040000000000        0.0000000000000000     
  0.51473097999999995       0.12621746000000000        0.0000000000000000     
  0.72829681999999996       0.40151571000000003        0.0000000000000000     
  0.42703184999999999       0.53501600999999999        0.0000000000000000     
  0.32612607999999998       0.75472421999999995        0.0000000000000000     
   9.9814849999999997E-002  0.28081352999999998        0.0000000000000000     
  0.13945825000000001       0.78732252999999996        0.0000000000000000     
  0.44199519999999998       0.38275643999999998        0.0000000000000000     
  0.40132215999999998       0.36508836000000000        0.0000000000000000     
  0.43963142999999999       0.34043466999999999        0.0000000000000000     
  0.47160058999999999       0.33493045999999999        0.0000000000000000     
  0.45615203999999998       0.28038164999999998        0.0000000000000000     
  0.34321279999999998       0.35314412000000001        0.0000000000000000     
  0.29178279000000001       0.56170810000000004        0.0000000000000000     
  0.49833080000000002       0.48416767999999999        0.0000000000000000     
  0.46386271000000001       0.46452802999999998        0.0000000000000000     
  0.44722043000000000       0.45300645000000000        0.0000000000000000     
  0.46562803000000003       0.44419790999999997        0.0000000000000000     
  0.43925322000000000       0.48229485999999999        0.0000000000000000     
  0.49117628000000002       0.45665803999999999        0.0000000000000000     
  0.43435156000000003       0.46523363000000001        0.0000000000000000     
  0.19405754000000000       0.31093060000000000        0.0000000000000000     
  0.22069087000000001       0.66905079000000001        0.0000000000000000     
  0.30776597999999999       0.59042684000000001        0.0000000000000000     
  0.29541507000000000       0.57849362000000004        0.0000000000000000     
  0.28335474999999999       0.61970232999999997        0.0000000000000000     
  0.29935165000000002       0.62852803999999995        0.0000000000000000     
  0.28459435999999999       0.64121777000000002        0.0000000000000000     
  0.26698675999999999       0.63435282999999998        0.0000000000000000     
  0.24031983000000001       0.64700659000000005        0.0000000000000000     
  0.33118850000000000       0.50233682999999996        0.0000000000000000     
  0.35257061000000001       0.51072803000000000        0.0000000000000000     
  0.29038973000000001       0.78732479000000000        0.0000000000000000     
  0.28737915000000003       0.76752330999999996        0.0000000000000000     
  0.21978159000000000       0.73315437000000006        0.0000000000000000     
  0.18119734000000001       0.76257752999999995        0.0000000000000000     
  0.20353571000000001       0.75186065999999996        0.0000000000000000     
  0.39122694000000002       0.49007234000000000        0.0000000000000000     
  0.59140473999999998       0.13507609000000001        0.0000000000000000     
  0.53156702000000000        9.7663528999999999E-002   0.0000000000000000     
  0.76346223999999996       0.39657278000000001        0.0000000000000000     
  0.41119013999999998       0.52354409999999996        0.0000000000000000     
   7.2558165999999993E-002  0.26885883999999999        0.0000000000000000     
  0.10497347000000000       0.79895936000000001        0.0000000000000000     
[...]
 CELL_DATA        2963
 SCALARS Tumor_cells float
 LOOKUP_TABLE default
    0.16071317172820073909E-06
    0.17368551978450056770E-06
    0.16251071265145881610E-06
    0.17134777335032682223E-06
    0.16319128913883876992E-06
    0.16336550371388998788E-06
    0.18008127739163381794E-06
    0.16808769056415666268E-06
    0.16916198719764099886E-06
    0.27572153593315926190E-02
    0.16289421318599428158E-06
    0.17103935722099682365E-06
    0.15121169506144884863E-06
    0.16206236207214677425E-06
    0.17159311156097906736E-06
    0.13997022397102360567E-06
    0.59057630231529182393E-03
    0.16777679958454026213E-06
    0.19162377633243142481E-06
    0.16673049591644698664E-06
    0.16535340582234227942E-06
    0.27752311674369183753E-01
    0.69392846832042748284E-01
    0.16567874191752318559E-06
    0.15030498621543504512E-06
    0.18765994251866839847E-06
    0.16413116983891665775E-06
    0.15505689082200344930E-06
    0.16604453057207717656E-06
    0.15261285668405581290E-06
    0.18578546576345290919E-04
    0.18063296068083305321E-06
    0.16495434283293025145E-06
    0.15511233695390240015E-06
    0.16684030618156802581E-06
    0.12249384716494040881E-06
    0.16861375567575937966E-06
    0.17854626218985924580E-06
    0.15031604556021966222E-06
    0.29625248577552110163E-01
    0.14698581464195044547E-06
    0.16471613947945569945E-06
    0.16690235428443795999E-06
    0.14707465296671954313E-06
    0.16202503262050465970E-06
    0.16420725582031601120E-05
    0.15186756436875531752E-06
    0.18698044804897889399E-06
    0.14535146892584604698E-06
    0.17345468358465644696E-06
    0.56898612204655401887E-06
    0.14616440890870606014E-06
    0.16114562020012133139E-06
    0.13741917629265739843E-06
    0.16636285924735054494E-06
    0.26383187589805781446E-05
    0.14107584355819383712E-06
    0.58391588502812419915E-06
    0.67083465990636236454E-04
    0.17573022825273592311E-06
    0.28306485166784422526E-04
    0.17966572109134578928E-06
    0.16313303732984340200E-06
    0.17630704369205473247E-06
    0.15983862387153288727E-06
    0.84477333309357156203E-05
    0.13257968613844627710E-06
    0.26513562982910027959E-04
    0.10830101126802270384E+00
    0.15808297984796595742E-06
    0.15174738642508685896E-06
    0.19910764700225427946E-04
    0.15089815719370388116E-06
    0.16338790208074854640E-06
    0.19940529406818519216E-02
    0.18747147594304562190E-02
    0.25648088236715535504E-01
    0.49030314145003699774E-03
    0.14580661099446632880E-06
    0.22756415420727228567E-05
    0.16540759697220634940E-06
    0.14485796953009714762E-05
    0.47777066863914314577E-04
    0.10027809499743830027E-01
    0.16203609497755408653E-06
    0.17733568374436536296E-06
    0.17766655287371129695E-06
    0.16597657694603627743E-06
    0.15908045338023210523E-06
    0.17505321805219046038E-06
    0.16348554242553629503E-06
    0.50454988338218698395E-06
    0.52392995535820760522E-01
    0.13537175837862189414E-05
    0.14816113425805134891E-06
    0.27585082433084391880E-06
    0.24938338020910690712E-01
    0.16678872433292310056E-06
    0.14893456321703020252E-06
    0.16390822475543684876E-06
    0.14053413358361688316E-06
    0.15437752507989577909E-06
    0.16802214104945590058E-05
    0.17114282883104374195E-06
    0.50797713491630589952E-02
    0.17822835263109347052E-06
    0.16873445105333724335E-06
    0.18660289045452004152E-06
    0.83450576284912845897E-06
    0.17371030687034481265E-06
    0.17683749140415448320E-06
    0.14669817073068073203E-06
    0.16365800165822398199E-06
    0.17258236694133871769E-06
    0.16209106574589638244E-06
    0.16303814070128937343E-06
    0.16540150947385286900E-06
    0.17302006109297179850E-06
    0.69319472626590602354E-02
    0.22833649888475437994E-03
    0.15760782185306403695E-06
    0.16172386935172759980E-06
    0.14167272176049992357E-06
    0.16284829082948866808E-06
    0.15587466839730217823E-06
    0.15320334085381057533E-06
    0.18081112125583219905E-06
    0.43020641831950065230E-05
    0.87260819842568712709E-04
    0.11778518243770930607E-03
    0.14207471900248587603E-06
    0.43636742252754482632E-06
    0.41711995911370827739E-01
    0.13703908168850098016E-06
    0.53154258017223944443E-05
    0.11494708284365307580E-03
    0.10421751745366270427E-03
    0.15281714707138712058E-05
    0.15113582385235673862E-06
    0.83764640099923823248E-04
    0.10250542087128965087E-03
    0.15095895257512081936E-06
    0.12341545514026712460E+00
    0.63251292049919114390E-04
    0.14616035272631219493E-04
    0.14385119431217534048E-06
    0.15822116336870407839E-06
    0.13949689447505613318E-06
    0.17207523052774151982E-06
    0.32927590461050596318E-04
    0.17559991550145355681E-06
    0.12905858715237589207E+00
    0.22313329608262868342E-04
    0.15372284286240219009E-06
    0.14871137952410527476E-06
    0.15259117985427569486E-06
    0.15178872697396763267E-06
    0.17310781529848499526E-06
    0.14607861832208005426E-06
    0.14668665463493717849E-06
    0.16017967310784635307E-06
    0.13782116114588853650E-06
    0.14472162058801748677E-06
    0.12522952908107736722E-04
    0.16827751784146861710E-06
    0.47061212077104405080E-05
    0.14276708259678254572E-06
    0.31387026373860499280E-06
    0.42844546451931801723E-02
    0.14531515115681062030E-06
    0.17022696228373601635E-01
    0.14961844017711548073E-06
    0.13546807673147967055E-06
    0.33455561961964646536E-06
    0.13377330396924312904E-06
    0.13252964933774044494E-06
    0.16728498194233774869E-06
    0.17188523492262733775E-06
    0.17796852805452155744E-06
    0.14989411589660110258E-06
    0.28984150835723080340E-02
    0.15561999620304292812E-06
    0.16136742203177624298E-06
    0.15704408675625251624E-06
    0.13402848014096624887E-06
    0.13503107051867252789E-06
    0.17391546714342733775E-05
    0.20105844853906755358E-06
    0.44921543851855645624E-04
    0.14680070822566875946E-06
    0.17471149156448437150E-06
    0.73800970609485719298E-01
    0.17141673311533588712E-06
    0.15718585175833264064E-06
    0.78449270574045045640E-02
    0.14627008723159892162E-06
    0.39012034443082752033E-01
    0.23323278844780268832E-06
    0.13642288721209956045E-05
    0.14483409010172116006E-06
    0.11945534103477239601E-06
    0.16396807188853313695E-06
    0.16904500011766011847E-06
    0.61503777691919429075E-06
    0.81600756254715203775E-01
    0.68913438091731241131E-01
    0.21374357441579796656E-06
    0.61819821440036420990E-01
    0.95522202664570954322E-01
    0.14395541876628116896E-06
    0.12955359191423050145E-06
    0.41619574536705082612E-01
    0.84561694299666936847E-01
    0.18288122869560223805E-06
    0.16407440837478922418E-06
    0.16962558523179762326E-06
    0.15647926315179347463E-06
    0.67207716039282749471E-05
    0.35946892718556507085E-02
    0.97426913559552752843E-05
    0.17681303531886698668E-06
    0.16292791212894937091E-06
    0.19408346347360183977E-06
    0.49029353201017655719E-04
    0.12426675330013349285E-04
    0.17700154844866971309E-06
    0.31199776570906722702E-05
    0.15017477849362183887E-06
    0.14438809608032494148E-06
    0.29754194760744559880E-04
    0.20371783858160074005E-06
    0.26939143763706902103E-06
    0.17235356425986196845E-06
    0.13859825307026747438E-02
    0.15922656619794356714E-06
    0.15975210629429821736E-03
    0.16361002682399051007E-06
    0.14328852268054224212E-01
    0.97123162488493411382E-01
    0.10933943654388951494E+00
    0.53227784353854058229E-05
    0.15486410878042642965E-06
    0.18222934997199291551E-01
    0.37099648753151186209E-01
    0.34572209442505982824E-01
    0.18923811657203810335E-06
    0.89810679820076912225E-03
    0.13642882120705730704E-04
    0.28284307004334524622E-06
    0.66823619799316766321E-01
    0.84650182966963267300E-02
    0.17071573368100894659E-06
    0.19532201000282166874E-06
    0.11395040174982974668E+00
    0.14222405687205682328E-06
    0.15237596075072837285E-06
    0.29993181707747179052E-06
    0.70915696529540589759E-06
    0.23520203167255143706E-01
    0.16556417865498958420E-06
    0.16572921672738324256E-01
    0.10625916786832547908E-01
    0.75030953569040076401E-02
    0.15344083376469237851E-06
    0.39272653063210094526E-01
    0.13666995223070615556E-06
    0.11043100839199317120E+00
    0.15012185711116281250E-01
    0.71191905071986991225E-04
    0.53797155556031171775E-01
    0.16776434007205429543E-06
    0.22817036603977212603E-02
    0.23628631622694670766E-01
    0.12010111546172749406E-03
    0.12771907079757813946E-02
    0.17175141019016029180E-06
    0.16291175152575628183E-06
    0.16891381070069101066E-06
    0.15427743047925266805E-06
    0.22547741399263503711E-03
    0.17684831764409540208E-06
    0.22871437257879238026E-05
    0.39352073555280960632E-06
    0.15173897425840774725E-06
    0.58990486784628770774E-03
    0.14333135039318480665E-06
    0.25914207307091829263E-01
    0.19344570828536730277E-03
    0.35975155664604654261E-06
    0.16011050099372604012E-06
    0.15803533739673279242E-06
    0.15694795324693207253E-06
    0.66755682574503477124E-03
    0.15517561669646666945E-06
    0.13736035402744777921E-06
    0.17086079185726906621E-01
    0.11345911431885785138E-02
    0.16192324197404841051E-06
    0.12679835391965640912E+00
    0.85777536544612018933E-04
    0.15483499037251073025E-06
    0.14698697101350861015E-02
    0.93725203368234021251E-05
    0.17764145787622520894E-06
    0.85274635907479781031E-06
    0.13824004637373203987E-06
    0.59296496871176400736E-02
    0.15830521286880734711E-06
    0.23916868198721501909E-01
    0.30968502862400228452E-03
    0.38800695028019728961E-03
    0.22220488084538045049E-06
    0.22144470425488330849E-03
    0.12332389714093236932E-03
    0.16737520011766517072E-06
    0.17081200586419690471E-06
    0.74640519702421494379E-06
    0.36131101697714815422E-05
    0.15987318246140878875E-02
    0.16604447203194740205E-06
    0.61907852189224485660E-06
    0.16372221699872490595E-06
    0.16331810319581515449E-06
    0.14955237463426422147E-06
    0.16177764803803580416E-06
    0.26626976736603397552E-06
    0.17205609653848543984E-06
    0.26076665736608005235E-02
    0.33053547042788311282E-06
    0.18689752780033714768E-06
    0.98598218320739748838E-04
    0.45660545828718781099E-05
    0.16351904015742830892E-06
    0.15924911278732907038E-06
    0.15210508625830562757E-06
    0.14696554804953951148E-06
    0.16921587409680341599E-06
    0.29053934753479144464E-05
    0.18777676913471379782E-06
    0.15578020604840082791E-06
    0.15688284849372319039E-06
    0.17773789939712277216E-06
    0.24431397336719620195E-06
    0.14537909563929520015E-06
    0.62029610024134651525E-02
    0.26113466337948729873E-02
    0.44803961714973033120E-05
    0.17955518334769984910E-06
    0.14533265545354941743E-06
    0.17049452146675774569E-06
    0.17304884433618924936E-06
    0.15588099616327947412E-06
    0.15748643529702896539E-06
    0.14266559996419776360E-06
    0.13376107581517922430E-06
    0.14952904242291207122E-06
    0.15939388034837582939E-06
    0.15375799064294672087E-06
    0.16341877184069799334E-06
    0.13915094272033241017E-06
    0.14842007336053846394E-06
    0.16234558544617301022E-06
    0.16732364894394269177E-06
    0.14208159913064084537E-06
    0.15525996410909546502E-06
    0.14938176621385194877E-06
    0.18947953314564990933E-06
    0.50205613659642019368E-06
    0.15071868204382540823E+00
    0.43612044519706287538E-01
    0.65206835121743758621E-01
    0.62645824730505186850E-01
    0.57130919491616118100E-01
    0.68774538077559219107E-01
    0.78587230316133072083E-01
    0.12091342218771070072E+00
    0.10269500790989186112E+00
    0.40722145763040749900E-01
    0.74712278521272740273E-01
    0.99251429864071122333E-01
    0.64569908297486766635E-01
    0.41737893118820285077E-01
    0.16554738125407184614E-06
    0.17054609308658388374E-06
    0.16167750699573030403E-06
    0.15909268680654369349E-06
    0.85429347480465807028E-06
    0.21709758004572245069E-05
    0.20981586741185327813E-06
    0.27701881841973693529E-05
    0.17088953231852018853E-06
    0.15609903135936448155E-06
    0.14892778618725623370E-06
    0.18019642385235488855E-06
    0.14783481396967776920E-06
    0.14797950810834699615E-06
    0.15802055065785397984E-06
    0.15539181037623228050E-06
    0.16615826400638218425E-06
    0.15655484833306089128E-06
    0.79872399510098448573E-04
    0.17795748528798207167E-03
    0.23004932210780137773E-02
    0.92989182920595690046E-03
    0.15802819531779382795E-06
    0.17243425431611922301E-06
    0.16480158234630954098E-06
    0.15082915543138023482E-06
    0.17063800550358762377E-06
    0.16759081903938770722E-06
    0.16290350580663333212E-06
    0.17420339182424276196E-06
    0.16336750849326818049E-06
    0.17135579994450881200E-06
    0.57407802767603629060E-02
    0.12698718757322821973E-01
    0.17281215149678764694E-06
    0.17645982069609998590E-03
    0.16645168812248379013E-06
    0.17547535255560939002E-06
    0.16521021741088612851E-06
    0.49006899339457319262E-06
    0.23829363460757450828E-06
    0.23910808102858418372E-01
    0.18014482167582911154E-01
    0.18324113243372792752E-06
    0.15777311996441678568E-06
    0.17936868026437939124E-06
    0.16675179615792843047E-06
    0.16880535436751178888E-06
    0.13677263245100318748E-06
    0.13771396835956916665E-06
    0.14259493611867243287E-06
    0.15103675262757587394E-06
    0.15892640813074382435E-06
    0.14436558858811003476E-06
    0.14466459521693375897E-06
    0.15737890353816001543E-06
    0.14736213957837918405E-06
    0.15691388016711606631E-06
    0.14860453094418041525E-06
    0.15198020158903820229E-06
    0.16233681121457063339E-06
    0.16142133958524125397E-06
    0.13732896403812998237E-06
    0.13913961273325689693E-06
    0.15309162349502361798E-06
    0.13933574443999419818E-06
    0.16396508448453591960E-06
    0.16316650584081760369E-06
    0.16144202003554797804E-06
    0.16173796210477507374E-06
    0.16518373201356834213E-06
    0.16172621988762070350E-06
    0.14693653640211282302E-06
    0.14401395234477522506E-06
    0.26320482848944633448E-04
    0.21009883778306326530E-05
    0.40293082780909131782E-05
    0.62970561182167638650E-05
    0.11189517888869746076E+00
    0.10034834328929233271E+00
    0.14172767419356571694E+00
    0.11813100289470075677E+00
    0.16472554554814747809E-06
    0.17322419078749223949E-06
    0.16582137687756279443E-06
    0.16264839316767245943E-06
    0.17497940630961236498E-06
    0.16931477472956652913E-06
    0.16527265610757431906E-06
    0.14346612406367911195E-06
    0.15890301162146014942E-06
    0.16808571810647452621E-06
    0.15036322705784862871E-06
    0.16597219146952640684E-06
    0.15804351750453245243E-06
    0.16822350317861400483E-06
    0.15573816643335484863E-06
    0.87131070091976436726E-06
    0.15897983221424500400E-06
    0.19752057535972129302E-06
    0.37768416249747149035E-04
    0.55153499052985053338E-03
    0.92138285864210379744E-05
    0.30228635221789413857E-04
    0.24954795514732654822E-03
    0.63288902050870723178E-03
    0.16471655610301181097E-03
    0.43518931561421358035E-04
    0.43781235789721745244E-04
    0.10540503389397101535E-03
    0.15387049626729872982E-06
    0.16019994034243216612E-06
    0.15014266760585075082E-06
    0.15446407466177572742E-06
    0.16201982005927425371E-06
    0.16526480290086010528E-06
    0.25799017149748682681E-01
    0.35545750602355312420E-01
    0.18441613484387082582E-06
    0.16418203396476615408E-06
    0.16458098682206200437E-06
    0.20261478186682285742E-06
    0.28313440129680817794E-06
    0.18351673915947964882E-06
    0.17024643249342517988E-06
    0.17199832197898636270E-06
    0.15710783694966985550E-06
    0.16307386115602695661E-06
    0.16360773114010988563E-06
    0.15798262596948178587E-06
    0.11089557101983375798E+00
    0.12386041225568338031E+00
    0.15044871403143267319E+00
    0.14502626346929509138E+00
    0.16220572589485240249E-06
    0.16441137567977153431E-06
    0.16849326684865139972E-06
    0.17116202959264516379E-06
    0.14970014644442269997E-06
    0.16382052254229474723E-06
    0.15489975769067808599E-06
    0.14911412016860683772E-06
    0.17289459205512018234E-06
    0.28610475336550523582E-06
    0.16113264368231925750E-06
    0.21159870457803089971E-06
    0.21846274693192779775E-06
    0.13939959746073633242E-04
    0.47457465360247037980E-06
    0.91079453941890619834E-06
    0.11483303419439667720E-02
    0.20896590077344528395E-03
    0.44303210670200535463E-03
    0.15082784644666668910E-03
    0.44980726890626361461E-03
    0.84764926792282304854E-03
    0.21834160925277143803E-04
    0.20308729349921163091E-03
    0.96234882525640904932E-05
    0.18023080936152450425E-04
    0.35368272387299997612E-05
    0.18852734791690624960E-06
    0.32701779978715847908E-05
    0.62628015123359899878E-05
    0.43445281080361432917E-05
    0.21069835435917080198E-05
    0.16182965570043082046E-06
    0.15846188208124186997E-06
    0.15096310589596557439E-06
    0.18563744955230904832E-06
    0.16688061054339232047E-06
    0.16703594261334184016E-06
    0.16362705815439582756E-06
    0.17291019278887919831E-06
    0.17387544079322639177E-06
    0.16650878144246886093E-06
    0.16843246645353267962E-06
    0.15958374095510949874E-06
    0.16656553452580474252E-06
    0.16612912604471084455E-06
    0.15528085660701015374E-06
    0.15998588637069523179E-06
    0.16118973204176421351E-06
    0.16307172812440593787E-06
    0.15757563488916717526E-06
    0.16661822151589748454E-06
    0.16507964625907681211E-06
    0.16437065679862700564E-06
    0.13406205019030476011E+00
    0.13976910446806978250E+00
    0.15459778765528039844E-06
    0.15048776748395893732E-06
    0.14863982231587627022E-06
    0.15127154360782053576E-06
    0.14718846799911131469E-06
    0.16078719861188558900E-06
    0.16570087062894662078E-06
    0.15936358742108848763E-06
    0.15369093391862699040E-04
    0.15484727487860077810E-06
    0.30977873270737803737E-06
    0.16410007327475122392E-06
    0.16165382873640487006E-06
    0.20131199168282874492E-06
    0.16308360009229886211E-06
    0.16448252460108311216E-06
    0.48003044388524160757E-06
    0.71590678351379296705E-06
    0.27926611985858233641E-06
    0.19564513255863176502E-05
    0.15962071486090440075E-06
    0.96333578003905344712E-06
    0.38019975204400133750E-05
    0.66610745933542682556E-05
    0.14834933066984948472E-05
    0.31787588721519982111E-05
    0.24730895019802417003E-03
    0.57943815182627642253E-03
    0.18766791016882327248E-02
    0.71626457777781147359E-03
    0.47455857730588132254E-02
    0.27611636424252953247E-02
    0.15989471889497252005E-03
    0.70873873664794193538E-04
    0.17564503526128955058E-06
    0.16473395606528709975E-06
    0.91482874202033698984E-05
    0.22130235016239624208E-05
    0.15505829792399047300E-06
    0.16685005934056560151E-06
    0.15949773929716366503E-06
    0.19145206370868364429E-06
    0.17474155972062321167E-06
    0.10922604081677562110E-05
    0.15434126191913076311E-06
    0.15311667364388401837E-06
    0.17477485987963653551E-06
    0.17051518232552141912E-06
    0.17803733967561000271E-06
    0.15301788916598766848E-06
    0.17015381813808283896E-06
    0.17552795026064131466E-06
    0.17367222555442408277E-06
    0.17097684045846514397E-06
    0.17171125907937048910E-06
    0.17679197865845285257E-06
    0.16958050340626091562E-06
    0.15646637536478771229E-06
    0.14487268830612817208E-06
    0.14770367877341155025E-06
    0.17198593471213205919E-06
    0.15449937193752304709E-06
    0.15818648335399319012E-06
    0.16173787887184537085E-06
    0.53809729020275805927E-02
    0.59260189583536395210E-04
    0.62245412188708206577E-03
    0.52464323548185296843E-03
    0.40315426353693811778E-03
    0.39603085434467978740E-04