# vtk DataFile Version 3.0
LAPLACIEN  2D
ASCII
DATASET UNSTRUCTURED_GRID
 POINTS        1616  float
  0.45880792999999997       0.87913892999999999        0.0000000000000000     
  0.40372658000000000       0.18243693000000000        0.0000000000000000     
  0.52563972999999997       0.19039755999999999        0.0000000000000000     
  0.45642953000000003       0.24226190000000000        0.0000000000000000     
  0.51984098000000001       0.24548566999999999        0.0000000000000000     
  0.21212766999999999       0.18957676000000001        0.0000000000000000     
  0.28573643999999998       0.48586826999999999        0.0000000000000000     
  0.49667887999999999       0.82979849000000006        0.0000000000000000     
  0.22848407000000001       0.23366793000000000        0.0000000000000000     
  0.27860389000000002       0.86069733000000004        0.0000000000000000     
  0.36563702999999997       0.80971340999999997        0.0000000000000000     
  0.28045499000000002       0.80393031999999998        0.0000000000000000     
  0.40374228000000001       0.78127665000000002        0.0000000000000000     
  0.56160891999999996       0.55341227999999998        0.0000000000000000     
  0.37210935000000001       0.26787699999999998        0.0000000000000000     
  0.49899838000000002       0.57286409999999999        0.0000000000000000     
  0.41023869000000002       0.33464665999999998        0.0000000000000000     
  0.33484156999999998       0.29151022999999998        0.0000000000000000     
  0.46758665999999999       0.58262307999999996        0.0000000000000000     
  0.43303693999999998       0.36569945999999998        0.0000000000000000     
  0.25741280000000000       0.61805882999999995        0.0000000000000000     
  0.28853707000000001       0.59423020000000004        0.0000000000000000     
  0.67837254000000002       0.45038665999999999        0.0000000000000000     
  0.42159046000000000       0.50697913999999999        0.0000000000000000     
  0.60276470999999998       0.73940291000000002        0.0000000000000000     
  0.30758273000000003       0.77844542000000005        0.0000000000000000     
  0.45367541000000000       0.31842187000000000        0.0000000000000000     
  0.36974101999999998       0.35807864000000000        0.0000000000000000     
  0.26919625000000003       0.65312176000000000        0.0000000000000000     
  0.61908110999999999       0.42741791000000001        0.0000000000000000     
  0.54442267000000000       0.74200747000000000        0.0000000000000000     
  0.58930464999999999       0.41588288000000001        0.0000000000000000     
  0.51511633000000001       0.74331579000000003        0.0000000000000000     
  0.12878382999999999       0.33122940000000001        0.0000000000000000     
  0.15534365000000000       0.71749246000000000        0.0000000000000000     
  0.64877724999999997       0.30161799000000000        0.0000000000000000     
  0.58853643000000000       0.28101930000000003        0.0000000000000000     
  0.56390348000000001       0.30132482999999999        0.0000000000000000     
  0.29605991999999998       0.44474459999999999        0.0000000000000000     
  0.29900669000000002       0.52983276000000001        0.0000000000000000     
  0.55954318999999997       0.48654808999999999        0.0000000000000000     
  0.42341458999999998       0.38785072999999998        0.0000000000000000     
  0.45806291999999998       0.35892998999999998        0.0000000000000000     
  0.47820750000000001       0.31147424000000001        0.0000000000000000     
  0.36344222999999998       0.38139388000000002        0.0000000000000000     
  0.17186508000000000       0.28159534000000003        0.0000000000000000     
  0.18029876000000000       0.33292397000000001        0.0000000000000000     
  0.20696366999999999       0.71822465999999996        0.0000000000000000     
  0.61326404999999995       0.34468346000000000        0.0000000000000000     
  0.29887186999999998       0.42337377999999998        0.0000000000000000     
  0.33271837999999998       0.44383096000000000        0.0000000000000000     
  0.31835012000000001       0.54267131999999996        0.0000000000000000     
  0.54882964999999995       0.45462609999999998        0.0000000000000000     
  0.20448143999999999       0.28717446000000002        0.0000000000000000     
  0.20634120000000000       0.33378063000000002        0.0000000000000000     
  0.23301781999999999       0.71859421999999995        0.0000000000000000     
  0.58606499999999995       0.35199907000000002        0.0000000000000000     
  0.20841100000000001       0.45369578999999999        0.0000000000000000     
  0.24778198000000001       0.77708496000000005        0.0000000000000000     
  0.30748062999999998       0.61002621000000001        0.0000000000000000     
  0.23337332000000000       0.41981835000000001        0.0000000000000000     
  0.25985113999999998       0.75924943000000000        0.0000000000000000     
  0.24610213000000000       0.40254353999999998        0.0000000000000000     
  0.37350351999999998       0.50127178999999999        0.0000000000000000     
  0.43235204999999999       0.78236391000000005        0.0000000000000000     
  0.30749858000000002       0.28582627999999999        0.0000000000000000     
  0.30336816000000000       0.64635111000000001        0.0000000000000000     
  0.31418906000000002       0.43625961000000002        0.0000000000000000     
  0.27223414000000001       0.78063022000000004        0.0000000000000000     
  0.22829299000000000       0.75089561000000005        0.0000000000000000     
  0.26580239000000000       0.42989294000000000        0.0000000000000000     
  0.37369119000000001       0.51975733999999996        0.0000000000000000     
  0.39681665999999999       0.51027884000000001        0.0000000000000000     
  0.32086795000000001       0.65137668999999998        0.0000000000000000     
  0.31757218999999998       0.62987181000000003        0.0000000000000000     
  0.32959777000000001       0.42500900000000003        0.0000000000000000     
  0.24663835000000001       0.74537787000000000        0.0000000000000000     
  0.26354222999999999       0.41075105000000001        0.0000000000000000     
  0.28343712999999998       0.43221330000000002        0.0000000000000000     
  0.34682245000000000       0.43182289000000001        0.0000000000000000     
  0.35306810000000000       0.45344571000000000        0.0000000000000000     
  0.57327218000000002       0.15829040000000000        0.0000000000000000     
  0.51473097999999995       0.12621746000000000        0.0000000000000000     
  0.72829681999999996       0.40151571000000003        0.0000000000000000     
  0.42703184999999999       0.53501600999999999        0.0000000000000000     
  0.32612607999999998       0.75472421999999995        0.0000000000000000     
   9.9814849999999997E-002  0.28081352999999998        0.0000000000000000     
  0.13945825000000001       0.78732252999999996        0.0000000000000000     
  0.44199519999999998       0.38275643999999998        0.0000000000000000     
  0.40132215999999998       0.36508836000000000        0.0000000000000000     
  0.43963142999999999       0.34043466999999999        0.0000000000000000     
  0.47160058999999999       0.33493045999999999        0.0000000000000000     
  0.45615203999999998       0.28038164999999998        0.0000000000000000     
  0.34321279999999998       0.35314412000000001        0.0000000000000000     
  0.29178279000000001       0.56170810000000004        0.0000000000000000     
  0.49833080000000002       0.48416767999999999        0.0000000000000000     
  0.46386271000000001       0.46452802999999998        0.0000000000000000     
  0.44722043000000000       0.45300645000000000        0.0000000000000000     
  0.46562803000000003       0.44419790999999997        0.0000000000000000     
  0.43925322000000000       0.48229485999999999        0.0000000000000000     
  0.49117628000000002       0.45665803999999999        0.0000000000000000     
  0.43435156000000003       0.46523363000000001        0.0000000000000000     
  0.19405754000000000       0.31093060000000000        0.0000000000000000     
  0.22069087000000001       0.66905079000000001        0.0000000000000000     
  0.30776597999999999       0.59042684000000001        0.0000000000000000     
  0.29541507000000000       0.57849362000000004        0.0000000000000000     
  0.28335474999999999       0.61970232999999997        0.0000000000000000     
  0.29935165000000002       0.62852803999999995        0.0000000000000000     
  0.28459435999999999       0.64121777000000002        0.0000000000000000     
  0.26698675999999999       0.63435282999999998        0.0000000000000000     
  0.24031983000000001       0.64700659000000005        0.0000000000000000     
  0.33118850000000000       0.50233682999999996        0.0000000000000000     
  0.35257061000000001       0.51072803000000000        0.0000000000000000     
  0.29038973000000001       0.78732479000000000        0.0000000000000000     
  0.28737915000000003       0.76752330999999996        0.0000000000000000     
  0.21978159000000000       0.73315437000000006        0.0000000000000000     
  0.18119734000000001       0.76257752999999995        0.0000000000000000     
  0.20353571000000001       0.75186065999999996        0.0000000000000000     
  0.39122694000000002       0.49007234000000000        0.0000000000000000     
  0.59140473999999998       0.13507609000000001        0.0000000000000000     
  0.53156702000000000        9.7663528999999999E-002   0.0000000000000000     
  0.76346223999999996       0.39657278000000001        0.0000000000000000     
  0.41119013999999998       0.52354409999999996        0.0000000000000000     
   7.2558165999999993E-002  0.26885883999999999        0.0000000000000000     
  0.10497347000000000       0.79895936000000001        0.0000000000000000     
[...]
 CELL_DATA        2963
 SCALARS VEGF float
 LOOKUP_TABLE default
    0.16676918120120639883E-03
    0.26959362489893359989E-02
    0.18275366828651854519E-02
    0.85599667108378504031E-03
    0.12563280061707322432E-02
    0.56740997281329330106E-03
    0.40893953317611207547E-03
    0.27741692770099570138E-02
    0.37970588439867779729E-04
    0.29099318201148738350E+00
    0.11420285307194662141E-02
    0.26489703265113098002E-02
    0.92023723347553693704E-03
    0.17311930263741925548E-02
    0.36798028787162821132E-04
    0.75913219682940936105E-03
    0.21638395448182129455E+00
    0.10853561073856643742E-02
    0.66951474684147675113E-03
    0.73090352563441934527E-02
    0.33633454470890747530E-02
    0.58039757822797877207E+00
    0.68043041007750226790E+00
    0.74561899950094283687E-02
    0.20944855702435472705E-01
    0.22947094914855144243E-01
    0.41644141661571496341E-02
    0.51609979841327289357E-03
    0.19622915513180317140E-02
    0.29025346567181200055E-02
    0.25891496213105380519E-01
    0.66847947144826346563E-04
    0.46372550073529609713E-02
    0.33536216090210221874E-01
    0.23149520348827363515E-02
    0.57784317067637765153E-02
    0.34559058016401522639E-02
    0.43720418114512327179E-01
    0.37110879177728586450E-03
    0.22895971746271795433E+00
    0.41069853069448822259E-03
    0.10510754251511734373E-02
    0.11938052115052522409E-01
    0.35975544464868797895E-02
    0.39134677160449433183E-04
    0.93133774708656066887E-01
    0.36151968222738491534E-03
    0.82734810441079274985E-04
    0.26387501311927233881E-02
    0.43002634235173134740E-04
    0.70110999163761511532E-01
    0.61075225261581064448E-03
    0.53031796739077966332E-03
    0.10138002488850946393E-02
    0.19655105279280269889E-02
    0.44855686219140475379E-01
    0.42006941936652535813E-03
    0.47297197135186548611E-01
    0.16351844510575710978E+00
    0.65241865682460337388E-03
    0.13909846992254673581E+00
    0.21857090381890262494E-02
    0.12178456768579252372E-03
    0.70438348987517668677E-04
    0.12443638077289009749E-02
    0.11469590759704856309E+00
    0.10724105616281478376E-01
    0.14839999408791479385E+00
    0.48020756378782625262E+00
    0.90395432109350497361E-03
    0.37931298654616125423E-03
    0.12479413176421098874E+00
    0.13993965486872822577E-02
    0.14368892415942556735E-02
    0.27718062992346731432E+00
    0.28446898370931761324E+00
    0.58141753541856144860E+00
    0.20399569694641928042E+00
    0.57076983319457751023E-03
    0.10541610997208304690E+00
    0.64776994728322232018E-04
    0.76427805457048567095E-01
    0.15129022490308535742E+00
    0.41989214118032869294E+00
    0.28912020004301961645E-01
    0.31419034045421390805E-02
    0.13334711752055847678E-02
    0.83245627361356357155E-02
    0.12917416861198712311E-01
    0.25953433063757982762E-03
    0.56207965343632306995E-02
    0.73963025107416716097E-01
    0.69392391884639037514E+00
    0.55593834588163838772E-01
    0.15409537610596001772E-01
    0.44746536678484057081E-01
    0.58167588343678877649E+00
    0.45539472018603583195E-02
    0.21349109734227949067E-02
    0.14257940544686984082E-02
    0.86966413809895742708E-03
    0.72512764822841900905E-02
    0.73756265197540443745E-01
    0.32712881105060177649E-02
    0.10270756828841366703E+00
    0.61282099587251295802E-03
    0.32229627090552127704E-02
    0.26550587421234105381E-03
    0.82819777978403286145E-01
    0.14501012713295893027E-02
    0.13315225059145703503E-02
    0.95171361415037451781E-03
    0.38019492887012365252E-03
    0.10111697123350231291E-02
    0.18041655534512595293E-03
    0.71585745408230460826E-03
    0.12440731036829298629E-03
    0.97044446147533442088E-04
    0.37950565559670906834E+00
    0.16239284992902272564E+00
    0.75353015035891290560E-03
    0.43024045744826397517E-03
    0.93845773839832042403E-03
    0.36081861775852833163E-01
    0.55270531612122610760E-03
    0.25143198074821099253E-01
    0.63514199159721198423E-03
    0.10171190777070120148E+00
    0.42363097022983124684E-01
    0.16926553606278166297E+00
    0.25760702949966976516E-01
    0.45340723297559101801E-01
    0.27289209796292684951E+00
    0.27049367637723135960E-01
    0.49413727915797026058E-01
    0.14090977918119745871E+00
    0.14241113185319623224E+00
    0.22004995915555138064E-01
    0.54486220422589781882E-03
    0.39185702847622544409E-01
    0.17087785235365010594E+00
    0.20635722953216556474E-01
    0.59149053370901705229E+00
    0.12247735953931793151E+00
    0.95248988177949314715E-01
    0.21926261444846266435E-01
    0.22276918896118385813E-02
    0.24516929248744549069E-01
    0.57297696054079241042E-03
    0.10434474488724602981E+00
    0.18267895747358922284E-02
    0.53029155581568321320E+00
    0.10497967718109564583E+00
    0.20425012211963581438E-01
    0.12485212111316042194E-02
    0.13849265593230751341E-02
    0.72949491747918639335E-03
    0.14408117017658999062E-02
    0.11406206857883481598E-02
    0.11759371421319370250E-02
    0.13202796292362251312E-02
    0.96019063091085121199E-03
    0.17824640645733184907E-01
    0.22490855725966839296E-01
    0.17606216843090141590E-02
    0.79345280576438553810E-01
    0.62059206612536266939E-03
    0.41284585592878307592E-01
    0.35268575953138547874E+00
    0.28176796253191794400E-01
    0.49396804724355319882E+00
    0.11160579214843468869E-02
    0.21436391597877591138E-02
    0.59486724413039836212E-01
    0.14282227132658062690E-02
    0.11903797242354340839E-02
    0.66038200466402678657E-02
    0.25072362507707348332E-02
    0.75846047377910565460E-03
    0.64063851634352415865E-03
    0.31517346808340779285E+00
    0.38769676091044182054E-02
    0.66843075628119147033E-02
    0.66804711144887525716E-03
    0.15560480290577225707E-02
    0.17034640527652763261E-02
    0.35164008655760276012E-01
    0.19473116832687115824E-01
    0.12222405101382456671E+00
    0.39874186217746829079E-03
    0.17510439255886923668E-02
    0.36905836648777462505E+00
    0.89315173620497557722E-03
    0.73122665832116642837E-03
    0.11775779049632607853E+00
    0.65938861382371593244E-03
    0.23887474072692174709E+00
    0.37431185654450485623E-01
    0.13620707180301200312E-01
    0.94957217335027974993E-03
    0.52471072636450198645E-02
    0.21381461500421233141E-02
    0.23200897481112864665E-02
    0.64793242639728659826E-01
    0.70935112742734973690E+00
    0.71531259200347074856E+00
    0.51511263434548711093E-01
    0.72182378379998035633E+00
    0.44897636091703524430E+00
    0.88325789117683136276E-03
    0.11270102422670622185E-02
    0.60471129152456759570E+00
    0.65989267727367517669E+00
    0.37233281951215557726E-03
    0.22067475967799004589E-02
    0.22339950293677190984E-02
    0.32430122239164131670E-01
    0.20075761230855374007E-01
    0.94422417775082437275E-01
    0.12301174311735023348E+00
    0.25817185780471385743E-02
    0.17565300224423119682E-02
    0.11393811129287551367E-01
    0.15859620135385243955E+00
    0.14060217990375353803E+00
    0.15232342155005430210E-02
    0.19346601218696132113E-01
    0.28203620381116956128E-01
    0.27099605346178893411E-01
    0.26885436437018263994E-01
    0.35288057408438537610E-01
    0.85302380601601848764E-02
    0.13945273476605618036E-02
    0.69226747695448703768E-01
    0.16248618346843012039E-01
    0.39239538289660126635E-01
    0.23406129451454828184E-03
    0.15012830881630623292E+00
    0.63258968949832361517E+00
    0.53259905064966839294E+00
    0.12589343349542927997E+00
    0.28140873986583370830E-02
    0.19163038968221629554E+00
    0.23709053491229067911E+00
    0.59204422465137562792E+00
    0.23517042755762836148E-01
    0.59454340379616429924E-01
    0.87390229705736136023E-01
    0.30257637598351226627E-01
    0.32851884094031758021E+00
    0.41047972890709538696E+00
    0.53056585653120857601E-02
    0.17217703260554197142E-01
    0.59780646606051368597E+00
    0.23560105123546518091E-01
    0.10205229017262769028E-01
    0.60840390320819795478E-01
    0.28915922224557601833E-01
    0.53920046125533338532E+00
    0.58030485671070955456E-02
    0.49129872576190875000E+00
    0.45133494686940373031E+00
    0.41359551481869943901E+00
    0.25898089003514195884E-02
    0.63725046692856424091E+00
    0.10619010752414964876E-02
    0.63975199803715365743E+00
    0.49866339063540526810E+00
    0.17932073474758039588E+00
    0.70830218413546985889E+00
    0.43916727767167266366E-02
    0.78693365514015872764E-01
    0.54520775325223069796E+00
    0.21064044111015595151E+00
    0.23325855939665129934E+00
    0.13527710650567191346E-02
    0.25098196282087588231E-02
    0.42367427185233301826E-02
    0.77976689908803762351E-03
    0.23317982847938142910E+00
    0.62060140624782750892E-03
    0.62234679296437507567E-01
    0.10719606424900119876E-01
    0.36188701468497443299E-02
    0.24240877476656300105E+00
    0.59317473451177867971E-03
    0.18922971669744426126E+00
    0.22840954280334418991E+00
    0.34549060181605709130E-01
    0.43407776367854079141E-02
    0.37183656619746274091E-02
    0.30944887809029723337E-02
    0.14027825229403040330E+00
    0.31169053496889930410E-03
    0.41083947577054118899E-02
    0.18858602227441903509E+00
    0.26795594575774189794E+00
    0.16372710171946181640E-02
    0.66444082836288465010E+00
    0.14760753456125241811E+00
    0.26031216811752851820E-01
    0.19309257929716788782E+00
    0.69739582656811419104E-01
    0.14210499208507603244E-01
    0.26443357140807775829E-01
    0.10124863659562003976E-02
    0.31711593479234423398E+00
    0.68302248466811860735E-03
    0.47594922969737091245E+00
    0.80350893953052449081E-01
    0.18956193836459186985E+00
    0.51679604818645807907E-01
    0.72334079589646077535E-01
    0.20017678432295346602E+00
    0.21998696912082769429E-02
    0.16922920810144887632E-03
    0.64891347526251141886E-01
    0.35966338638455663812E-01
    0.10576856253099915783E+00
    0.76293530054993158058E-03
    0.29038157247940919736E-01
    0.58053850738852162336E-02
    0.13191838879683054700E-01
    0.83500040605035330196E-03
    0.91946778736934223555E-03
    0.19760296411573577413E-01
    0.48947978431257838094E-02
    0.14040336262601507689E+00
    0.20853954002278355523E-01
    0.22785887119523757539E-02
    0.15777205192537943623E+00
    0.11993207810331152352E+00
    0.12463405301033569049E-02
    0.13316594934265973352E-02
    0.24586531057506549880E-01
    0.43514097179508286553E-03
    0.31326171377858813560E-01
    0.47020355219957100934E-01
    0.14258455487674721526E-01
    0.55816208595820470621E-03
    0.10675081317124733918E-02
    0.14819916890562365858E-01
    0.31845526850981457911E-01
    0.27872980383388552134E-02
    0.38974410778693358015E+00
    0.26258894959082307308E+00
    0.90973524435980848701E-01
    0.15439248132111147577E-01
    0.97625561018713203319E-03
    0.68566110309775142595E-03
    0.72394059321165998063E-03
    0.13141779368339167895E-02
    0.11856308223698105043E-02
    0.13017781731238205808E-02
    0.10625799173627663904E-02
    0.79261553570561115063E-03
    0.93280466060294026532E-03
    0.12282863922038974886E-02
    0.13619302685081279697E-02
    0.23585854356075702624E-02
    0.16079913576668358396E-02
    0.17175727187205935657E-02
    0.34035559252808471158E-02
    0.47041521244947165836E-03
    0.56146017954783261020E-03
    0.48867846017170693193E-03
    0.35259891011192902310E-01
    0.50963955257469571725E-01
    0.59038665805935464093E+00
    0.66178462356663014798E+00
    0.72264588211918467930E+00
    0.68160061984366115961E+00
    0.71686761017827982378E+00
    0.69888140051167624289E+00
    0.70640559293802585028E+00
    0.67711520691549353934E+00
    0.70365266632862699669E+00
    0.61717843203932432061E+00
    0.71353008393467320936E+00
    0.66442614062680394049E+00
    0.70495417835767293369E+00
    0.63006426891836264659E+00
    0.44907535605127222797E-02
    0.32270163899119595763E-02
    0.48394746349362050344E-02
    0.21485590042644005238E-01
    0.52915129450657266696E-01
    0.64764029740287110126E-01
    0.38618273517542080209E-01
    0.68965236419734746165E-01
    0.32290902212308320030E-01
    0.27306720234011348097E-01
    0.26071441677227847472E-01
    0.32948896895948633079E-01
    0.22720322566857967944E-01
    0.20526253552029229132E-01
    0.10083837712808558715E-01
    0.25390839563573009557E-01
    0.63920083288516625023E-03
    0.19167602491016014904E-01
    0.14117170256822048069E+00
    0.17445638867599155830E+00
    0.29552836336322790833E+00
    0.23802729687339677089E+00
    0.52838421103719272753E-03
    0.65886235408311782848E-03
    0.96067261037894875319E-03
    0.80711604077742275451E-03
    0.27741095026634081562E-02
    0.18880766490067604768E-02
    0.15157696600646500002E-02
    0.57906110335900924917E-03
    0.11881658159674235442E-02
    0.88023372746793583903E-03
    0.36745758000516409725E+00
    0.45040685477707814721E+00
    0.72164160387996134985E-02
    0.17855074414578914199E+00
    0.98391012826502572026E-03
    0.15145082605893980636E-02
    0.88102659711228022490E-03
    0.34814742175824822668E-01
    0.23078127848589674587E-01
    0.56849691240319033536E+00
    0.53109462415562613824E+00
    0.32718238659090075667E-03
    0.79026344590954933529E-03
    0.71618202226460475970E-03
    0.39866393129913503318E-03
    0.24550550431248589767E-03
    0.12933622987467531876E-02
    0.12033005701314737450E-02
    0.89295757302117889642E-03
    0.91640692683356663514E-03
    0.12289618423327504110E-02
    0.10516954427677595828E-02
    0.86531393086881002678E-03
    0.66303120275904643861E-03
    0.84599518233428568428E-03
    0.69976415305709257098E-03
    0.67241399779091495618E-03
    0.73213754447082118534E-03
    0.12624837892270843014E-02
    0.23440813323719121401E-02
    0.18970867897204909090E-02
    0.17871687061963899973E-02
    0.18500529479737611548E-02
    0.19802222704274215735E-02
    0.19266985253064774792E-02
    0.33846759643532146541E-02
    0.13806277693167636617E-02
    0.25729181765105509604E-02
    0.27794615168056143600E-02
    0.53890765211547292032E-02
    0.58115520587752171090E-03
    0.59745245737139515002E-03
    0.10180497649866873666E+00
    0.68835906401996202475E-01
    0.68543418580660389616E-01
    0.80977625222000970684E-01
    0.61774940594353255907E+00
    0.67970520292901470683E+00
    0.58952970027981210777E+00
    0.64501449121664589104E+00
    0.34448922053680001293E-02
    0.17516265474659339658E-02
    0.30393140592896231156E-02
    0.32778446892264396194E-02
    0.47688412237301448793E-02
    0.65434301228007498569E-02
    0.23521287829244680832E-02
    0.10000428336554784484E-01
    0.28849311728614226991E-01
    0.32642128989323872246E-01
    0.11964072804689186019E-01
    0.99703367121497920439E-02
    0.18259601387737009470E-01
    0.33309566848076309353E-01
    0.19397866055911882482E-01
    0.57516750425547422121E-01
    0.30429106472276441081E-01
    0.39614876421788063066E-01
    0.12236099026183758220E+00
    0.21069537806788399270E+00
    0.90303306091600921146E-01
    0.11854792517184228884E+00
    0.17642769202858435418E+00
    0.21689782557809883512E+00
    0.16756878412549464086E+00
    0.13009689244344405101E+00
    0.14136598485306609008E+00
    0.15481464181358919885E+00
    0.79240354556449018632E-03
    0.75696825695979015006E-03
    0.46448112510124532192E-03
    0.11546031761229509985E-02
    0.29534024511023979943E-02
    0.19932260842398324095E-02
    0.55504163544805384944E+00
    0.61310946951298828100E+00
    0.10304396983489060111E-02
    0.19233030482931200589E-02
    0.72676369961059835659E-03
    0.26517878380008106515E-01
    0.24515596416179438743E-01
    0.30545580518001196101E-03
    0.58957785797507139720E-03
    0.25932272854477852325E-03
    0.75152011572620215467E-03
    0.13463445356941656453E-02
    0.16188443072849274633E-02
    0.89511139014776140363E-03
    0.55571505970113621586E+00
    0.56894004230630135233E+00
    0.58402693225684787492E+00
    0.62569344541619231759E+00
    0.40801051454871809995E-02
    0.29248048313243830629E-02
    0.51907555390561209430E-02
    0.42145980609514669193E-02
    0.72821213456402845293E-02
    0.79605716591911318547E-02
    0.64096371870966334719E-02
    0.15236901880992349129E-01
    0.34832482416857650509E-01
    0.43601936409893952973E-01
    0.29599680340169673420E-01
    0.40013656409988294926E-01
    0.44883855332584272901E-01
    0.10234997500529544046E+00
    0.55299204973014194631E-01
    0.59126723842324702130E-01
    0.24470724181939845776E+00
    0.16826485196243456954E+00
    0.20139095463236941774E+00
    0.16504412618804861768E+00
    0.20407576233582491732E+00
    0.22114330681724217453E+00
    0.11546511661465165555E+00
    0.17157585700392222194E+00
    0.98206961229912695388E-01
    0.11779238919986158296E+00
    0.83032380083944271054E-01
    0.41663095049813372861E-01
    0.91284388734367588603E-01
    0.97431739936472375185E-01
    0.84367751275191860127E-01
    0.77923132864901004102E-01
    0.61946795166699451362E-03
    0.49382754433517758643E-03
    0.78767392916696354985E-03
    0.11203637923426219402E-03
    0.32328794567627075441E-03
    0.63769949920946687651E-03
    0.75711315640039904707E-03
    0.49565144213918502052E-03
    0.75135973143926457121E-03
    0.78915071117207193432E-03
    0.12198269522976448471E-02
    0.99358756730792870127E-03
    0.11889730807614425252E-02
    0.20567545305343001329E-02
    0.98170180067905015928E-03
    0.11754168954744041373E-02
    0.11378701560266876909E-02
    0.13411919304696315065E-02
    0.95229531744845286219E-03
    0.52491995995941685520E-03
    0.18145094168250377673E-02
    0.16915372516680469810E-02
    0.56702073771976158056E+00
    0.61871254108008133521E+00
    0.24838937394648808593E-01
    0.14909729562288564705E-01
    0.19652739201269628366E-01
    0.23509195593405946001E-01
    0.13121403489281641477E-01
    0.88547802639232023325E-02
    0.13209293016070110943E-01
    0.24704417699402105024E-01
    0.10328883778692632411E+00
    0.34194495493618352888E-01
    0.50273446647211561533E-01
    0.35318324613926310729E-01
    0.28395415774592022706E-01
    0.41350761887517746562E-01
    0.22736936177165201906E-01
    0.19174683420109240456E-01
    0.52587550978596159235E-01
    0.59174591034321530336E-01
    0.47950176109319557483E-01
    0.72960103828246719582E-01
    0.34904583726640431296E-01
    0.63986288377800154548E-01
    0.81941796316354065244E-01
    0.88060625207012951932E-01
    0.66907531909168982409E-01
    0.77533813440537668882E-01
    0.17779301731822716448E+00
    0.21305515773431191184E+00
    0.26213024236096210684E+00
    0.22040507374439299859E+00
    0.33357706626372191083E+00
    0.30428292771700393704E+00
    0.16341321454927687506E+00
    0.13674752674017878751E+00
    0.52725619409117133879E-03
    0.58643625158262004636E-03
    0.96678701634108951679E-01
    0.76019918066705563509E-01
    0.25893979709343543233E-01
    0.34630969155493553091E-01
    0.11469889069786640481E-01
    0.39284867659107575166E-01
    0.36371348820478974218E-01
    0.65720150437464708304E-01
    0.21058103924471542612E-01
    0.29947808607520103041E-01
    0.98293830065731765955E-03
    0.13394209826856323230E-02
    0.39458384364777041031E-01
    0.30704455572553968068E-01
    0.45083079026359961384E-03
    0.80631915794378424770E-03
    0.31660236311176079499E-03
    0.52782916386994306428E-03
    0.73914673056921817267E-03
    0.15762411474442674427E-02
    0.16191683346078601224E-02
    0.19259723989023948103E-02
    0.12138115999004487310E-02
    0.12068006685205790156E-02
    0.18272991784930520467E-02
    0.13025167285606509184E-02
    0.28829529817308049804E-02
    0.18856172585220588173E-02
    0.26110735773204485355E+00
    0.10563593665268128374E+00
    0.25118184190928705135E+00
    0.18760951026795891217E+00
    0.16582850898193376987E+00
    0.84109850197324184662E-01
    0.98591670681202241491E-03