# vtk DataFile Version 3.0
LAPLACIEN  2D
ASCII
DATASET UNSTRUCTURED_GRID
 POINTS         481  float
   6.2500000000000000E-002  0.87500000000000000        0.0000000000000000     
  0.12500000000000000       0.87500000000000000        0.0000000000000000     
  0.12500000000000000       0.93750000000000000        0.0000000000000000     
   3.7499999999999999E-002  0.91249999999999998        0.0000000000000000     
   8.1250000000000003E-002  0.91874999999999996        0.0000000000000000     
   8.7499999999999994E-002  0.96250000000000002        0.0000000000000000     
   4.3749999999999997E-002  0.95625000000000004        0.0000000000000000     
  0.18750000000000000       0.87500000000000000        0.0000000000000000     
  0.25000000000000000       0.87500000000000000        0.0000000000000000     
  0.25000000000000000       0.93750000000000000        0.0000000000000000     
  0.16250000000000001       0.91249999999999998        0.0000000000000000     
  0.20624999999999999       0.91874999999999996        0.0000000000000000     
  0.21249999999999999       0.96250000000000002        0.0000000000000000     
  0.16875000000000001       0.95625000000000004        0.0000000000000000     
   6.2500000000000000E-002  0.75000000000000000        0.0000000000000000     
  0.12500000000000000       0.75000000000000000        0.0000000000000000     
  0.12500000000000000       0.81250000000000000        0.0000000000000000     
   3.7499999999999999E-002  0.78749999999999998        0.0000000000000000     
   8.1250000000000003E-002  0.79374999999999996        0.0000000000000000     
   8.7499999999999994E-002  0.83750000000000002        0.0000000000000000     
   4.3749999999999997E-002  0.83125000000000004        0.0000000000000000     
  0.18750000000000000       0.75000000000000000        0.0000000000000000     
  0.25000000000000000       0.75000000000000000        0.0000000000000000     
  0.25000000000000000       0.81250000000000000        0.0000000000000000     
  0.16250000000000001       0.78749999999999998        0.0000000000000000     
  0.20624999999999999       0.79374999999999996        0.0000000000000000     
  0.21249999999999999       0.83750000000000002        0.0000000000000000     
  0.16875000000000001       0.83125000000000004        0.0000000000000000     
  0.31250000000000000       0.87500000000000000        0.0000000000000000     
  0.37500000000000000       0.87500000000000000        0.0000000000000000     
  0.37500000000000000       0.93750000000000000        0.0000000000000000     
  0.28749999999999998       0.91249999999999998        0.0000000000000000     
  0.33124999999999999       0.91874999999999996        0.0000000000000000     
  0.33750000000000002       0.96250000000000002        0.0000000000000000     
  0.29375000000000001       0.95625000000000004        0.0000000000000000     
  0.43750000000000000       0.87500000000000000        0.0000000000000000     
  0.50000000000000000       0.87500000000000000        0.0000000000000000     
  0.50000000000000000       0.93750000000000000        0.0000000000000000     
  0.41249999999999998       0.91249999999999998        0.0000000000000000     
  0.45624999999999999       0.91874999999999996        0.0000000000000000     
  0.46250000000000002       0.96250000000000002        0.0000000000000000     
  0.41875000000000001       0.95625000000000004        0.0000000000000000     
  0.31250000000000000       0.75000000000000000        0.0000000000000000     
  0.37500000000000000       0.75000000000000000        0.0000000000000000     
  0.37500000000000000       0.81250000000000000        0.0000000000000000     
  0.28749999999999998       0.78749999999999998        0.0000000000000000     
  0.33124999999999999       0.79374999999999996        0.0000000000000000     
  0.33750000000000002       0.83750000000000002        0.0000000000000000     
  0.29375000000000001       0.83125000000000004        0.0000000000000000     
  0.43750000000000000       0.75000000000000000        0.0000000000000000     
  0.50000000000000000       0.75000000000000000        0.0000000000000000     
  0.50000000000000000       0.81250000000000000        0.0000000000000000     
  0.41249999999999998       0.78749999999999998        0.0000000000000000     
  0.45624999999999999       0.79374999999999996        0.0000000000000000     
  0.46250000000000002       0.83750000000000002        0.0000000000000000     
  0.41875000000000001       0.83125000000000004        0.0000000000000000     
   6.2500000000000000E-002  0.62500000000000000        0.0000000000000000     
  0.12500000000000000       0.62500000000000000        0.0000000000000000     
  0.12500000000000000       0.68750000000000000        0.0000000000000000     
   3.7499999999999999E-002  0.66249999999999998        0.0000000000000000     
   8.1250000000000003E-002  0.66874999999999996        0.0000000000000000     
   8.7499999999999994E-002  0.71250000000000002        0.0000000000000000     
   4.3749999999999997E-002  0.70625000000000004        0.0000000000000000     
  0.18750000000000000       0.62500000000000000        0.0000000000000000     
  0.25000000000000000       0.62500000000000000        0.0000000000000000     
  0.25000000000000000       0.68750000000000000        0.0000000000000000     
  0.16250000000000001       0.66249999999999998        0.0000000000000000     
  0.20624999999999999       0.66874999999999996        0.0000000000000000     
  0.21249999999999999       0.71250000000000002        0.0000000000000000     
  0.16875000000000001       0.70625000000000004        0.0000000000000000     
   6.2500000000000000E-002  0.50000000000000000        0.0000000000000000     
  0.12500000000000000       0.50000000000000000        0.0000000000000000     
  0.12500000000000000       0.56250000000000000        0.0000000000000000     
   3.7499999999999999E-002  0.53749999999999998        0.0000000000000000     
   8.1250000000000003E-002  0.54374999999999996        0.0000000000000000     
   8.7499999999999994E-002  0.58750000000000002        0.0000000000000000     
   4.3749999999999997E-002  0.58125000000000004        0.0000000000000000     
  0.18750000000000000       0.50000000000000000        0.0000000000000000     
  0.25000000000000000       0.50000000000000000        0.0000000000000000     
  0.25000000000000000       0.56250000000000000        0.0000000000000000     
  0.16250000000000001       0.53749999999999998        0.0000000000000000     
  0.20624999999999999       0.54374999999999996        0.0000000000000000     
  0.21249999999999999       0.58750000000000002        0.0000000000000000     
  0.16875000000000001       0.58125000000000004        0.0000000000000000     
  0.31250000000000000       0.62500000000000000        0.0000000000000000     
  0.37500000000000000       0.62500000000000000        0.0000000000000000     
  0.37500000000000000       0.68750000000000000        0.0000000000000000     
  0.28749999999999998       0.66249999999999998        0.0000000000000000     
  0.33124999999999999       0.66874999999999996        0.0000000000000000     
  0.33750000000000002       0.71250000000000002        0.0000000000000000     
  0.29375000000000001       0.70625000000000004        0.0000000000000000     
  0.43750000000000000       0.62500000000000000        0.0000000000000000     
  0.50000000000000000       0.62500000000000000        0.0000000000000000     
  0.50000000000000000       0.68750000000000000        0.0000000000000000     
  0.41249999999999998       0.66249999999999998        0.0000000000000000     
  0.45624999999999999       0.66874999999999996        0.0000000000000000     
  0.46250000000000002       0.71250000000000002        0.0000000000000000     
  0.41875000000000001       0.70625000000000004        0.0000000000000000     
  0.31250000000000000       0.50000000000000000        0.0000000000000000     
  0.37500000000000000       0.50000000000000000        0.0000000000000000     
  0.37500000000000000       0.56250000000000000        0.0000000000000000     
  0.28749999999999998       0.53749999999999998        0.0000000000000000     
  0.33124999999999999       0.54374999999999996        0.0000000000000000     
  0.33750000000000002       0.58750000000000002        0.0000000000000000     
  0.29375000000000001       0.58125000000000004        0.0000000000000000     
  0.43750000000000000       0.50000000000000000        0.0000000000000000     
  0.50000000000000000       0.50000000000000000        0.0000000000000000     
  0.50000000000000000       0.56250000000000000        0.0000000000000000     
  0.41249999999999998       0.53749999999999998        0.0000000000000000     
  0.45624999999999999       0.54374999999999996        0.0000000000000000     
  0.46250000000000002       0.58750000000000002        0.0000000000000000     
  0.41875000000000001       0.58125000000000004        0.0000000000000000     
  0.56250000000000000       0.87500000000000000        0.0000000000000000     
  0.62500000000000000       0.87500000000000000        0.0000000000000000     
  0.62500000000000000       0.93750000000000000        0.0000000000000000     
  0.53749999999999998       0.91249999999999998        0.0000000000000000     
  0.58125000000000004       0.91874999999999996        0.0000000000000000     
  0.58750000000000002       0.96250000000000002        0.0000000000000000     
  0.54374999999999996       0.95625000000000004        0.0000000000000000     
  0.68750000000000000       0.87500000000000000        0.0000000000000000     
  0.75000000000000000       0.87500000000000000        0.0000000000000000     
  0.75000000000000000       0.93750000000000000        0.0000000000000000     
  0.66249999999999998       0.91249999999999998        0.0000000000000000     
  0.70625000000000004       0.91874999999999996        0.0000000000000000     
  0.71250000000000002       0.96250000000000002        0.0000000000000000     
[...]
 CELL_DATA         896
 SCALARS Cells_density float
 LOOKUP_TABLE default
    0.25892337082660021874E+00
    0.28338599793767599300E+00
    0.31264543935154021082E+00
    0.33580258759183817530E+00
    0.32765864219268708846E+00
    0.34716879979092796216E+00
    0.34617862551600253607E+00
    0.32756731145555267881E+00
    0.33370856548100347183E+00
    0.31260138300947637457E+00
    0.28338364019686451689E+00
    0.25885024419627788994E+00
    0.29386064958153002014E+00
    0.30740099321022101853E+00
    0.38722878143695693698E+00
    0.40213455215393623110E+00
    0.43420868676255602869E+00
    0.43440951972324648445E+00
    0.40351144424268564626E+00
    0.38735659933364624541E+00
    0.35956614352638766041E+00
    0.37313528056987310677E+00
    0.35667598978077519334E+00
    0.35584102764115538298E+00
    0.37303770972474231682E+00
    0.35710630128300063779E+00
    0.39823756052956377216E+00
    0.39830429575786274743E+00
    0.34303239481876096617E+00
    0.32703784277413328052E+00
    0.34421135040859152099E+00
    0.34421128536336598192E+00
    0.32703785726805140177E+00
    0.34303298985511437857E+00
    0.31236156093409800372E+00
    0.28513270959452741149E+00
    0.25960914437924270670E+00
    0.25967011675458662179E+00
    0.28513340067676068434E+00
    0.31232733173960963713E+00
    0.30111475781284086084E+00
    0.30111474485723371819E+00
    0.35284230657901571870E+00
    0.37260932998575951869E+00
    0.36775788375297346899E+00
    0.39999957535275704190E+00
    0.40408981307685026829E+00
    0.43212388076060492814E+00
    0.43402009143117742385E+00
    0.39999966118710239549E+00
    0.38679714850867952247E+00
    0.36428534904101894654E+00
    0.37248431396141001848E+00
    0.35284047180596489479E+00
    0.39378903264326892142E+00
    0.40000041461804092258E+00
    0.43289106973745622442E+00
    0.41000591039605660537E+00
    0.39998126605156830715E+00
    0.36505040268467175979E+00
    0.37241727539085561771E+00
    0.35286411779170723246E+00
    0.35385020133909339535E+00
    0.37249017272297346715E+00
    0.36640137594948612998E+00
    0.38698608397354633537E+00
    0.40135905878208033570E+00
    0.43446637693545114844E+00
    0.40000031337482105931E+00
    0.39238309255203707160E+00
    0.31236219911680662698E+00
    0.28513268492181925717E+00
    0.25960726460775174207E+00
    0.25960725326601447049E+00
    0.28513144696114123278E+00
    0.31229537376595994935E+00
    0.34054753332279208422E+00
    0.32694190898089225961E+00
    0.34335024389184898297E+00
    0.34418257559554055192E+00
    0.32703792435274292583E+00
    0.34307253802290721412E+00
    0.30111467995839885647E+00
    0.30111280751573121783E+00
    0.37969421918075857425E+00
    0.39999953050307740510E+00
    0.37374960374412907749E+00
    0.36187942489244301347E+00
    0.39999991651838578965E+00
    0.35825709369965313966E+00
    0.39316834116076365691E+00
    0.40365100413106569377E+00
    0.43111045598155089964E+00
    0.43073949575776920851E+00
    0.40517016214757378689E+00
    0.39999969452924849511E+00
    0.40000048951856054247E+00
    0.40000032486027614631E+00
    0.34719869692920590776E+00
    0.32765919456301800805E+00
    0.33580224736557934273E+00
    0.31264543376698245014E+00
    0.28338602350183139666E+00
    0.25892499654056300162E+00
    0.25892499688158399085E+00
    0.28338603695083436351E+00
    0.31264640691816575346E+00
    0.33585067632409670857E+00
    0.32766537352845187536E+00
    0.34753645219981649239E+00
    0.30740291589878693257E+00
    0.29386075496050756417E+00
    0.43371213125236673935E+00
    0.41030686224031198694E+00
    0.39999959930253697893E+00
    0.36785875360595537975E+00
    0.37272971015505979020E+00
    0.35284418383374516193E+00
    0.35284284609800120602E+00
    0.37262092297929411133E+00
    0.36429269854247164906E+00
    0.38693779000254507894E+00
    0.40322724712599394836E+00
    0.43426006189503579824E+00
    0.40071178870988732879E+00
    0.39677955449240287500E+00
    0.31236460545599320504E+00
    0.28513271203201473458E+00
    0.25960726454551580344E+00
    0.25960726435691156011E+00
    0.28513274004957700480E+00
    0.31236640578088548104E+00
    0.34326804990854342670E+00
    0.32704231952403478578E+00
    0.34421137210401631101E+00
    0.34421140409989209319E+00
    0.32704110656365248389E+00
    0.34323804620190440096E+00
    0.30111478447029665917E+00
    0.30111480837212928341E+00
    0.35730873071760083093E+00
    0.37826098391570328605E+00
    0.35598734779171625764E+00
    0.35635682032499299554E+00
    0.39078022170886111963E+00
    0.36193103230036827167E+00
    0.39999965848506879862E+00
    0.40811747299570272363E+00
    0.43278930229569628763E+00
    0.43275637341992700957E+00
    0.40820143911401585157E+00
    0.38819280058161564906E+00
    0.40000037237359942210E+00
    0.40000042724486545298E+00
    0.34719426910650014184E+00
    0.32765971412959676856E+00
    0.33582953542952426185E+00
    0.31264608454851194885E+00
    0.28338603380224663963E+00
    0.25892499830819371009E+00
    0.25892499672522872878E+00
    0.28338605978735620372E+00
    0.31264881308943159866E+00
    0.33600175144476179812E+00
    0.32766251909500393458E+00
    0.34721969096479721184E+00
    0.30740288710236346459E+00
    0.29386075096848407462E+00
    0.25892499779280225836E+00
    0.28338602449183070142E+00
    0.31264550428582627006E+00
    0.33580528426603173386E+00
    0.32765951841453866411E+00
    0.34721659244769836894E+00
    0.34847973891019418113E+00
    0.32771063362156954701E+00
    0.33713308896891158728E+00
    0.31267537416620605484E+00
    0.28338643316490452762E+00
    0.25892499935414969858E+00
    0.29386077209884864381E+00
    0.30740356531585016908E+00
    0.38806432588324851762E+00
    0.39927116032409826207E+00
    0.40007028647876408112E+00
    0.39995231045591894681E+00
    0.39924026678618135255E+00
    0.38698657573205752502E+00
    0.35709746721957530413E+00
    0.37302119305499042978E+00
    0.35581161758969498399E+00
    0.35581207982096696441E+00
    0.37302288766867747194E+00
    0.35715584540155564941E+00
    0.39788060942928799024E+00
    0.39788079838547757427E+00
    0.34308045881181953307E+00
    0.32705169750946350149E+00
    0.34547824255975811969E+00
    0.35303186115423368374E+00
    0.32817515297306337763E+00
    0.34351642963839279510E+00
    0.31236312338660393584E+00
    0.28513267516840734572E+00
    0.25960726405900447222E+00
    0.25960726504530262648E+00
    0.28513269334141250200E+00
    0.31236232096052329865E+00
    0.30111480709842552983E+00
    0.30112307713436947676E+00
    0.38202897718936706939E+00
    0.40466441284803428280E+00
    0.43487749260849628552E+00
    0.43326034841357052851E+00
    0.42516252980975788311E+00
    0.41073799808127686717E+00
    0.40277368593020351772E+00
    0.41206708587039403424E+00
    0.38851442600308555564E+00
    0.36882758456572345418E+00
    0.39011161698403962195E+00
    0.36947473958697957253E+00
    0.41631299588513409615E+00
    0.42157280085694676108E+00
    0.25892499648225164588E+00
    0.28338603178242788294E+00
    0.31264607847305692090E+00
    0.33583227962431272395E+00
    0.32765925339603907407E+00
    0.34717248614676632368E+00
    0.34617868057364747925E+00
    0.32756729205951584660E+00
    0.33370755103780097572E+00
    0.31257251498410421053E+00
    0.28338457268168593117E+00
    0.25892498209527314845E+00
    0.29386066707096636375E+00
    0.30740100198744102489E+00
    0.39999887899015523773E+00
    0.39999959694479508832E+00
    0.43240475153185675694E+00
    0.43377199887294387581E+00
    0.40041262687113254870E+00
    0.38726216905853905192E+00
    0.35956509927138374794E+00
    0.37320328909519656646E+00
    0.35667940407498721633E+00
    0.35591815089678519035E+00
    0.37544990514035714302E+00
    0.35776737177038187010E+00
    0.39966783104270509064E+00
    0.39996674667335263553E+00
    0.34303256200531462294E+00
    0.32703785078955610599E+00
    0.34421194030014323761E+00
    0.34425039442603000417E+00
    0.32703933016355946073E+00
    0.34308731099285794119E+00
    0.31236234216925401475E+00
    0.28513268708801670082E+00
    0.25960726460644972802E+00
    0.25960726469332778832E+00
    0.28513267665088110059E+00
    0.31236155413066468700E+00
    0.30111474520129460908E+00
    0.30111476514225032908E+00
    0.36612093049682836732E+00
    0.39999957293577481643E+00
    0.38753314829489365900E+00
    0.39999957476117720123E+00
    0.40677475748336039407E+00
    0.43171058534372530602E+00
    0.43222798087430042147E+00
    0.40751518881751935819E+00
    0.39839812419718995118E+00
    0.36546561299376889576E+00
    0.39233565230601491480E+00
    0.35388772749313623933E+00
    0.40000064373122634631E+00
    0.40000026208090239122E+00
    0.43469159404439045025E+00
    0.40563401833552759079E+00
    0.38705550893825541037E+00
    0.36429288944067778067E+00
    0.37237460011605227894E+00
    0.35286352986888780414E+00
    0.35384988090391067406E+00
    0.37246848979781055355E+00
    0.36640836280321809060E+00
    0.38720289401121910089E+00
    0.40758638938814789610E+00
    0.43502282693771920918E+00
    0.39987092685375258405E+00
    0.39179461945425408942E+00
    0.31236156442912954567E+00
    0.28513271029410941493E+00
    0.25960914382594607597E+00
    0.25967010513373661729E+00
    0.28513217603344559459E+00
    0.31226140815989184008E+00
    0.34054663866944973050E+00
    0.32694189178813037877E+00
    0.34335024347650860976E+00
    0.34418255610885717388E+00
    0.32703725645531001032E+00
    0.34303328098868868246E+00
    0.30111467220679621892E+00
    0.30111282086317248119E+00
    0.36022652364504825773E+00
    0.37788876706070001488E+00
    0.35598371478838797266E+00
    0.35581815093799673555E+00
    0.37309870593982280562E+00
    0.35710383369487108673E+00
    0.38711061086766596073E+00
    0.39999964054775893896E+00
    0.43264901677097572508E+00
    0.43167779258343991211E+00
    0.39999964222029693595E+00
    0.39999960295394532128E+00
    0.39909750374856428623E+00
    0.39959787223904658093E+00
    0.34719393902835715693E+00
    0.32765917367157210149E+00
    0.33580368200736521178E+00
    0.31267453708733539131E+00
    0.28338509613126222630E+00
    0.25885025883620071951E+00
    0.25892337152837613390E+00
    0.28338599733706371087E+00
    0.31264543823265550371E+00
    0.33580250564243946387E+00
    0.32765915122925776126E+00
    0.34719400461184052320E+00
    0.30740284061041939223E+00
    0.29386073342973145772E+00
    0.40003659245099082442E+00
    0.39915564813243048503E+00
    0.38668764074123757046E+00
    0.36427644547211746051E+00
    0.37236705752977650175E+00
    0.35283867381654737683E+00
    0.35283829647965281318E+00
    0.37236705391720115177E+00
    0.36427642617018374249E+00
    0.38667378201308527652E+00
    0.39918014829893300188E+00
    0.39997714392004618533E+00
    0.39888673183287892687E+00
    0.39164550431506311989E+00
    0.31236155603973098094E+00
    0.28513267532336611376E+00
    0.25960726399064720793E+00
    0.25960726779748310999E+00
    0.28513311616216546751E+00
    0.31239388123527217500E+00
    0.34479269273884294300E+00
    0.32708707184597124451E+00
    0.34494429823747041475E+00
    0.34422699609057244574E+00
    0.32703805308194833223E+00
    0.34303256485417771282E+00
    0.30111475971625334402E+00
    0.30111545217744190017E+00
    0.43423875620834168076E+00
    0.41003122077416875868E+00
    0.38303699195355300766E+00
    0.37275345445553720314E+00
    0.38694466925509840571E+00
    0.35905436663158885047E+00
    0.38807151473766166028E+00
    0.40963977066309209540E+00
    0.40212488051892059104E+00
    0.40998813107952908341E+00
    0.42492476718239818867E+00
    0.43300322404714536306E+00
    0.42258619199317359882E+00
    0.41779228711709959221E+00
    0.35096368490318125000E+00
    0.32773126370091809623E+00
    0.33586177474686251809E+00
    0.31264679061798800186E+00
    0.28338605287282409018E+00
    0.25892499668735663443E+00
    0.25892499600955437566E+00
    0.28338602297662807139E+00
    0.31264546750959026911E+00
    0.33584888249060784737E+00
    0.32911379948715535626E+00
    0.35762008260701916296E+00
    0.30741776975752466150E+00
    0.29386079838998163671E+00
    0.25892499747290004253E+00
    0.28338608968144374245E+00
    0.31265061363770224601E+00
    0.33605008544390158054E+00
    0.32766379005668344604E+00
    0.34719994973138113004E+00
    0.34720276845571684809E+00
    0.32766355995434365278E+00
    0.33599705163353488224E+00
    0.31265097099167554751E+00
    0.28338610497842703362E+00
    0.25892499817317149446E+00
    0.29386075453615223552E+00
    0.30740296665844757396E+00
    0.39999952546725958680E+00
    0.40383081927548897250E+00
    0.43309351342651081218E+00
    0.43353000982647987849E+00
    0.40283821243838441317E+00
    0.38731112046980631369E+00
    0.35710965810633127360E+00
    0.37310723708821125211E+00
    0.35581650499453493230E+00
    0.35593875462330815118E+00
    0.37709880097753406547E+00
    0.36176020676190318026E+00
    0.39978259687724793103E+00
    0.39998681997242196973E+00
    0.34307748221826617208E+00
    0.32703870605432450169E+00
    0.34421153887523536774E+00
    0.34422783771692261334E+00
    0.32704227592189455409E+00
    0.34332063174833771235E+00
    0.31236548989480539262E+00
    0.28513271799977640830E+00
    0.25960726504102493717E+00
    0.25960726361061875478E+00
    0.28513268865882240855E+00
    0.31236237705065578174E+00
    0.30111475474782734008E+00
    0.30111479561698795138E+00
    0.35289251095668522362E+00
    0.37399755394677663967E+00
    0.36440689388700703288E+00
    0.38854881878605451728E+00
    0.40965901605329096968E+00
    0.43362330719100689036E+00
    0.43353494731019109887E+00
    0.40962087157573190410E+00
    0.39999967645330425370E+00
    0.36982034117066114876E+00
    0.38724100050936183237E+00
    0.35328498541587871618E+00
    0.40000048538036409029E+00
    0.40000029977884082877E+00
    0.25892337108699253756E+00
    0.28338599888964222107E+00
    0.31264543464803951078E+00
    0.33580231477842148458E+00
    0.32765914781455907079E+00
    0.34719392168572593693E+00
    0.34720194658392133924E+00
    0.32765943876446723682E+00
    0.33581169568462732045E+00
    0.31267469467557823526E+00
    0.28338509696999625298E+00
    0.25885025876514339283E+00
    0.29386073537015999779E+00
    0.30740284405962198244E+00
    0.38700730098876490182E+00
    0.39939880850952547142E+00
    0.39999036141564225932E+00
    0.39999550852817122859E+00
    0.39985868258627466076E+00
    0.39651715935665071688E+00
    0.35763061007163354788E+00
    0.37310132709208143620E+00
    0.35581371685941864946E+00
    0.35581229832048510975E+00
    0.37305560562928108403E+00
    0.35709912790860587339E+00
    0.39839021869675200760E+00
    0.39839439679230603808E+00
    0.34304582570101188610E+00
    0.32703807615073388071E+00
    0.34421313301189621070E+00
    0.34421125229075838492E+00
    0.32703784965834120646E+00
    0.34303265434487939523E+00
    0.31236155591779801721E+00
    0.28513270867749562765E+00
    0.25960914479710106573E+00
    0.25967011655117094859E+00
    0.28513340289520477944E+00
    0.31232752771677563253E+00
    0.30111476171238066302E+00
    0.30111474566071783077E+00
    0.35283829418979972825E+00
    0.37236788094611561473E+00
    0.36427827194750811435E+00
    0.38670246936759317125E+00
    0.39933063053959816369E+00
    0.39998608946481106763E+00
    0.39998633425569962707E+00
    0.39934093853014845932E+00
    0.38670007753109419957E+00
    0.36427806590808103904E+00
    0.37236787404069493501E+00
    0.35283829407028127756E+00
    0.39165952367765355380E+00
    0.39893735917305828131E+00
    0.39999842786785749782E+00
    0.39999488808868927103E+00
    0.39996754578160292892E+00
    0.40069112981589349864E+00
    0.40191159554203392812E+00
    0.41095807978969023377E+00
    0.35761405918246980118E+00
    0.39638767060804008802E+00
    0.36518807271630554512E+00
    0.38773492995104025249E+00
    0.39953834542693272835E+00
    0.39999464550115976236E+00
    0.39998785931989944142E+00
    0.39993660454118118430E+00
    0.33273223041142951928E+00
    0.30850791307285463372E+00
    0.28026213117520359930E+00
    0.28633830535755794289E+00
    0.31970042176925167476E+00
    0.45810750438678199403E+00
    0.46444282676482223637E+00
    0.36488292402601296693E+00
    0.41069524091167347590E+00
    0.41890901393743873449E+00
    0.41883138379406004148E+00
    0.40457267209817399101E+00
    0.37402739962264835993E+00
    0.33560991701030196133E+00
    0.35709898819323820929E+00
    0.37306083859833455429E+00
    0.35581927022724746390E+00
    0.35600877894677829261E+00
    0.37794583051817542962E+00
    0.36443835529119322780E+00
    0.39881387935816059453E+00
    0.39994114125252455683E+00
    0.39999422069092072096E+00
    0.39999263809745927434E+00
    0.39943103432577042877E+00
    0.38700373361294154728E+00
    0.39848151313565360887E+00
    0.39867788801691778078E+00
    0.34734639213980311734E+00
    0.32911830835711347598E+00
    0.37941288119242461141E+00
    0.31431082326424758522E+00
    0.28353400921631927156E+00
    0.26238320545700033470E+00
    0.27354823663563693215E+00
    0.28741004160977795534E+00
    0.31474456602538902761E+00
    0.33643029093181275879E+00
    0.32767525834023430997E+00
    0.34720804549854328291E+00
    0.30743094696635886454E+00
    0.29400406589801825197E+00
    0.43794380509953995118E+00
    0.41370721431963858317E+00
    0.38984841294438637993E+00
    0.36447600895419018929E+00
    0.37457804914053283163E+00
    0.35289564174959930920E+00
    0.35289833717715296535E+00
    0.37467592485815776060E+00
    0.36458582541806106025E+00
    0.39173060113379720715E+00
    0.41361562801523826804E+00
    0.43781125482338495436E+00
    0.40398248731277275336E+00
    0.39992847076768789361E+00
    0.31236167680365933830E+00
    0.28513267959311239252E+00
    0.25960726430140573795E+00
    0.25960726454884580638E+00
    0.28513267767352090676E+00
    0.31236155598346831974E+00
    0.34303266708198537627E+00
    0.32703784762473331327E+00
    0.34421125076258446418E+00
    0.34421304253239437543E+00
    0.32703800143978467574E+00
    0.34304122558508481911E+00
    0.30111474627678064264E+00
    0.30111474393646908698E+00
    0.35957508465034287992E+00
    0.37320078155453878521E+00
    0.35667708426557703794E+00
    0.35584181073431225828E+00
    0.37309059485071044415E+00
    0.35732092355425554286E+00
    0.39276845420548145427E+00
    0.41023923721925953378E+00
    0.43745439752175196979E+00
    0.43764639865251503403E+00
    0.41148699534348348594E+00
    0.38768609684419302885E+00
    0.39985025173160576584E+00
    0.39939460747794858220E+00
    0.34617862565807183683E+00
    0.32756729396506878427E+00
    0.33370755115463651697E+00
    0.31257251504453675839E+00
    0.28338457474744227493E+00
    0.25892498221471982323E+00
    0.25892499635990368079E+00
    0.28338602420403780080E+00
    0.31264561083143999065E+00
    0.33581126619684459333E+00
    0.32765878968876088750E+00
    0.34716882384033675990E+00
    0.30740099553192040682E+00
    0.29386066711726693823E+00
    0.25892499697583204465E+00
    0.28338602419662489718E+00
    0.31264544452806780628E+00
    0.33580266240238287878E+00
    0.32765919174812085934E+00
    0.34719691809021085982E+00
    0.34719411631532987039E+00
    0.32765914681645402773E+00
    0.33580230473655287016E+00
    0.31264543448643850043E+00
    0.28338602381882654901E+00
    0.25892499654029205169E+00
    0.29386075360071051144E+00
    0.30740284151228353116E+00
    0.38742688923134149803E+00
    0.39999953079077771312E+00
    0.42265303784969049383E+00
    0.41927719741899860395E+00
    0.40000041714678996607E+00
    0.39999892827956290420E+00
    0.40000030057496066549E+00
    0.39999938599408102480E+00
    0.35789293520975740126E+00
    0.35589286157204158556E+00
    0.37310904683648443703E+00
    0.35711037470614109823E+00