# vtk DataFile Version 3.0
LAPLACIEN  2D
ASCII
DATASET UNSTRUCTURED_GRID
 POINTS         481  float
   6.2500000000000000E-002  0.87500000000000000        0.0000000000000000     
  0.12500000000000000       0.87500000000000000        0.0000000000000000     
  0.12500000000000000       0.93750000000000000        0.0000000000000000     
   3.7499999999999999E-002  0.91249999999999998        0.0000000000000000     
   8.1250000000000003E-002  0.91874999999999996        0.0000000000000000     
   8.7499999999999994E-002  0.96250000000000002        0.0000000000000000     
   4.3749999999999997E-002  0.95625000000000004        0.0000000000000000     
  0.18750000000000000       0.87500000000000000        0.0000000000000000     
  0.25000000000000000       0.87500000000000000        0.0000000000000000     
  0.25000000000000000       0.93750000000000000        0.0000000000000000     
  0.16250000000000001       0.91249999999999998        0.0000000000000000     
  0.20624999999999999       0.91874999999999996        0.0000000000000000     
  0.21249999999999999       0.96250000000000002        0.0000000000000000     
  0.16875000000000001       0.95625000000000004        0.0000000000000000     
   6.2500000000000000E-002  0.75000000000000000        0.0000000000000000     
  0.12500000000000000       0.75000000000000000        0.0000000000000000     
  0.12500000000000000       0.81250000000000000        0.0000000000000000     
   3.7499999999999999E-002  0.78749999999999998        0.0000000000000000     
   8.1250000000000003E-002  0.79374999999999996        0.0000000000000000     
   8.7499999999999994E-002  0.83750000000000002        0.0000000000000000     
   4.3749999999999997E-002  0.83125000000000004        0.0000000000000000     
  0.18750000000000000       0.75000000000000000        0.0000000000000000     
  0.25000000000000000       0.75000000000000000        0.0000000000000000     
  0.25000000000000000       0.81250000000000000        0.0000000000000000     
  0.16250000000000001       0.78749999999999998        0.0000000000000000     
  0.20624999999999999       0.79374999999999996        0.0000000000000000     
  0.21249999999999999       0.83750000000000002        0.0000000000000000     
  0.16875000000000001       0.83125000000000004        0.0000000000000000     
  0.31250000000000000       0.87500000000000000        0.0000000000000000     
  0.37500000000000000       0.87500000000000000        0.0000000000000000     
  0.37500000000000000       0.93750000000000000        0.0000000000000000     
  0.28749999999999998       0.91249999999999998        0.0000000000000000     
  0.33124999999999999       0.91874999999999996        0.0000000000000000     
  0.33750000000000002       0.96250000000000002        0.0000000000000000     
  0.29375000000000001       0.95625000000000004        0.0000000000000000     
  0.43750000000000000       0.87500000000000000        0.0000000000000000     
  0.50000000000000000       0.87500000000000000        0.0000000000000000     
  0.50000000000000000       0.93750000000000000        0.0000000000000000     
  0.41249999999999998       0.91249999999999998        0.0000000000000000     
  0.45624999999999999       0.91874999999999996        0.0000000000000000     
  0.46250000000000002       0.96250000000000002        0.0000000000000000     
  0.41875000000000001       0.95625000000000004        0.0000000000000000     
  0.31250000000000000       0.75000000000000000        0.0000000000000000     
  0.37500000000000000       0.75000000000000000        0.0000000000000000     
  0.37500000000000000       0.81250000000000000        0.0000000000000000     
  0.28749999999999998       0.78749999999999998        0.0000000000000000     
  0.33124999999999999       0.79374999999999996        0.0000000000000000     
  0.33750000000000002       0.83750000000000002        0.0000000000000000     
  0.29375000000000001       0.83125000000000004        0.0000000000000000     
  0.43750000000000000       0.75000000000000000        0.0000000000000000     
  0.50000000000000000       0.75000000000000000        0.0000000000000000     
  0.50000000000000000       0.81250000000000000        0.0000000000000000     
  0.41249999999999998       0.78749999999999998        0.0000000000000000     
  0.45624999999999999       0.79374999999999996        0.0000000000000000     
  0.46250000000000002       0.83750000000000002        0.0000000000000000     
  0.41875000000000001       0.83125000000000004        0.0000000000000000     
   6.2500000000000000E-002  0.62500000000000000        0.0000000000000000     
  0.12500000000000000       0.62500000000000000        0.0000000000000000     
  0.12500000000000000       0.68750000000000000        0.0000000000000000     
   3.7499999999999999E-002  0.66249999999999998        0.0000000000000000     
   8.1250000000000003E-002  0.66874999999999996        0.0000000000000000     
   8.7499999999999994E-002  0.71250000000000002        0.0000000000000000     
   4.3749999999999997E-002  0.70625000000000004        0.0000000000000000     
  0.18750000000000000       0.62500000000000000        0.0000000000000000     
  0.25000000000000000       0.62500000000000000        0.0000000000000000     
  0.25000000000000000       0.68750000000000000        0.0000000000000000     
  0.16250000000000001       0.66249999999999998        0.0000000000000000     
  0.20624999999999999       0.66874999999999996        0.0000000000000000     
  0.21249999999999999       0.71250000000000002        0.0000000000000000     
  0.16875000000000001       0.70625000000000004        0.0000000000000000     
   6.2500000000000000E-002  0.50000000000000000        0.0000000000000000     
  0.12500000000000000       0.50000000000000000        0.0000000000000000     
  0.12500000000000000       0.56250000000000000        0.0000000000000000     
   3.7499999999999999E-002  0.53749999999999998        0.0000000000000000     
   8.1250000000000003E-002  0.54374999999999996        0.0000000000000000     
   8.7499999999999994E-002  0.58750000000000002        0.0000000000000000     
   4.3749999999999997E-002  0.58125000000000004        0.0000000000000000     
  0.18750000000000000       0.50000000000000000        0.0000000000000000     
  0.25000000000000000       0.50000000000000000        0.0000000000000000     
  0.25000000000000000       0.56250000000000000        0.0000000000000000     
  0.16250000000000001       0.53749999999999998        0.0000000000000000     
  0.20624999999999999       0.54374999999999996        0.0000000000000000     
  0.21249999999999999       0.58750000000000002        0.0000000000000000     
  0.16875000000000001       0.58125000000000004        0.0000000000000000     
  0.31250000000000000       0.62500000000000000        0.0000000000000000     
  0.37500000000000000       0.62500000000000000        0.0000000000000000     
  0.37500000000000000       0.68750000000000000        0.0000000000000000     
  0.28749999999999998       0.66249999999999998        0.0000000000000000     
  0.33124999999999999       0.66874999999999996        0.0000000000000000     
  0.33750000000000002       0.71250000000000002        0.0000000000000000     
  0.29375000000000001       0.70625000000000004        0.0000000000000000     
  0.43750000000000000       0.62500000000000000        0.0000000000000000     
  0.50000000000000000       0.62500000000000000        0.0000000000000000     
  0.50000000000000000       0.68750000000000000        0.0000000000000000     
  0.41249999999999998       0.66249999999999998        0.0000000000000000     
  0.45624999999999999       0.66874999999999996        0.0000000000000000     
  0.46250000000000002       0.71250000000000002        0.0000000000000000     
  0.41875000000000001       0.70625000000000004        0.0000000000000000     
  0.31250000000000000       0.50000000000000000        0.0000000000000000     
  0.37500000000000000       0.50000000000000000        0.0000000000000000     
  0.37500000000000000       0.56250000000000000        0.0000000000000000     
  0.28749999999999998       0.53749999999999998        0.0000000000000000     
  0.33124999999999999       0.54374999999999996        0.0000000000000000     
  0.33750000000000002       0.58750000000000002        0.0000000000000000     
  0.29375000000000001       0.58125000000000004        0.0000000000000000     
  0.43750000000000000       0.50000000000000000        0.0000000000000000     
  0.50000000000000000       0.50000000000000000        0.0000000000000000     
  0.50000000000000000       0.56250000000000000        0.0000000000000000     
  0.41249999999999998       0.53749999999999998        0.0000000000000000     
  0.45624999999999999       0.54374999999999996        0.0000000000000000     
  0.46250000000000002       0.58750000000000002        0.0000000000000000     
  0.41875000000000001       0.58125000000000004        0.0000000000000000     
  0.56250000000000000       0.87500000000000000        0.0000000000000000     
  0.62500000000000000       0.87500000000000000        0.0000000000000000     
  0.62500000000000000       0.93750000000000000        0.0000000000000000     
  0.53749999999999998       0.91249999999999998        0.0000000000000000     
  0.58125000000000004       0.91874999999999996        0.0000000000000000     
  0.58750000000000002       0.96250000000000002        0.0000000000000000     
  0.54374999999999996       0.95625000000000004        0.0000000000000000     
  0.68750000000000000       0.87500000000000000        0.0000000000000000     
  0.75000000000000000       0.87500000000000000        0.0000000000000000     
  0.75000000000000000       0.93750000000000000        0.0000000000000000     
  0.66249999999999998       0.91249999999999998        0.0000000000000000     
  0.70625000000000004       0.91874999999999996        0.0000000000000000     
  0.71250000000000002       0.96250000000000002        0.0000000000000000     
[...]
 CELL_DATA         896
 SCALARS Endothelial_cells float
 LOOKUP_TABLE default
    0.25810897889392470095E+00
    0.28247085869424243265E+00
    0.31229220457119349907E+00
    0.33560215367524198760E+00
    0.32739036057963333270E+00
    0.34704021038820043188E+00
    0.34682116106403276801E+00
    0.32738614997922294014E+00
    0.33514980904597818645E+00
    0.31229576941375070120E+00
    0.28247079785893181025E+00
    0.25809178803939009095E+00
    0.29329275274065297330E+00
    0.30696422887718910477E+00
    0.38801567951171217485E+00
    0.40811922379969728381E+00
    0.43830574031767832732E+00
    0.43837689397430135152E+00
    0.40904885622220626962E+00
    0.38802559226372768109E+00
    0.35774840588129891428E+00
    0.37326177960661988120E+00
    0.35613651380844707495E+00
    0.35594942498596254810E+00
    0.37325733576399394709E+00
    0.35721994182123661954E+00
    0.39933633058365258783E+00
    0.39934371616953573403E+00
    0.34281284240690357290E+00
    0.32676313887045060902E+00
    0.34405705076431603029E+00
    0.34405705055901758538E+00
    0.32676314147817953071E+00
    0.34281288365755174796E+00
    0.31195481452353374108E+00
    0.28428050520629727371E+00
    0.25892384404054813452E+00
    0.25893853707201425207E+00
    0.28428054105171629562E+00
    0.31194681068997393014E+00
    0.30060284085450500458E+00
    0.30060284073167825580E+00
    0.35296606218515302889E+00
    0.37263036061925697284E+00
    0.36502140909259106483E+00
    0.39999942233499841127E+00
    0.41319116905256814132E+00
    0.43766575491022891020E+00
    0.43875842105322704345E+00
    0.40514231683189394495E+00
    0.38765588311013876588E+00
    0.36442017105723523152E+00
    0.37262871719081486210E+00
    0.35296605959454036006E+00
    0.39400429485567467491E+00
    0.40332733868065873128E+00
    0.43799042228390433484E+00
    0.41386871694879745487E+00
    0.39716938904699244928E+00
    0.36450053648077496149E+00
    0.37262300027376155098E+00
    0.35296724907783011416E+00
    0.35318524850044696883E+00
    0.37262696120546145995E+00
    0.36487767668329140758E+00
    0.38767895621070092016E+00
    0.40897710993661212653E+00
    0.43892741251386874213E+00
    0.40327630844209383376E+00
    0.39298163024721499692E+00
    0.31195481657170953671E+00
    0.28428050734258586418E+00
    0.25892375188068400549E+00
    0.25892375183880322886E+00
    0.28428049609676842024E+00
    0.31195187036310967343E+00
    0.34227826241484077263E+00
    0.32675874460604825700E+00
    0.34386942868288167263E+00
    0.34405568689057708376E+00
    0.32676313442645832374E+00
    0.34281358862264393883E+00
    0.30060284057065700392E+00
    0.30060282208579752750E+00
    0.35803211533541468015E+00
    0.39999791905036036210E+00
    0.35828039735037681135E+00
    0.35604600461343316464E+00
    0.39296081470467941754E+00
    0.35732226223837476597E+00
    0.38815456648809620877E+00
    0.40882514976151396180E+00
    0.43661586023453641259E+00
    0.43640801846992421931E+00
    0.41007965115086586483E+00
    0.40000231212884757026E+00
    0.40000119937675493453E+00
    0.39999829561356664565E+00
    0.34704141325099008286E+00
    0.32739036226910039895E+00
    0.33560214869090160272E+00
    0.31229220451441058737E+00
    0.28247085654758946616E+00
    0.25810905917181869995E+00
    0.25810905915805337774E+00
    0.28247085657065945652E+00
    0.31229220735736634706E+00
    0.33560290569896589208E+00
    0.32739036723588788025E+00
    0.34704223383415089277E+00
    0.30696424673866395949E+00
    0.29329275306775953736E+00
    0.43853156755704447711E+00
    0.41414313576288275254E+00
    0.39688377481020553628E+00
    0.36449755733643923739E+00
    0.37264004229912006672E+00
    0.35296609737558726216E+00
    0.35296609653525085060E+00
    0.37263968924118123782E+00
    0.36442028413541016629E+00
    0.38767349043478321891E+00
    0.41009345768523119968E+00
    0.43888439374045540298E+00
    0.40384550224872639568E+00
    0.39533878041835518458E+00
    0.31195481648492018323E+00
    0.28428050734280524425E+00
    0.25892375188072952463E+00
    0.25892375186019334077E+00
    0.28428050733822068930E+00
    0.31195482028951754261E+00
    0.34281599492485265168E+00
    0.32676314441398546240E+00
    0.34405705059156660441E+00
    0.34405705074262199483E+00
    0.32676314027561464970E+00
    0.34281356006920882251E+00
    0.30060284072597853733E+00
    0.30060284072942294875E+00
    0.35723462948558598606E+00
    0.37611668626475414090E+00
    0.35596106338134358982E+00
    0.35599138227443971605E+00
    0.38281941327620505611E+00
    0.35730975580009072257E+00
    0.39500708042385002106E+00
    0.41197224936592624633E+00
    0.43758422282483666610E+00
    0.43758637069176348211E+00
    0.41222234683775338393E+00
    0.38826485360894602561E+00
    0.39999980870103279962E+00
    0.40000092500941025753E+00
    0.34704141477995048559E+00
    0.32739036699326207192E+00
    0.33560333329868569097E+00
    0.31229220984760541757E+00
    0.28247085656308923429E+00
    0.25810905917186316438E+00
    0.25810905915801218846E+00
    0.28247085656939985299E+00
    0.31229220690315212527E+00
    0.33560279687064781262E+00
    0.32739036535730325905E+00
    0.34704176499108951859E+00
    0.30696424674764832830E+00
    0.29329275306785546062E+00
    0.25810905917902038365E+00
    0.28247085656579690172E+00
    0.31229220524250816959E+00
    0.33560229678117181606E+00
    0.32739036288645573247E+00
    0.34704141678810002114E+00
    0.34704683737465097382E+00
    0.32739037365179646244E+00
    0.33560390292111569321E+00
    0.31229221021549774528E+00
    0.28247085656532483489E+00
    0.25810905917196402815E+00
    0.29329275307109126114E+00
    0.30696424674823652445E+00
    0.38913739084048865058E+00
    0.39984448783119536097E+00
    0.40000961082897606991E+00
    0.39996124357093670865E+00
    0.39987002583167918779E+00
    0.38790737560052623856E+00
    0.35721926062788583733E+00
    0.37325610518069252119E+00
    0.35594802945091896795E+00
    0.35594802962924737555E+00
    0.37325618206486871342E+00
    0.35723333611283136779E+00
    0.39918019800292164900E+00
    0.39918090287421981177E+00
    0.34281378545248691880E+00
    0.32676315520835647055E+00
    0.34406121669302830446E+00
    0.34405685356516457762E+00
    0.32676313508206000780E+00
    0.34281286934421989487E+00
    0.31195481451593726208E+00
    0.28428050733818149842E+00
    0.25892375189874239361E+00
    0.25892375186031979517E+00
    0.28428050733769061331E+00
    0.31195481715782147347E+00
    0.30060284076368504191E+00
    0.30060284071132264971E+00
    0.35296024464740777260E+00
    0.37289526467448502745E+00
    0.40651022338721881644E+00
    0.51504787273905239253E+00
    0.39998678884198857197E+00
    0.39995154544879651937E+00
    0.39991487314941276399E+00
    0.39989376178418417629E+00
    0.38758843297689654639E+00
    0.36441937776170479912E+00
    0.37262274321839833346E+00
    0.35296561766514256142E+00
    0.39346291095257684978E+00
    0.39967442565922939313E+00
    0.25810905917898241402E+00
    0.28247085656893311523E+00
    0.31229220680565894508E+00
    0.33560276079356943235E+00
    0.32739035947231942547E+00
    0.34704024708554148670E+00
    0.34682116115689454183E+00
    0.32738615061837966769E+00
    0.33514976082541381164E+00
    0.31228892122124757291E+00
    0.28247084291555341062E+00
    0.25810905914406273576E+00
    0.29329275289827355655E+00
    0.30696422885307489414E+00
    0.39999965911861673495E+00
    0.40584775991935984063E+00
    0.43738238626594433400E+00
    0.43808609495615680185E+00
    0.40749029346362919402E+00
    0.38801642709390676833E+00
    0.35774840670222557426E+00
    0.37326947346024302865E+00
    0.35613656674259897006E+00
    0.35595463010439315488E+00
    0.37461027591334594700E+00
    0.35730250696702592350E+00
    0.40000038997075332281E+00
    0.39999973120098386570E+00
    0.34281287622040423901E+00
    0.32676313819173108399E+00
    0.34405705155630300629E+00
    0.34405738510721367573E+00
    0.32676314057816252534E+00
    0.34281339365940083352E+00
    0.31195481584440026834E+00
    0.28428050734099780117E+00
    0.25892375189873950703E+00
    0.25892375186029009670E+00
    0.28428050733146664752E+00
    0.31195481453592144305E+00
    0.30060284072024490154E+00
    0.30060284072255005761E+00
    0.35307518451035851959E+00
    0.39674028233345426386E+00
    0.36911669140647646037E+00
    0.40000000639771926547E+00
    0.41197089166389011528E+00
    0.43738428949126134659E+00
    0.43763329583939541978E+00
    0.41241227127973206779E+00
    0.38998156812432993590E+00
    0.36448555746734212502E+00
    0.38412275348095520355E+00
    0.35301806302733756970E+00
    0.39999979219996384394E+00
    0.40069671191050498793E+00
    0.43903228966192658911E+00
    0.41284971594144115326E+00
    0.38769524654890524795E+00
    0.36442036982887343610E+00
    0.37262229146535175150E+00
    0.35296724735027634745E+00
    0.35318524766952247296E+00
    0.37262662474360741527E+00
    0.36487782431730692023E+00
    0.38770598260816352409E+00
    0.41419893571148669320E+00
    0.43913572983443605047E+00
    0.40000016091859608158E+00
    0.39291515770047386047E+00
    0.31195481456996215774E+00
    0.28428050767367196716E+00
    0.25892384404115231789E+00
    0.25893853705909325447E+00
    0.28428053092573130067E+00
    0.31194386916130112386E+00
    0.34227822020607034936E+00
    0.32675874443842845007E+00
    0.34386942868249970040E+00
    0.34405568687937942984E+00
    0.32676313226375575116E+00
    0.34281288493002742834E+00
    0.30060284056700176114E+00
    0.30060282222230838567E+00
    0.35806583366745997621E+00
    0.37704336393608622879E+00
    0.35596437609457920459E+00
    0.35594814166446925308E+00
    0.37326518157172772217E+00
    0.35721989099797762934E+00
    0.38799467247104701961E+00
    0.40406756889231587593E+00
    0.43788309519721030361E+00
    0.43704192086481996604E+00
    0.40450009911474565927E+00
    0.39999986269994636245E+00
    0.40000175977810525918E+00
    0.39999915193488616572E+00
    0.34704141137382782389E+00
    0.32739036248902858572E+00
    0.33560220229909670797E+00
    0.31229905505192934179E+00
    0.28247081262997497664E+00
    0.25809178807642391140E+00
    0.25810897885366151927E+00
    0.28247085629329765633E+00
    0.31229220457222184315E+00
    0.33560215342319532628E+00
    0.32739036227049606032E+00
    0.34704141165266844116E+00
    0.30696424672537109268E+00
    0.29329275289478939914E+00
    0.39999824307044268279E+00
    0.39979601342767617789E+00
    0.38756382664621835676E+00
    0.36441933950704952228E+00
    0.37262136684135671594E+00
    0.35296603910683232996E+00
    0.35296603908547730111E+00
    0.37262136678185220351E+00
    0.36441932884353728239E+00
    0.38756326086591613711E+00
    0.39982470997272168134E+00
    0.39999884197758772686E+00
    0.39979310587080324479E+00
    0.39282366892674858150E+00
    0.31195481454595791471E+00
    0.28428050733828091889E+00
    0.25892375188073429859E+00
    0.25892375186018362632E+00
    0.28428050734479998196E+00
    0.31195483011592928246E+00
    0.34282777676110648413E+00
    0.32676315713617515302E+00
    0.34405775457575504817E+00
    0.34405705275504921969E+00
    0.32676313818408037060E+00
    0.34281287635138679715E+00
    0.30060284072060228233E+00
    0.30060284074206716776E+00
    0.39999448285953143056E+00
    0.38036063549348864132E+00
    0.35599996324598393027E+00
    0.35594842814625576866E+00
    0.37325949774013600369E+00
    0.35721925572436141749E+00
    0.38790633634094540128E+00
    0.39990187031758434033E+00
    0.39992646462578634869E+00
    0.39999849647873703118E+00
    0.39999202480832751760E+00
    0.51610562593236464224E+00
    0.39981255464841902736E+00
    0.39952134281138634853E+00
    0.34718979598158927757E+00
    0.32739076475136430489E+00
    0.33560425542948069122E+00
    0.31229221331730527833E+00
    0.28247085657157172678E+00
    0.25810905917187315639E+00
    0.25810905915801696242E+00
    0.28247085656357739936E+00
    0.31229220455462530781E+00
    0.33560214861594678259E+00
    0.32739035950833828004E+00
    0.34704151073780925563E+00
    0.30696424757097334757E+00
    0.29329275307111696280E+00
    0.25810905917903392837E+00
    0.28247085656851173008E+00
    0.31229220649088079709E+00
    0.33560268193760034450E+00
    0.32739036411604455212E+00
    0.34704146732884871840E+00
    0.34704153920663788346E+00
    0.32739037284580196907E+00
    0.33560664573422871459E+00
    0.31229221608165608215E+00
    0.28247085657186421503E+00
    0.25810905917194698622E+00
    0.29329275307106311699E+00
    0.30696424674671873856E+00
    0.39821815260227338973E+00
    0.40931325864626944000E+00
    0.43780091719545083384E+00
    0.43805846197103498474E+00
    0.40893951712600756787E+00
    0.38802998201532484801E+00
    0.35722004962824910335E+00
    0.37326502605635625276E+00
    0.35594809716087749685E+00
    0.35595618222091612859E+00
    0.37542537703382139469E+00
    0.35729302252396161199E+00
    0.40000038552868510955E+00
    0.39999977037251227552E+00
    0.34281469485806381758E+00
    0.32676314465230293926E+00
    0.34405705059276803226E+00
    0.34405710504905323566E+00
    0.32676314006568629722E+00
    0.34281349161906049527E+00
    0.31195481618165743498E+00
    0.28428050734198573313E+00
    0.25892375189872690600E+00
    0.25892375186032556833E+00
    0.28428050734685911261E+00
    0.31195482052515843829E+00
    0.30060284073878940081E+00
    0.30060284072178983239E+00
    0.35296754939762409187E+00
    0.37316127673215160332E+00
    0.36442571461785006059E+00
    0.38828939297540160380E+00
    0.41406007253328830364E+00
    0.43845689129680742724E+00
    0.43843712520967248469E+00
    0.41378039170126074131E+00
    0.39524033325930435501E+00
    0.36449633358680122441E+00
    0.37800990321692479190E+00
    0.35298019908526939714E+00
    0.39999946762113552934E+00
    0.40310878717602427468E+00
    0.25810897889402856231E+00
    0.28247085869465310415E+00
    0.31229220456047590559E+00
    0.33560215047014813061E+00
    0.32739036544996241718E+00
    0.34704141151163003798E+00
    0.34704151688742423953E+00
    0.32739036225897044652E+00
    0.33560230219147801911E+00
    0.31229905539244462442E+00
    0.28247081150279473860E+00
    0.25809178806730365130E+00
    0.29329275291336454057E+00
    0.30696424675344302635E+00
    0.38792310678443753247E+00
    0.39999692427564204067E+00
    0.40935696364588952667E+00
    0.42058148910802478637E+00
    0.39999777366909711196E+00
    0.39916268054258086107E+00
    0.35733952555025860764E+00
    0.37329996237298596062E+00
    0.35594831929224951539E+00
    0.35594806310076421152E+00
    0.37326373595244821679E+00
    0.35721945470516819343E+00
    0.39973921746021806589E+00
    0.39972617891956574443E+00
    0.34281301079311959912E+00
    0.32676313938547041360E+00
    0.34405705139670911263E+00
    0.34405705046700185701E+00
    0.32676314146726737064E+00
    0.34281287962250284185E+00
    0.31195481451365353331E+00
    0.28428050520628284081E+00
    0.25892384404054896718E+00
    0.25893853707201314185E+00
    0.28428054105276628905E+00
    0.31194681116437483759E+00
    0.30060284085584881852E+00
    0.30060284073165055574E+00
    0.35296603975971219125E+00
    0.37262151371263763089E+00
    0.36441968342299985162E+00
    0.38759009458992832453E+00
    0.39999050742381175860E+00
    0.40570108102505186842E+00
    0.40813750998557879468E+00
    0.39999521665355436406E+00
    0.38758637502294512878E+00
    0.36441963487595474547E+00
    0.37262151342910471152E+00
    0.35296603975065665715E+00
    0.39283460504414724479E+00
    0.39983364541466320796E+00
    0.41805385882519996432E+00
    0.39998878136940818617E+00
    0.40001757441437540974E+00
    0.39997147030915114474E+00
    0.40001408224907841760E+00
    0.39998869682514792689E+00
    0.35348083133652241639E+00
    0.39221238207295811007E+00
    0.36452073464970069505E+00
    0.38780907136848241645E+00
    0.40000450948904492376E+00
    0.42088031345398241312E+00
    0.39999203427394597332E+00
    0.40000952010425389060E+00
    0.31604898077307552740E+00
    0.28428725801482152002E+00
    0.25892313592407600886E+00
    0.25891036743426859568E+00
    0.28422017226698326198E+00
    0.31221607087849512219E+00
    0.40011294628049920430E+00
    0.32690790482875070611E+00
    0.34433579575514833282E+00
    0.39958868936251967785E+00
    0.37654274102403867408E+00
    0.40002448850259580970E+00
    0.30072587477532680689E+00
    0.30058913065411912990E+00
    0.35721939753530851380E+00
    0.37326436756310549248E+00
    0.35594835859298157299E+00
    0.35599096324634965649E+00
    0.37858528290890536283E+00
    0.36152046182188268819E+00
    0.40000415041615755563E+00
    0.39999488334920829669E+00
    0.41945419543639794746E+00
    0.41648751404991124492E+00
    0.39999846172075098627E+00
    0.38791723270784050914E+00
    0.39982065250853360272E+00
    0.39976959091925134970E+00
    0.34704304321901568997E+00
    0.32739169979223664564E+00
    0.33597023717425450462E+00
    0.31229371287884744035E+00
    0.28247086047707531398E+00
    0.25810905908994846714E+00
    0.25810901350640097496E+00
    0.28247089464227598254E+00
    0.31230835272190765606E+00
    0.33564124674284540051E+00
    0.32739051266204932666E+00
    0.34704190761014663824E+00
    0.30696425071545413443E+00
    0.29329275315022435011E+00
    0.44048898701335664763E+00
    0.41603983067930649931E+00
    0.38882350684030581034E+00
    0.36442945970323081806E+00
    0.37267333992065876380E+00
    0.35296621031612457342E+00
    0.35296621045546389128E+00
    0.37267339206362604109E+00
    0.36443971428733185070E+00
    0.39001244809260843249E+00
    0.41594416532959516131E+00
    0.44039680335846964621E+00
    0.40518691390051059242E+00
    0.39937379711630133228E+00
    0.31195481478265335573E+00
    0.28428050733884113743E+00
    0.25892375188065824831E+00
    0.25892375186017785316E+00
    0.28428050732799453604E+00
    0.31195481454838419610E+00
    0.34281288009377397508E+00
    0.32676313820286273515E+00
    0.34405705048290707859E+00
    0.34405705136668823796E+00
    0.32676313843605025999E+00
    0.34281296161852903293E+00
    0.30060284072114773490E+00
    0.30060284071704296283E+00
    0.35774859031368044793E+00
    0.37326782963549626215E+00
    0.35613653326113658970E+00
    0.35594942671286450286E+00
    0.37325843227547578218E+00
    0.35723749171191954144E+00
    0.39082257630420219607E+00
    0.41300902711196973982E+00
    0.43979171557064411502E+00
    0.43988518966692191636E+00
    0.41388312572187885285E+00
    0.38806026186113190546E+00
    0.39999992049432930852E+00
    0.39963584163963866702E+00
    0.34682116109986721453E+00
    0.32738615381058699949E+00
    0.33514976085233932901E+00
    0.31228892121967477546E+00
    0.28247084531337030011E+00
    0.25810905916334397903E+00
    0.25810905914880505341E+00
    0.28247085543294320198E+00
    0.31229220504779287015E+00
    0.33560228328237334816E+00
    0.32739035697238627609E+00
    0.34704021033446208477E+00
    0.30696422888240548765E+00
    0.29329275291035111772E+00
    0.25810905917895082817E+00
    0.28247085656369269602E+00
    0.31229220455111156296E+00
    0.33560215230627254979E+00
    0.32739036227789908295E+00
    0.34704141739816146695E+00
    0.34704141346629452380E+00
    0.32739036227527379408E+00
    0.33560214994858028614E+00
    0.31229220451993700003E+00
    0.28247085655110615310E+00
    0.25810905917193988079E+00
    0.29329275307090846292E+00
    0.30696424672246813703E+00
    0.38797868709938682086E+00
    0.40000143222588946390E+00
    0.43332120293648085374E+00
    0.43160313559775181913E+00
    0.40429920811102187939E+00
    0.40000271830783634686E+00
    0.39660599901062387751E+00
    0.39999271525714924502E+00
    0.35619516712809956571E+00
    0.35594904189446097131E+00
    0.37326525975724600404E+00
    0.35721973856704031247E+00