# vtk DataFile Version 3.0
LAPLACIEN  2D
ASCII
DATASET UNSTRUCTURED_GRID
 POINTS         481  float
   6.2500000000000000E-002  0.87500000000000000        0.0000000000000000     
  0.12500000000000000       0.87500000000000000        0.0000000000000000     
  0.12500000000000000       0.93750000000000000        0.0000000000000000     
   3.7499999999999999E-002  0.91249999999999998        0.0000000000000000     
   8.1250000000000003E-002  0.91874999999999996        0.0000000000000000     
   8.7499999999999994E-002  0.96250000000000002        0.0000000000000000     
   4.3749999999999997E-002  0.95625000000000004        0.0000000000000000     
  0.18750000000000000       0.87500000000000000        0.0000000000000000     
  0.25000000000000000       0.87500000000000000        0.0000000000000000     
  0.25000000000000000       0.93750000000000000        0.0000000000000000     
  0.16250000000000001       0.91249999999999998        0.0000000000000000     
  0.20624999999999999       0.91874999999999996        0.0000000000000000     
  0.21249999999999999       0.96250000000000002        0.0000000000000000     
  0.16875000000000001       0.95625000000000004        0.0000000000000000     
   6.2500000000000000E-002  0.75000000000000000        0.0000000000000000     
  0.12500000000000000       0.75000000000000000        0.0000000000000000     
  0.12500000000000000       0.81250000000000000        0.0000000000000000     
   3.7499999999999999E-002  0.78749999999999998        0.0000000000000000     
   8.1250000000000003E-002  0.79374999999999996        0.0000000000000000     
   8.7499999999999994E-002  0.83750000000000002        0.0000000000000000     
   4.3749999999999997E-002  0.83125000000000004        0.0000000000000000     
  0.18750000000000000       0.75000000000000000        0.0000000000000000     
  0.25000000000000000       0.75000000000000000        0.0000000000000000     
  0.25000000000000000       0.81250000000000000        0.0000000000000000     
  0.16250000000000001       0.78749999999999998        0.0000000000000000     
  0.20624999999999999       0.79374999999999996        0.0000000000000000     
  0.21249999999999999       0.83750000000000002        0.0000000000000000     
  0.16875000000000001       0.83125000000000004        0.0000000000000000     
  0.31250000000000000       0.87500000000000000        0.0000000000000000     
  0.37500000000000000       0.87500000000000000        0.0000000000000000     
  0.37500000000000000       0.93750000000000000        0.0000000000000000     
  0.28749999999999998       0.91249999999999998        0.0000000000000000     
  0.33124999999999999       0.91874999999999996        0.0000000000000000     
  0.33750000000000002       0.96250000000000002        0.0000000000000000     
  0.29375000000000001       0.95625000000000004        0.0000000000000000     
  0.43750000000000000       0.87500000000000000        0.0000000000000000     
  0.50000000000000000       0.87500000000000000        0.0000000000000000     
  0.50000000000000000       0.93750000000000000        0.0000000000000000     
  0.41249999999999998       0.91249999999999998        0.0000000000000000     
  0.45624999999999999       0.91874999999999996        0.0000000000000000     
  0.46250000000000002       0.96250000000000002        0.0000000000000000     
  0.41875000000000001       0.95625000000000004        0.0000000000000000     
  0.31250000000000000       0.75000000000000000        0.0000000000000000     
  0.37500000000000000       0.75000000000000000        0.0000000000000000     
  0.37500000000000000       0.81250000000000000        0.0000000000000000     
  0.28749999999999998       0.78749999999999998        0.0000000000000000     
  0.33124999999999999       0.79374999999999996        0.0000000000000000     
  0.33750000000000002       0.83750000000000002        0.0000000000000000     
  0.29375000000000001       0.83125000000000004        0.0000000000000000     
  0.43750000000000000       0.75000000000000000        0.0000000000000000     
  0.50000000000000000       0.75000000000000000        0.0000000000000000     
  0.50000000000000000       0.81250000000000000        0.0000000000000000     
  0.41249999999999998       0.78749999999999998        0.0000000000000000     
  0.45624999999999999       0.79374999999999996        0.0000000000000000     
  0.46250000000000002       0.83750000000000002        0.0000000000000000     
  0.41875000000000001       0.83125000000000004        0.0000000000000000     
   6.2500000000000000E-002  0.62500000000000000        0.0000000000000000     
  0.12500000000000000       0.62500000000000000        0.0000000000000000     
  0.12500000000000000       0.68750000000000000        0.0000000000000000     
   3.7499999999999999E-002  0.66249999999999998        0.0000000000000000     
   8.1250000000000003E-002  0.66874999999999996        0.0000000000000000     
   8.7499999999999994E-002  0.71250000000000002        0.0000000000000000     
   4.3749999999999997E-002  0.70625000000000004        0.0000000000000000     
  0.18750000000000000       0.62500000000000000        0.0000000000000000     
  0.25000000000000000       0.62500000000000000        0.0000000000000000     
  0.25000000000000000       0.68750000000000000        0.0000000000000000     
  0.16250000000000001       0.66249999999999998        0.0000000000000000     
  0.20624999999999999       0.66874999999999996        0.0000000000000000     
  0.21249999999999999       0.71250000000000002        0.0000000000000000     
  0.16875000000000001       0.70625000000000004        0.0000000000000000     
   6.2500000000000000E-002  0.50000000000000000        0.0000000000000000     
  0.12500000000000000       0.50000000000000000        0.0000000000000000     
  0.12500000000000000       0.56250000000000000        0.0000000000000000     
   3.7499999999999999E-002  0.53749999999999998        0.0000000000000000     
   8.1250000000000003E-002  0.54374999999999996        0.0000000000000000     
   8.7499999999999994E-002  0.58750000000000002        0.0000000000000000     
   4.3749999999999997E-002  0.58125000000000004        0.0000000000000000     
  0.18750000000000000       0.50000000000000000        0.0000000000000000     
  0.25000000000000000       0.50000000000000000        0.0000000000000000     
  0.25000000000000000       0.56250000000000000        0.0000000000000000     
  0.16250000000000001       0.53749999999999998        0.0000000000000000     
  0.20624999999999999       0.54374999999999996        0.0000000000000000     
  0.21249999999999999       0.58750000000000002        0.0000000000000000     
  0.16875000000000001       0.58125000000000004        0.0000000000000000     
  0.31250000000000000       0.62500000000000000        0.0000000000000000     
  0.37500000000000000       0.62500000000000000        0.0000000000000000     
  0.37500000000000000       0.68750000000000000        0.0000000000000000     
  0.28749999999999998       0.66249999999999998        0.0000000000000000     
  0.33124999999999999       0.66874999999999996        0.0000000000000000     
  0.33750000000000002       0.71250000000000002        0.0000000000000000     
  0.29375000000000001       0.70625000000000004        0.0000000000000000     
  0.43750000000000000       0.62500000000000000        0.0000000000000000     
  0.50000000000000000       0.62500000000000000        0.0000000000000000     
  0.50000000000000000       0.68750000000000000        0.0000000000000000     
  0.41249999999999998       0.66249999999999998        0.0000000000000000     
  0.45624999999999999       0.66874999999999996        0.0000000000000000     
  0.46250000000000002       0.71250000000000002        0.0000000000000000     
  0.41875000000000001       0.70625000000000004        0.0000000000000000     
  0.31250000000000000       0.50000000000000000        0.0000000000000000     
  0.37500000000000000       0.50000000000000000        0.0000000000000000     
  0.37500000000000000       0.56250000000000000        0.0000000000000000     
  0.28749999999999998       0.53749999999999998        0.0000000000000000     
  0.33124999999999999       0.54374999999999996        0.0000000000000000     
  0.33750000000000002       0.58750000000000002        0.0000000000000000     
  0.29375000000000001       0.58125000000000004        0.0000000000000000     
  0.43750000000000000       0.50000000000000000        0.0000000000000000     
  0.50000000000000000       0.50000000000000000        0.0000000000000000     
  0.50000000000000000       0.56250000000000000        0.0000000000000000     
  0.41249999999999998       0.53749999999999998        0.0000000000000000     
  0.45624999999999999       0.54374999999999996        0.0000000000000000     
  0.46250000000000002       0.58750000000000002        0.0000000000000000     
  0.41875000000000001       0.58125000000000004        0.0000000000000000     
  0.56250000000000000       0.87500000000000000        0.0000000000000000     
  0.62500000000000000       0.87500000000000000        0.0000000000000000     
  0.62500000000000000       0.93750000000000000        0.0000000000000000     
  0.53749999999999998       0.91249999999999998        0.0000000000000000     
  0.58125000000000004       0.91874999999999996        0.0000000000000000     
  0.58750000000000002       0.96250000000000002        0.0000000000000000     
  0.54374999999999996       0.95625000000000004        0.0000000000000000     
  0.68750000000000000       0.87500000000000000        0.0000000000000000     
  0.75000000000000000       0.87500000000000000        0.0000000000000000     
  0.75000000000000000       0.93750000000000000        0.0000000000000000     
  0.66249999999999998       0.91249999999999998        0.0000000000000000     
  0.70625000000000004       0.91874999999999996        0.0000000000000000     
  0.71250000000000002       0.96250000000000002        0.0000000000000000     
[...]
 CELL_DATA         896
 SCALARS Endothelial_cells float
 LOOKUP_TABLE default
    0.25821022183438446795E+00
    0.28258677634681445001E+00
    0.31233531005350745335E+00
    0.33562795775729581393E+00
    0.32742379407583521722E+00
    0.34705919387424788436E+00
    0.34673845107957301792E+00
    0.32741469921737598181E+00
    0.33496354640720760187E+00
    0.31233815119429686469E+00
    0.28258663548430767998E+00
    0.25818523870316539837E+00
    0.29336184017446637062E+00
    0.30701844832846947320E+00
    0.38793155745030971637E+00
    0.40612497780952649951E+00
    0.43729722871493892367E+00
    0.43740035515687891721E+00
    0.40725458862011360006E+00
    0.38795225253032344925E+00
    0.35798306597748918989E+00
    0.37324215910897640125E+00
    0.35620668951403200442E+00
    0.35593320584384002814E+00
    0.37323252865662770450E+00
    0.35720631601609575956E+00
    0.39921688639392699516E+00
    0.39923082237636187131E+00
    0.34284159361371413510E+00
    0.32679712795746890253E+00
    0.34407735923302773529E+00
    0.34407735834207064940E+00
    0.32679713086361222851E+00
    0.34284168017175170595E+00
    0.31200517653433140763E+00
    0.28438841062257813608E+00
    0.25900768389557643490E+00
    0.25902900726007349608E+00
    0.28438848580161740776E+00
    0.31199352633520605060E+00
    0.30066576865717892231E+00
    0.30066576825085866709E+00
    0.35294930658167872339E+00
    0.37261769360234364701E+00
    0.36574304132845081305E+00
    0.39999979368579996475E+00
    0.41176184803511084453E+00
    0.43617336558084840448E+00
    0.43759333195387600801E+00
    0.40172362665258476433E+00
    0.38755788761989667934E+00
    0.36440451956306257886E+00
    0.37260988105430742356E+00
    0.35294928457350793760E+00
    0.39444956957192994773E+00
    0.40216821757758097755E+00
    0.43661319113512297996E+00
    0.41267138864312596924E+00
    0.39981573720919988402E+00
    0.36456398422777147594E+00
    0.37259616912885945572E+00
    0.35295181730985403235E+00
    0.35327102748538702359E+00
    0.37260441780490122232E+00
    0.36507645368914232176E+00
    0.38760343108744005347E+00
    0.40653125781072324552E+00
    0.43784020615353697048E+00
    0.40233632102475719305E+00
    0.39292354673373758311E+00
    0.31200518558872403219E+00
    0.28438841201317394125E+00
    0.25900748623234315371E+00
    0.25900748610131174576E+00
    0.28438837593132892945E+00
    0.31199878560586696841E+00
    0.34205596073981592298E+00
    0.32678762554720608424E+00
    0.34380210311539244339E+00
    0.34407442303521984517E+00
    0.32679711844527420395E+00
    0.34284378777730062371E+00
    0.30066576753503065911E+00
    0.30066570883679438753E+00
    0.36546536478557911654E+00
    0.39999862447958650646E+00
    0.36390605839059114723E+00
    0.35615943550851841826E+00
    0.39840527307496487186E+00
    0.35741002091723728107E+00
    0.38820674200902177686E+00
    0.40697506653887827177E+00
    0.43507555816522941461E+00
    0.43480103432627487114E+00
    0.40834340534942253909E+00
    0.40000112640361829008E+00
    0.40000137976318983490E+00
    0.39999934737647424576E+00
    0.34706178535403792162E+00
    0.32742380650732250125E+00
    0.33562794268982670820E+00
    0.31233530991558988710E+00
    0.28258677482173605311E+00
    0.25821039386560001860E+00
    0.25821039384581079279E+00
    0.28258677489314487641E+00
    0.31233532268823244182E+00
    0.33563022543089865435E+00
    0.32742382944341485995E+00
    0.34706445889819953488E+00
    0.30701850531902696861E+00
    0.29336184151025712641E+00
    0.43729717418508845528E+00
    0.41298635983194154075E+00
    0.39959225520437102741E+00
    0.36455923845847931775E+00
    0.37263211438223958760E+00
    0.35294939618544440840E+00
    0.35294939235288780299E+00
    0.37263104528904494872E+00
    0.36440489728184277674E+00
    0.38759587297907083236E+00
    0.40796965451887640119E+00
    0.43775691597890431517E+00
    0.40288323614229892833E+00
    0.39611150033267972237E+00
    0.31200518523140868821E+00
    0.28438841201468773034E+00
    0.25900748623269242987E+00
    0.25900748620296470959E+00
    0.28438841210104026658E+00
    0.31200522575216121934E+00
    0.34285646035069888837E+00
    0.32679718054686596185E+00
    0.34407735857888438469E+00
    0.34407735924089172252E+00
    0.32679713696207229878E+00
    0.34284371304453059581E+00
    0.30066576826534835432E+00
    0.30066576838179165376E+00
    0.35723758856167114883E+00
    0.37699316608921912275E+00
    0.35595740308271689445E+00
    0.35601950366293072525E+00
    0.38575266998177748512E+00
    0.35738948830432426540E+00
    0.39716545577740575146E+00
    0.41072256411268753817E+00
    0.43632672752412149375E+00
    0.43633071434609299599E+00
    0.41105359295612381443E+00
    0.38836241752941730310E+00
    0.39999982930059985176E+00
    0.40000002700009351653E+00
    0.34706178649380092782E+00
    0.32742382269758540936E+00
    0.33563062400528398399E+00
    0.31233532822324000522E+00
    0.28258677490218908623E+00
    0.25821039386582617103E+00
    0.25821039384576882636E+00
    0.28258677488600170147E+00
    0.31233532096325095084E+00
    0.33562995118136851325E+00
    0.32742382112821150075E+00
    0.34706289561628195228E+00
    0.30701850535934760433E+00
    0.29336184151086885930E+00
    0.25821039387653826891E+00
    0.28258677485570338206E+00
    0.31233531222032379082E+00
    0.33562826294918751691E+00
    0.32742380882752586402E+00
    0.34706194671143525410E+00
    0.34713047677267627744E+00
    0.32742411879436489341E+00
    0.33567800061648583876E+00
    0.31233545168350990151E+00
    0.28258677511260094084E+00
    0.25821039386622074430E+00
    0.29336184151775984708E+00
    0.30701850590906798466E+00
    0.38899399797995570793E+00
    0.39977596517602065340E+00
    0.40000761520749683608E+00
    0.39996163063539175164E+00
    0.39979345412540351345E+00
    0.38779104685026649646E+00
    0.35720495216282771578E+00
    0.37323006022799515291E+00
    0.35593019912908852032E+00
    0.35593020033976097150E+00
    0.37323022992109666784E+00
    0.35722542158334019691E+00
    0.39901431802305026286E+00
    0.39901513112629016788E+00
    0.34284430183165609529E+00
    0.32679719920401306688E+00
    0.34408836218225152814E+00
    0.34407670855729766135E+00
    0.32679709596007100458E+00
    0.34284160151748649392E+00
    0.31200517630303459260E+00
    0.28438841198365205631E+00
    0.25900748625912128897E+00
    0.25900748620314539838E+00
    0.28438841201549008852E+00
    0.31200518799654780588E+00
    0.30066576851221771260E+00
    0.30066576810315531754E+00
    0.35309592387956445503E+00
    0.37314249809610888775E+00
    0.41333891840601399981E+00
    0.47754731893406543453E+00
    0.39997986971594806649E+00
    0.39995228635598040201E+00
    0.39991613202811565619E+00
    0.39981186622578546164E+00
    0.38748839469921603218E+00
    0.36440295148478130116E+00
    0.37259477017165731905E+00
    0.35294837538291534695E+00
    0.39330210453169356377E+00
    0.39958286944034954180E+00
    0.25821039387624172834E+00
    0.28258677488094141594E+00
    0.31233532016182324886E+00
    0.33562975313164106206E+00
    0.32742380043778535059E+00
    0.34705932920881399362E+00
    0.34673845159448851705E+00
    0.32741469939172157533E+00
    0.33496344256319759980E+00
    0.31232819408145828799E+00
    0.28258673123407374028E+00
    0.25821039373414350626E+00
    0.29336184070275844737E+00
    0.30701844832407043651E+00
    0.39999928220356500974E+00
    0.40323659527220606646E+00
    0.43607221945294311061E+00
    0.43700817508814532308E+00
    0.40515243750354995589E+00
    0.38793292089767389408E+00
    0.35798303119657182148E+00
    0.37325462832075911868E+00
    0.35620684384930739741E+00
    0.35594511696335817685E+00
    0.37510550765400169082E+00
    0.35736089354279892971E+00
    0.40000063451246997692E+00
    0.39999954642588481102E+00
    0.34284165829087698274E+00
    0.32679712758092632763E+00
    0.34407736371240377204E+00
    0.34407851461977739804E+00
    0.32679714025157102775E+00
    0.34284344147662454416E+00
    0.31200518339303207060E+00
    0.28438841200654285668E+00
    0.25900748625912439760E+00
    0.25900748620300256819E+00
    0.28438841197428199603E+00
    0.31200517648651676650E+00
    0.30066576822802376645E+00
    0.30066576826810248457E+00
    0.35625007005170794550E+00
    0.39999850943520443014E+00
    0.37661825576951468708E+00
    0.40000208329849284983E+00
    0.41020861478307130144E+00
    0.43580933061213922297E+00
    0.43614549894072346392E+00
    0.41075999588425105014E+00
    0.39360952798520570939E+00
    0.36455652410375632977E+00
    0.38754352929821006546E+00
    0.35306685350679795077E+00
    0.40000303681256993427E+00
    0.39999861105091627511E+00
    0.43797990014482074406E+00
    0.41063233376502977778E+00
    0.38763206548975109866E+00
    0.36440508316000419509E+00
    0.37259396846790071578E+00
    0.35295180949935223147E+00
    0.35327102366914697740E+00
    0.37260333080063812172E+00
    0.36507688005042027157E+00
    0.38765337390166682008E+00
    0.41223495381775238089E+00
    0.43812979674559815457E+00
    0.39999976912593704359E+00
    0.39276370494133622246E+00
    0.31200517661654558754E+00
    0.28438841304702427992E+00
    0.25900768389581674267E+00
    0.25902900717118215734E+00
    0.28438845087757613772E+00
    0.31198714382504172393E+00
    0.34205586975785651216E+00
    0.32678762501440605792E+00
    0.34380210311346487417E+00
    0.34407442296067142218E+00
    0.32679710877963957794E+00
    0.34284168571261114389E+00
    0.30066576750692836084E+00
    0.30066570926893132487E+00
    0.35883759869139858489E+00
    0.37826728884519800200E+00
    0.35596483718263294271E+00
    0.35593053742609170875E+00
    0.37324520544071698724E+00
    0.35720614200145928141E+00
    0.38789000849624827305E+00
    0.40085676519069946000E+00
    0.43671515839769498024E+00
    0.43560628856650079888E+00
    0.40146014699471904708E+00
    0.39999950792660349252E+00
    0.40000016533700688548E+00
    0.39999968333477514681E+00
    0.34706177650626768294E+00
    0.32742380721464453552E+00
    0.33562806310353665573E+00
    0.31234527443862469820E+00
    0.28258668021974536755E+00
    0.25818523884830096859E+00
    0.25821022177608748960E+00
    0.28258677398776055334E+00
    0.31233531005124692825E+00
    0.33562795647126031362E+00
    0.32742380653437513915E+00
    0.34706177774127983104E+00
    0.30701850522935913990E+00
    0.29336184095917422487E+00
    0.39999644731268907405E+00
    0.39971693743029867996E+00
    0.38745117019516711609E+00
    0.36440291678168423850E+00
    0.37259240756816747187E+00
    0.35294921011905033836E+00
    0.35294921002209861394E+00
    0.37259240743806765206E+00
    0.36440290275252673613E+00
    0.38745074901842663229E+00
    0.39974507681427157157E+00
    0.39999758412894803605E+00
    0.39968163304195497565E+00
    0.39267063132568086337E+00
    0.31200517650231579525E+00
    0.28438841198437703195E+00
    0.25900748623265279491E+00
    0.25900748620358871044E+00
    0.28438841267355707831E+00
    0.31200550403361221319E+00
    0.34296070298085329364E+00
    0.32679750792456491171E+00
    0.34409002402599991877E+00
    0.34407738574339796767E+00
    0.32679712760561263618E+00
    0.34284165856340609313E+00
    0.30066576823232693538E+00
    0.30066576912720521797E+00
    0.39999774812546445846E+00
    0.38044920596682468839E+00
    0.35611444299915007150E+00
    0.35593132725228632252E+00
    0.37323368949090013347E+00
    0.35720488423288565549E+00
    0.38779013545952506492E+00
    0.39982692871078884256E+00
    0.39992768119638560931E+00
    0.39999763423100714865E+00
    0.39999621905417598322E+00
    0.47612521383709993650E+00
    0.39968979701591594855E+00
    0.39935895330960369254E+00
    0.34746568157639151631E+00
    0.32742575926794831309E+00
    0.33563304447353764504E+00
    0.31233534282537089855E+00
    0.28258677495921713518E+00
    0.25821039386595884269E+00
    0.25821039384568866826E+00
    0.28258677484528621493E+00
    0.31233530997200603663E+00
    0.33562794168085052782E+00
    0.32742377328379229651E+00
    0.34706260914677800056E+00
    0.30701851234232296894E+00
    0.29336184155891947833E+00
    0.25821039387659466824E+00
    0.28258677488006872514E+00
    0.31233532060049062906E+00
    0.33563115451099162501E+00
    0.32742381670211606615E+00
    0.34706198840142093998E+00
    0.34706219813569361143E+00
    0.32742388043659143015E+00
    0.33564501472683999639E+00
    0.31233539251797381997E+00
    0.28258677508316143445E+00
    0.25821039386628319434E+00
    0.29336184151654087771E+00
    0.30701850549697734527E+00
    0.39999997417064053762E+00
    0.40752954925782181039E+00
    0.43660340986374790440E+00
    0.43694324650748217476E+00
    0.40700381804621571513E+00
    0.38795422200204976448E+00
    0.35720656904534414666E+00
    0.37324505526548340528E+00
    0.35593040932479913518E+00
    0.35594915330699122835E+00
    0.37625321639615977309E+00
    0.35803874151684400573E+00
    0.40000038042351310219E+00
    0.39999970450362087870E+00
    0.34284589938731030445E+00
    0.32679715068003067913E+00
    0.34407735926410681904E+00
    0.34407770443954083239E+00
    0.32679713756016376403E+00
    0.34284372042872662822E+00
    0.31200518466565874132E+00
    0.28438841201143677528E+00
    0.25900748625912956014E+00
    0.25900748620321417670E+00
    0.28438841205870102335E+00
    0.31200519799270931554E+00
    0.30066576832897767835E+00
    0.30066576825950319662E+00
    0.35295407798630740182E+00
    0.37347414368171993893E+00
    0.36441875509009080680E+00
    0.38850141618333239313E+00
    0.41284699489378973158E+00
    0.43720677381912359527E+00
    0.43717453125816524429E+00
    0.41250619439507557606E+00
    0.39796976147248086519E+00
    0.36457520570973517282E+00
    0.38143924265941220320E+00
    0.35299555481204281104E+00
    0.39999930235224240294E+00
    0.40198713269908564749E+00
    0.25821022183485758950E+00
    0.28258677634965562175E+00
    0.31233530999773922998E+00
    0.33562794702784848333E+00
    0.32742380961694833585E+00
    0.34706177681829136761E+00
    0.34706211284812782392E+00
    0.32742380939344989388E+00
    0.33562838813478357292E+00
    0.31234527615094537234E+00
    0.28258667911825102737E+00
    0.25818523883511340644E+00
    0.29336184098645184948E+00
    0.30701850527889312792E+00
    0.38780738251826196716E+00
    0.39994483102328343138E+00
    0.40000061351253002329E+00
    0.40965960232586401402E+00
    0.39999949898528935899E+00
    0.39887130366301709605E+00
    0.35738456807082236155E+00
    0.37327769952218115002E+00
    0.35593067431533192968E+00
    0.35593027437328966789E+00
    0.37324138245876553599E+00
    0.35720527285748754354E+00
    0.39956686465235247141E+00
    0.39955477750510509649E+00
    0.34284210705280732112E+00
    0.32679713029936441337E+00
    0.34407736410901157420E+00
    0.34407735783284248976E+00
    0.32679713080371713962E+00
    0.34284166628355683404E+00
    0.31200517648054210129E+00
    0.28438841062239295088E+00
    0.25900768389556216853E+00
    0.25902900726009459031E+00
    0.28438848580901165963E+00
    0.31199352849126488207E+00
    0.30066576866617533703E+00
    0.30066576825072621748E+00
    0.35294921149326624610E+00
    0.37259263076278320570E+00
    0.36440344832066196012E+00
    0.38747782996715307569E+00
    0.39991398109542208861E+00
    0.39999823813567231268E+00
    0.39999832271412461004E+00
    0.39992596907621202895E+00
    0.38747429693136498097E+00
    0.36440337417803697617E+00
    0.37259263009027199232E+00
    0.35294921147827823527E+00
    0.39268190871388192198E+00
    0.39972366383116952893E+00
    0.41124255648606605762E+00
    0.39999184547260174805E+00
    0.40001271133485011289E+00
    0.39998590159889230167E+00
    0.40001569777397139038E+00
    0.39998312735870217294E+00
    0.35380805202750259530E+00
    0.39656157882869463860E+00
    0.36459721730363808812E+00
    0.38781088266632435246E+00
    0.39999617092949307784E+00
    0.41467814782991219147E+00
    0.40001495765301742225E+00
    0.39997956980898419221E+00
    0.32101623145646107638E+00
    0.28446787485989394328E+00
    0.25900552928142728248E+00
    0.25898895965405382968E+00
    0.28438205487636319946E+00
    0.33447078151733594664E+00
    0.41647995950706212520E+00
    0.32737722579818506752E+00
    0.36933460029348985643E+00
    0.40003689129197711472E+00
    0.39996102926973170488E+00
    0.40002847185926754259E+00
    0.32346445377394167364E+00
    0.30073681552296843700E+00
    0.35720518939432843730E+00
    0.37324260275381387908E+00
    0.35593094563410687670E+00
    0.35599440471148019460E+00
    0.37849439208048424321E+00
    0.36392789110910739314E+00
    0.40000297788344540972E+00
    0.39999847612297639854E+00
    0.41222868500478260234E+00
    0.40000027287815603794E+00
    0.39997736312078346899E+00
    0.38780176655281733966E+00
    0.39965356830071097072E+00
    0.39963211330542636190E+00
    0.34706945529813987283E+00
    0.32746095412253811707E+00
    0.34843550667001144117E+00
    0.31237731383611105906E+00
    0.28258685991290222184E+00
    0.25821039315502397615E+00
    0.25821018655941990749E+00
    0.28258716904884861876E+00
    0.31241499441678627358E+00
    0.33572281686217286811E+00
    0.32742435670856123719E+00
    0.34706291911457520794E+00
    0.30701858429292111508E+00
    0.29336184319041702651E+00
    0.43991859791789994505E+00
    0.41545988244668408118E+00
    0.38917410601513385826E+00
    0.36442495671460889417E+00
    0.37323135486429587226E+00
    0.35295057457186140848E+00
    0.35295063125986708696E+00
    0.37326667135419511201E+00
    0.36444499362614007909E+00
    0.39066998422565790694E+00
    0.41534167979862607334E+00
    0.43979840358170374515E+00
    0.40472905812827553174E+00
    0.39999969737587065532E+00
    0.31200517761672003081E+00
    0.28438841198816988687E+00
    0.25900748623249042479E+00
    0.25900748620272695533E+00
    0.28438841196930680910E+00
    0.31200517653199144608E+00
    0.34284166746031341511E+00
    0.32679712760927298598E+00
    0.34407735785612703072E+00
    0.34407736392964471950E+00
    0.32679712875863026200E+00
    0.34284192867202978316E+00
    0.30066576823258639450E+00
    0.30066576822322477192E+00
    0.35798354817176541998E+00
    0.37325301839475055754E+00
    0.35620674408417035695E+00
    0.35593321831532581667E+00
    0.37323677648939251883E+00
    0.35724146209434542998E+00
    0.39159842830857366502E+00
    0.41216943706319975060E+00
    0.43927342367216343222E+00
    0.43940028084830412558E+00
    0.41326004577617581059E+00
    0.38801401508576377486E+00
    0.39999999633589794490E+00
    0.39977867730899685483E+00
    0.34673845113021123376E+00
    0.32741470252584375933E+00
    0.33496344260243648971E+00
    0.31232819407884782059E+00
    0.28258673359083419374E+00
    0.25821039376193183346E+00
    0.25821039383208155282E+00
    0.28258677373796209364E+00
    0.31233531222061966526E+00
    0.33562834803054675259E+00
    0.32742379203781690755E+00
    0.34705919386853728570E+00
    0.30701844834374159010E+00
    0.29336184072028798075E+00
    0.25821039387631072870E+00
    0.28258677484560329463E+00
    0.31233531002320646941E+00
    0.33562795366662606655E+00
    0.32742380662033482297E+00
    0.34706181102216937528E+00
    0.34706178329177228559E+00
    0.32742380652290475895E+00
    0.33562794580890659146E+00
    0.31233530993579122770E+00
    0.28258677482692490246E+00
    0.25821039386584482278E+00
    0.29336184151412864063E+00
    0.30701850522719070780E+00
    0.38790865559268944418E+00
    0.39999913744296872187E+00
    0.43064938942001118605E+00
    0.42836090651367403348E+00
    0.40070362079378557540E+00
    0.39999897161291819714E+00
    0.39999768722111495034E+00
    0.40000264238133198536E+00
    0.35667498310664058625E+00
    0.35593485474253616641E+00
    0.37324528347781543713E+00
    0.35720598880149301291E+00