# vtk DataFile Version 3.0
LAPLACIEN  2D
ASCII
DATASET UNSTRUCTURED_GRID
 POINTS         481  float
   6.2500000000000000E-002  0.87500000000000000        0.0000000000000000     
  0.12500000000000000       0.87500000000000000        0.0000000000000000     
  0.12500000000000000       0.93750000000000000        0.0000000000000000     
   3.7499999999999999E-002  0.91249999999999998        0.0000000000000000     
   8.1250000000000003E-002  0.91874999999999996        0.0000000000000000     
   8.7499999999999994E-002  0.96250000000000002        0.0000000000000000     
   4.3749999999999997E-002  0.95625000000000004        0.0000000000000000     
  0.18750000000000000       0.87500000000000000        0.0000000000000000     
  0.25000000000000000       0.87500000000000000        0.0000000000000000     
  0.25000000000000000       0.93750000000000000        0.0000000000000000     
  0.16250000000000001       0.91249999999999998        0.0000000000000000     
  0.20624999999999999       0.91874999999999996        0.0000000000000000     
  0.21249999999999999       0.96250000000000002        0.0000000000000000     
  0.16875000000000001       0.95625000000000004        0.0000000000000000     
   6.2500000000000000E-002  0.75000000000000000        0.0000000000000000     
  0.12500000000000000       0.75000000000000000        0.0000000000000000     
  0.12500000000000000       0.81250000000000000        0.0000000000000000     
   3.7499999999999999E-002  0.78749999999999998        0.0000000000000000     
   8.1250000000000003E-002  0.79374999999999996        0.0000000000000000     
   8.7499999999999994E-002  0.83750000000000002        0.0000000000000000     
   4.3749999999999997E-002  0.83125000000000004        0.0000000000000000     
  0.18750000000000000       0.75000000000000000        0.0000000000000000     
  0.25000000000000000       0.75000000000000000        0.0000000000000000     
  0.25000000000000000       0.81250000000000000        0.0000000000000000     
  0.16250000000000001       0.78749999999999998        0.0000000000000000     
  0.20624999999999999       0.79374999999999996        0.0000000000000000     
  0.21249999999999999       0.83750000000000002        0.0000000000000000     
  0.16875000000000001       0.83125000000000004        0.0000000000000000     
  0.31250000000000000       0.87500000000000000        0.0000000000000000     
  0.37500000000000000       0.87500000000000000        0.0000000000000000     
  0.37500000000000000       0.93750000000000000        0.0000000000000000     
  0.28749999999999998       0.91249999999999998        0.0000000000000000     
  0.33124999999999999       0.91874999999999996        0.0000000000000000     
  0.33750000000000002       0.96250000000000002        0.0000000000000000     
  0.29375000000000001       0.95625000000000004        0.0000000000000000     
  0.43750000000000000       0.87500000000000000        0.0000000000000000     
  0.50000000000000000       0.87500000000000000        0.0000000000000000     
  0.50000000000000000       0.93750000000000000        0.0000000000000000     
  0.41249999999999998       0.91249999999999998        0.0000000000000000     
  0.45624999999999999       0.91874999999999996        0.0000000000000000     
  0.46250000000000002       0.96250000000000002        0.0000000000000000     
  0.41875000000000001       0.95625000000000004        0.0000000000000000     
  0.31250000000000000       0.75000000000000000        0.0000000000000000     
  0.37500000000000000       0.75000000000000000        0.0000000000000000     
  0.37500000000000000       0.81250000000000000        0.0000000000000000     
  0.28749999999999998       0.78749999999999998        0.0000000000000000     
  0.33124999999999999       0.79374999999999996        0.0000000000000000     
  0.33750000000000002       0.83750000000000002        0.0000000000000000     
  0.29375000000000001       0.83125000000000004        0.0000000000000000     
  0.43750000000000000       0.75000000000000000        0.0000000000000000     
  0.50000000000000000       0.75000000000000000        0.0000000000000000     
  0.50000000000000000       0.81250000000000000        0.0000000000000000     
  0.41249999999999998       0.78749999999999998        0.0000000000000000     
  0.45624999999999999       0.79374999999999996        0.0000000000000000     
  0.46250000000000002       0.83750000000000002        0.0000000000000000     
  0.41875000000000001       0.83125000000000004        0.0000000000000000     
   6.2500000000000000E-002  0.62500000000000000        0.0000000000000000     
  0.12500000000000000       0.62500000000000000        0.0000000000000000     
  0.12500000000000000       0.68750000000000000        0.0000000000000000     
   3.7499999999999999E-002  0.66249999999999998        0.0000000000000000     
   8.1250000000000003E-002  0.66874999999999996        0.0000000000000000     
   8.7499999999999994E-002  0.71250000000000002        0.0000000000000000     
   4.3749999999999997E-002  0.70625000000000004        0.0000000000000000     
  0.18750000000000000       0.62500000000000000        0.0000000000000000     
  0.25000000000000000       0.62500000000000000        0.0000000000000000     
  0.25000000000000000       0.68750000000000000        0.0000000000000000     
  0.16250000000000001       0.66249999999999998        0.0000000000000000     
  0.20624999999999999       0.66874999999999996        0.0000000000000000     
  0.21249999999999999       0.71250000000000002        0.0000000000000000     
  0.16875000000000001       0.70625000000000004        0.0000000000000000     
   6.2500000000000000E-002  0.50000000000000000        0.0000000000000000     
  0.12500000000000000       0.50000000000000000        0.0000000000000000     
  0.12500000000000000       0.56250000000000000        0.0000000000000000     
   3.7499999999999999E-002  0.53749999999999998        0.0000000000000000     
   8.1250000000000003E-002  0.54374999999999996        0.0000000000000000     
   8.7499999999999994E-002  0.58750000000000002        0.0000000000000000     
   4.3749999999999997E-002  0.58125000000000004        0.0000000000000000     
  0.18750000000000000       0.50000000000000000        0.0000000000000000     
  0.25000000000000000       0.50000000000000000        0.0000000000000000     
  0.25000000000000000       0.56250000000000000        0.0000000000000000     
  0.16250000000000001       0.53749999999999998        0.0000000000000000     
  0.20624999999999999       0.54374999999999996        0.0000000000000000     
  0.21249999999999999       0.58750000000000002        0.0000000000000000     
  0.16875000000000001       0.58125000000000004        0.0000000000000000     
  0.31250000000000000       0.62500000000000000        0.0000000000000000     
  0.37500000000000000       0.62500000000000000        0.0000000000000000     
  0.37500000000000000       0.68750000000000000        0.0000000000000000     
  0.28749999999999998       0.66249999999999998        0.0000000000000000     
  0.33124999999999999       0.66874999999999996        0.0000000000000000     
  0.33750000000000002       0.71250000000000002        0.0000000000000000     
  0.29375000000000001       0.70625000000000004        0.0000000000000000     
  0.43750000000000000       0.62500000000000000        0.0000000000000000     
  0.50000000000000000       0.62500000000000000        0.0000000000000000     
  0.50000000000000000       0.68750000000000000        0.0000000000000000     
  0.41249999999999998       0.66249999999999998        0.0000000000000000     
  0.45624999999999999       0.66874999999999996        0.0000000000000000     
  0.46250000000000002       0.71250000000000002        0.0000000000000000     
  0.41875000000000001       0.70625000000000004        0.0000000000000000     
  0.31250000000000000       0.50000000000000000        0.0000000000000000     
  0.37500000000000000       0.50000000000000000        0.0000000000000000     
  0.37500000000000000       0.56250000000000000        0.0000000000000000     
  0.28749999999999998       0.53749999999999998        0.0000000000000000     
  0.33124999999999999       0.54374999999999996        0.0000000000000000     
  0.33750000000000002       0.58750000000000002        0.0000000000000000     
  0.29375000000000001       0.58125000000000004        0.0000000000000000     
  0.43750000000000000       0.50000000000000000        0.0000000000000000     
  0.50000000000000000       0.50000000000000000        0.0000000000000000     
  0.50000000000000000       0.56250000000000000        0.0000000000000000     
  0.41249999999999998       0.53749999999999998        0.0000000000000000     
  0.45624999999999999       0.54374999999999996        0.0000000000000000     
  0.46250000000000002       0.58750000000000002        0.0000000000000000     
  0.41875000000000001       0.58125000000000004        0.0000000000000000     
  0.56250000000000000       0.87500000000000000        0.0000000000000000     
  0.62500000000000000       0.87500000000000000        0.0000000000000000     
  0.62500000000000000       0.93750000000000000        0.0000000000000000     
  0.53749999999999998       0.91249999999999998        0.0000000000000000     
  0.58125000000000004       0.91874999999999996        0.0000000000000000     
  0.58750000000000002       0.96250000000000002        0.0000000000000000     
  0.54374999999999996       0.95625000000000004        0.0000000000000000     
  0.68750000000000000       0.87500000000000000        0.0000000000000000     
  0.75000000000000000       0.87500000000000000        0.0000000000000000     
  0.75000000000000000       0.93750000000000000        0.0000000000000000     
  0.66249999999999998       0.91249999999999998        0.0000000000000000     
  0.70625000000000004       0.91874999999999996        0.0000000000000000     
  0.71250000000000002       0.96250000000000002        0.0000000000000000     
[...]
 CELL_DATA         896
 SCALARS Tumor_cells float
 LOOKUP_TABLE default
    0.11709981713074846327E-07
   -0.23716686159782713979E-06
    0.18910338687538427152E-07
   -0.54518786312766655671E-07
   -0.22561268021460797385E-06
   -0.18314526135037381244E-06
    0.10880353243902164906E-07
   -0.22626798525444321490E-06
   -0.79058289406749650061E-07
   -0.97372741111992255739E-07
   -0.23719998076130001785E-06
   -0.54409930978830386802E-07
    0.11632326809167195141E-05
    0.10032639631134359505E-05
   -0.22325647123975935808E-06
   -0.17566828015655346504E-06
   -0.22665047666503009196E-06
   -0.22668108169406718067E-06
   -0.17513243949214907888E-06
   -0.22317957376211270972E-06
    0.18918881810111959638E-07
   -0.20299744763234133747E-06
   -0.62208902888859037064E-07
   -0.10732838870296640511E-06
   -0.20310398967804746872E-06
   -0.19570596940780023951E-06
    0.21603807464382351857E-06
    0.21615653353628752318E-06
   -0.17736515596992576148E-06
   -0.22592076571955162637E-06
   -0.77703936002472672762E-07
   -0.77703777596659858668E-07
   -0.22590599343196317796E-06
   -0.17749901759383701384E-06
   -0.12565329444752779437E-06
   -0.23678259999275245687E-06
    0.24652475296754142906E-06
   -0.13689056393573120111E-06
   -0.23701008978108384343E-06
   -0.15288044149054778391E-07
    0.10758693116763535852E-05
    0.10758445755988014219E-05
   -0.19078682755488088855E-06
   -0.20350882292810963294E-06
   -0.12646493849162178844E-06
   -0.18216089039301689219E-06
   -0.17257802332541309381E-06
   -0.23787344860009432109E-06
   -0.23784001350809333388E-06
   -0.17621792792614865345E-06
   -0.16977475684171160656E-06
   -0.12624653255433756427E-06
   -0.20350876624802514120E-06
   -0.19078540260664539372E-06
    0.25262039728313908540E-06
    0.18354527217979859924E-06
   -0.23786746405001230343E-06
   -0.17235447023845072681E-06
   -0.17757601485583533934E-06
   -0.12630540949844955408E-06
   -0.20350707481557162984E-06
   -0.19074176275934323789E-06
    0.15542035722210908799E-07
   -0.20335466616376907189E-06
   -0.55071454582645287452E-07
   -0.16974462791397818218E-06
   -0.17446975251101717433E-06
   -0.23784791107045458073E-06
    0.18463950572345570608E-06
    0.25515994585181691207E-06
   -0.12566719135387007719E-06
   -0.23681149695241156320E-06
    0.24654988379570046754E-06
    0.24654959342413163141E-06
   -0.23693477406868645541E-06
   -0.12564446108076349437E-06
    0.76541577317264735747E-08
   -0.22625964389582486848E-06
   -0.72177438801720111461E-07
   -0.77656851021045281974E-07
   -0.22570063170465001956E-06
   -0.17750015431180330730E-06
    0.10760806051344012678E-05
    0.10757955233720906653E-05
   -0.19579389654193128864E-06
   -0.19229954191945415573E-06
   -0.10761952087829964586E-06
   -0.10737480537746077866E-06
   -0.19613041427983198805E-06
   -0.19575192141016392181E-06
   -0.22328546225626805693E-06
   -0.17525377263535426102E-06
   -0.22611705478073604550E-06
   -0.22605206539217118797E-06
   -0.17457233177992122260E-06
   -0.22613825581253568583E-06
    0.21281466541394737623E-06
    0.21277658380155079466E-06
   -0.18327012430155590444E-06
   -0.22592904544957135476E-06
   -0.54513825262257349943E-07
    0.18928910101805665552E-07
   -0.23715204674879370843E-06
    0.11702063530138803620E-07
    0.11733344987551076410E-07
   -0.23714292231359703748E-06
    0.18921818619897036245E-07
   -0.54508202413949215635E-07
   -0.22589065098478644008E-06
   -0.18326626592405241220E-06
    0.10032664248399066025E-05
    0.11631335734661565927E-05
   -0.23784961780824459809E-06
   -0.17216752941125529679E-06
   -0.17729014673590415181E-06
   -0.12629612338381569954E-06
   -0.20350616141608238078E-06
   -0.19078865971718539956E-06
   -0.19078730603767994101E-06
   -0.20350582638245348111E-06
   -0.12624483893753158632E-06
   -0.35655502587314863089E-07
   -0.17394292804723208057E-06
    0.81910468907060319882E-07
    0.18207790294242411641E-06
    0.24799414725512975907E-06
   -0.12565656073470191621E-06
   -0.23681586609207471618E-06
    0.24654879509035757433E-06
    0.24654775947572368464E-06
   -0.23681249670008958142E-06
   -0.12565697936239005123E-06
   -0.17749952105226013695E-06
   -0.22594468141062636279E-06
   -0.77701616149343766967E-07
   -0.77702076826652038480E-07
   -0.22595939743996016519E-06
   -0.17750007388933951131E-06
    0.10758927629394751003E-05
    0.10758985544647938596E-05
   -0.19573036038606806373E-06
   -0.20219801791624144568E-06
   -0.10731079397039719876E-06
   -0.10733207041478973173E-06
   -0.19999415288294471513E-06
   -0.19575518803166017446E-06
   -0.22546231841524641414E-06
   -0.17376802699539046322E-06
   -0.22643400087004169850E-06
    0.91190068838866632931E-08
   -0.17352860622833828977E-06
    0.42058432379496221527E-07
    0.21283964900067920395E-06
    0.21288589130396290124E-06
   -0.18326578060668122476E-06
   -0.22593663288006147034E-06
   -0.54512019773555520593E-07
    0.18926850946645460984E-07
   -0.23716167610650171972E-06
    0.11711407721802694940E-07
    0.11702686164195963509E-07
   -0.23715988534740213981E-06
    0.18933091377262645486E-07
   -0.54511292233745893256E-07
   -0.22592877219439520400E-06
   -0.18326520578757885376E-06
    0.10032541750303101123E-05
    0.11631951914272535422E-05
    0.11710426822660855113E-07
   -0.23718296999447897051E-06
    0.18910311608239673788E-07
   -0.54521819586011944563E-07
   -0.22600828214512245773E-06
   -0.18327374752151226891E-06
   -0.18326708227716289387E-06
   -0.22589619149464133188E-06
   -0.54512445942052750831E-07
    0.18930471258681171465E-07
   -0.23716092549309650578E-06
    0.11702421996355448858E-07
    0.11631874431142670912E-05
    0.10032734909579527230E-05
   -0.22384609817356709909E-06
   -0.18460474376431864319E-06
   -0.18327729323695509601E-06
   -0.19213340583052282329E-06
   -0.18448713797539078173E-06
   -0.22325291528342638609E-06
   -0.19574710727019983433E-06
   -0.20312191086362809790E-06
   -0.10730585785091882230E-06
   -0.10730698691806752387E-06
   -0.20313983188396305463E-06
   -0.19581881907840440691E-06
    0.21657806413152866841E-06
    0.21666284878669650454E-06
   -0.17753514543117635581E-06
   -0.22617943122512672455E-06
   -0.45352473281720335874E-07
    0.66661678301677145973E-04
   -0.20020105366812385335E-06
   -0.14859704397800291624E-06
   -0.12569544981351005906E-06
   -0.23693453403300186021E-06
    0.24655594446653130446E-06
    0.24655398346477432676E-06
   -0.23686816368678866973E-06
   -0.12566994025807588475E-06
    0.10763143611943437403E-05
    0.10761093691341519728E-05
    0.37173388596477001389E-01
    0.62376059784617771120E-01
    0.44661375924713003771E-01
    0.51163200754873343346E-01
    0.10132543001736795535E-01
    0.89420506193518855317E-03
    0.63147966402702058070E-05
    0.76443128046437317479E-03
    0.51656355798836632396E-06
    0.79601891120038788295E-04
    0.84275142872286528534E-02
    0.50062885868247166549E-02
    0.38426889832892975607E-01
    0.17981612582987503007E-01
    0.11701030258341015239E-07
   -0.23716680919066289856E-06
    0.18910163393621588191E-07
   -0.54518946820997155583E-07
   -0.22561010583691281296E-06
   -0.18314472460109266395E-06
    0.10880092003017922170E-07
   -0.22626936598599505494E-06
   -0.79044908513198854194E-07
    0.18986956233931662568E-07
   -0.23721226306332004853E-06
    0.11699962426651744585E-07
    0.11632329157817449252E-05
    0.10032635567859080128E-05
   -0.22700595304694346877E-06
   -0.17675279880896811018E-06
   -0.22636482874422804277E-06
   -0.22659271781493312689E-06
   -0.17576119649113326519E-06
   -0.22317784904524021157E-06
    0.18918940808447988838E-07
   -0.20299506441694319963E-06
   -0.62208865326159682627E-07
   -0.10733138117259774875E-06
   -0.20274217786614665274E-06
   -0.19573406838085386535E-06
    0.21311230557773981623E-06
    0.21297186215700614475E-06
   -0.17750916169815187845E-06
   -0.22594214139388859235E-06
   -0.77706310598241921118E-07
   -0.77704214921396405805E-07
   -0.22590145993003667342E-06
   -0.17749822196227326197E-06
   -0.12565296425467691519E-06
   -0.23678262546502164359E-06
    0.24652489819565195115E-06
    0.24654971291266154473E-06
   -0.23679471875858259706E-06
   -0.12566174946824555050E-06
    0.10758738186326514934E-05
    0.10758499381244484385E-05
   -0.19082089171202152050E-06
   -0.19609135154340819851E-06
   -0.12713537164509050116E-06
   -0.17997822823887346070E-06
   -0.17309339058811412497E-06
   -0.23788151176576536227E-06
   -0.23787238891845834415E-06
   -0.17289315248428018922E-06
   -0.17148134734993222028E-06
   -0.12628518942169812509E-06
   -0.20008667935953391810E-06
   -0.19080098081700438117E-06
    0.21536533022900266540E-06
    0.19172840220286310420E-06
   -0.23783555615659020382E-06
   -0.17285086216919725927E-06
   -0.16979653731849858556E-06
   -0.12625056723304957560E-06
   -0.20350729805050830282E-06
   -0.19074200197242800118E-06
    0.15541908888428891572E-07
   -0.20335492413311170320E-06
   -0.55071641007759820818E-07
   -0.16975863593166919839E-06
   -0.17209490292456790340E-06
   -0.23784084146851419665E-06
    0.19582259967403400553E-06
    0.25529742257522376223E-06
   -0.12566740860107570948E-06
   -0.23681255155518674292E-06
    0.24651237758519896481E-06
   -0.13690749290628418006E-06
   -0.23705972608429464621E-06
   -0.15199634105284722548E-07
    0.76965097298271388616E-08
   -0.22626018454986543513E-06
   -0.72177535485715989107E-07
   -0.77657007463420067458E-07
   -0.22570211312265114298E-06
   -0.17750067720664394650E-06
    0.10760822239149132696E-05
    0.10757954156284481832E-05
   -0.19593082653955804197E-06
   -0.20194470327918770481E-06
   -0.10731268555247681466E-06
   -0.10730309309684115568E-06
   -0.20309877593276831402E-06
   -0.19571779052283056909E-06
   -0.22325400026802874831E-06
   -0.17730796361836196391E-06
   -0.22652345902520038852E-06
   -0.22626111154791032529E-06
   -0.17722313909835688295E-06
   -0.22818144848699326243E-06
    0.21298606279871425593E-06
    0.21282724040017108186E-06
   -0.18326560000673645263E-06
   -0.22590830133957841394E-06
   -0.54510173850615402262E-07
   -0.97424605638175226234E-07
   -0.23712956571527113917E-06
   -0.54410109959791502327E-07
    0.11733762364665320562E-07
   -0.23714294471035132025E-06
    0.18922276429051566856E-07
   -0.54507976045896407204E-07
   -0.22589859989491792133E-06
   -0.18326547874056607443E-06
    0.10032631065488290583E-05
    0.11631309663783986518E-05
   -0.21772511405536116260E-06
   -0.18442677453875444757E-06
   -0.16973920418500380875E-06
   -0.12627477643461955905E-06
   -0.20352396071925316039E-06
   -0.19080261207729703720E-06
   -0.19079821421042105733E-06
   -0.20352332498264482738E-06
   -0.12625224209517348445E-06
   -0.16972179182409510865E-06
   -0.18440288615417460471E-06
   -0.23126598034287174519E-06
    0.21304052600363325132E-06
    0.25578629308708302290E-06
   -0.12564228887720647786E-06
   -0.23685001217827020409E-06
    0.24654651568626181069E-06
    0.24655051319111853426E-06
   -0.23681411333687199625E-06
   -0.12565740844667919426E-06
   -0.17749976908122056364E-06
   -0.22592889220114927121E-06
   -0.77703048242685904276E-07
   -0.77709264130905688863E-07
   -0.22602368552336631393E-06
   -0.17753138681523173114E-06
    0.10758773218026019855E-05
    0.10759286807153269500E-05
    0.42855937838819371799E-01
    0.60304166660518895848E-01
    0.33812616740007121752E-01
    0.48427710748957164197E-02
    0.52134539387941377514E-03
    0.24865097700878652771E-06
    0.12790719992301634454E-06
    0.49030938002647152501E-03
    0.80173769954316761283E-05
    0.90391307524784495972E-03
    0.53879427633903862263E-02
    0.52391227888212564545E-01
    0.36320544433836775278E-01
    0.15141596191031350682E-01
   -0.14676962362761127807E-06
   -0.22603523652827995157E-06
   -0.54559805142963353315E-07
    0.18924892571060650743E-07
   -0.23716512542540418908E-06
    0.11700918297810784239E-07
    0.11699607050350206950E-07
   -0.23722110730665318564E-06
    0.18934039519336180971E-07
   -0.54598943663702237727E-07
   -0.19095871694477891981E-06
    0.77749864710423114995E-04
    0.10031131491115018572E-05
    0.11636591290977967787E-05
    0.11705065678488707289E-07
   -0.23715916638692370362E-06
    0.18933583579860523394E-07
   -0.54511080837751798708E-07
   -0.22593796651865413266E-06
   -0.18326506603242637480E-06
   -0.18326487300083994844E-06
   -0.22592130301067496018E-06
   -0.54512646506348275011E-07
    0.18931897789686656767E-07
   -0.23715784867887315358E-06
    0.11706087690621790735E-07
    0.11631971679056875769E-05
    0.10032511511846236753E-05
   -0.22644410703084897005E-06
   -0.17508077321422270728E-06
   -0.22650355937963001866E-06
    0.93316415661387548259E-08
   -0.17503182311188285657E-06
    0.42006045711259644122E-07
   -0.19572436797240183787E-06
   -0.20310015735561931770E-06
   -0.10730216791123995102E-06
   -0.10730568273927646571E-06
   -0.20253562717240625549E-06
   -0.19575036344962381159E-06
    0.21322147952557149415E-06
    0.21290854517153071788E-06
   -0.17750318562319263984E-06
   -0.22595772663166836456E-06
   -0.77702638971354462516E-07
   -0.77702220572861505158E-07
   -0.22595310514923878341E-06
   -0.17749991962666050967E-06
   -0.12565681627652371838E-06
   -0.23681635917418139334E-06
    0.24654974677684035849E-06
    0.24654520657553318013E-06
   -0.23681926918807373410E-06
   -0.12565308968654436951E-06
    0.10758922310472435017E-05
    0.10759010004795696931E-05
   -0.19078760290767297533E-06
   -0.20342110631059212518E-06
   -0.12624637343607297685E-06
   -0.35438147534956118451E-07
   -0.17208900765361254912E-06
    0.81744919706264970973E-07
   -0.23785485780879130769E-06
   -0.17231938389389058064E-06
   -0.17593668797890996707E-06
   -0.12629012085803147136E-06
   -0.20266465714786283097E-06
   -0.19078966832736475092E-06
    0.22252795979949319928E-06
    0.18442297611992409138E-06
    0.11703759253676106746E-07
   -0.23716072904969487862E-06
    0.18933750332559649517E-07
   -0.54511705323190411194E-07
   -0.22593676944031417188E-06
   -0.18326574753073231935E-06
   -0.18326525258952503938E-06
   -0.22593149636155425253E-06
   -0.54511228587915077493E-07
   -0.97420151650231499102E-07
   -0.23714224099421327698E-06
   -0.54410138187600863598E-07
    0.11632019748197452520E-05
    0.10032520445716357389E-05
   -0.22323578301771924926E-06
   -0.18319096454286197741E-06
   -0.21667335858970693092E-06
   -0.22019533615881115553E-06
   -0.18372319094092955159E-06
   -0.22910904311097332095E-06
   -0.19578972726519388988E-06
   -0.20308286992152795379E-06
   -0.10730219535052614525E-06
   -0.10730202662680703317E-06
   -0.20310167988724150999E-06
   -0.19572914200621770241E-06
    0.21340703282797670114E-06
    0.21361661466038672504E-06
   -0.17736660821173130059E-06
   -0.22594626719291770231E-06
   -0.77701919757498508009E-07
   -0.77702635918646807404E-07
   -0.22596489388002295595E-06
   -0.17750192500511485091E-06
   -0.12565712204001329778E-06
   -0.23681795119675273483E-06
    0.24654908162117907206E-06
   -0.13690491159012072285E-06
   -0.23701621096050166984E-06
   -0.15284140089807308177E-07
    0.10759005945982841231E-05
    0.10758950851300678423E-05
   -0.19078886902950152551E-06
   -0.20351101801500710852E-06
   -0.12624553765607907608E-06
   -0.16973413332837670970E-06
   -0.18202809295461678237E-06
   -0.23689182241943148928E-06
   -0.23707371695520458481E-06
   -0.18237090307528175172E-06
   -0.16972899393868058709E-06
   -0.12624430301439883486E-06
   -0.20351127940949303052E-06
   -0.19079029318437769221E-06
    0.25562692683141539301E-06
    0.21104438838169038207E-06
   -0.23761218081052523323E-06
   -0.18117895591509101838E-06
   -0.18708961493737840037E-06
   -0.16151073402520286717E-06
   -0.10909286355768401974E-06
    0.10840759180838134719E-03
   -0.14073561852558504331E-06
   -0.19622987327394151298E-06
   -0.12633753590523979087E-06
   -0.16988980494826984698E-06
   -0.18291716343635776282E-06
   -0.23776068283097343273E-06
    0.20940211056162499711E-06
    0.21310853502006487380E-06
    0.36760635978913582520E-04
    0.59901747230222228413E-02
    0.85081263045927064959E-02
    0.39383713941440350037E-01
    0.62018151075684792295E-01
    0.29189184006215947859E-01
    0.38536912608075589437E-01
    0.63889256707161182214E-01
    0.35447001360100267864E-01
    0.56975382369110448566E-02
    0.59110690063715418813E-02
    0.31912373571203982018E-04
    0.40846584967052276816E-01
    0.58246531257856469510E-01
   -0.19572751272843422032E-06
   -0.20310312463021425976E-06
   -0.10730374671258994322E-06
   -0.10735196298676538034E-06
   -0.19992898278249009943E-06
   -0.19766499857257392652E-06
   -0.22978262629725025836E-06
   -0.18357264955853328326E-06
   -0.21964441759482775749E-06
   -0.21871553578612144997E-06
   -0.18366409132833253115E-06
   -0.22323279814244707227E-06
    0.21314783983986114131E-06
    0.21333078366054879708E-06
   -0.18327172637154511304E-06
   -0.22570966825997210742E-06
   -0.54776232199040448825E-07
    0.18866834903184157103E-07
   -0.23697537134787903730E-06
    0.24792819930659146546E-06
    0.29993753772065539489E-03
    0.11120495241734588504E-06
    0.33177821966746549125E-07
   -0.54517957485734817269E-07
   -0.22585818417155065712E-06
   -0.18327716527037129907E-06
    0.10034873237294955567E-05
    0.11625738721858305356E-05
   -0.23775747987903622758E-06
   -0.17134701551841585514E-06
   -0.17069221099699443778E-06
   -0.12625223612165123616E-06
   -0.20349908084509608764E-06
   -0.19078516177946565758E-06
   -0.19078672949562737555E-06
   -0.20349915391085636411E-06
   -0.12625698393318337936E-06
   -0.34613208496293591218E-07
   -0.17127533290861090914E-06
    0.82493342584393381153E-07
    0.17822467485201527918E-06
    0.23397854316677402777E-06
   -0.12565312162329092382E-06
   -0.23678265915625848472E-06
    0.24652471260297814464E-06
    0.24654953367121187739E-06
   -0.23679147575611038768E-06
   -0.12565983766796114864E-06
   -0.17750183616528612905E-06
   -0.22592514170197549947E-06
   -0.77704235429963927263E-07
   -0.77703761956917762641E-07
   -0.22590506835614809735E-06
   -0.17749858838674109012E-06
    0.10758456677590779928E-05
    0.10758706517491897269E-05
    0.18918265085400561160E-07
   -0.20299513187960496162E-06
   -0.62209046636993968450E-07
   -0.10732830652242752005E-06
   -0.20310328923054249449E-06
   -0.19571124081463954372E-06
   -0.22418099160636365741E-06
   -0.17343124618711966833E-06
   -0.22711119191233670521E-06
    0.10150269626552399868E-07
   -0.17288100304249951649E-06
    0.42166931119007345749E-07
    0.21369898772269459119E-06
    0.21567038404517786699E-06
    0.10880044536351436139E-07
   -0.22626908976288734892E-06
   -0.79044925962960612715E-07
    0.18986930922859658370E-07
   -0.23721228787402828666E-06
    0.11699992553936741782E-07
    0.11701105729830788767E-07
   -0.23716698201328071857E-06
    0.18910235183956730231E-07
   -0.54518727162987670228E-07
   -0.22561074210607955903E-06
   -0.18314469379674620383E-06
    0.10032637264774738637E-05
    0.11632328012708633658E-05
    0.11733510067623977506E-07
   -0.23714300693139299837E-06
    0.18922259005480983580E-07
   -0.54508034455664886224E-07
   -0.22589694983457004995E-06
   -0.18326582196049373241E-06
   -0.18326697352935403831E-06
   -0.22591220052989224696E-06
   -0.54510680672882167409E-07
    0.18928223448512112258E-07
   -0.23715002348285455287E-06
    0.11702212897571177231E-07
    0.11631308593409643837E-05
    0.10032639008059149084E-05
   -0.22324593382881025882E-06
   -0.18217146695207865820E-06
   -0.22503077627428716840E-06
   -0.22444102949821087349E-06
   -0.17695339049388351895E-06
   -0.22926782763992700557E-06
   -0.21070301293621682924E-06
   -0.19059684197296835160E-06
   -0.10744238834752660165E-06
   -0.10730400425770869604E-06
   -0.20309875119533461976E-06
   -0.19571791218254963348E-06