# vtk DataFile Version 3.0
LAPLACIEN  2D
ASCII
DATASET UNSTRUCTURED_GRID
 POINTS         481  float
   6.2500000000000000E-002  0.87500000000000000        0.0000000000000000     
  0.12500000000000000       0.87500000000000000        0.0000000000000000     
  0.12500000000000000       0.93750000000000000        0.0000000000000000     
   3.7499999999999999E-002  0.91249999999999998        0.0000000000000000     
   8.1250000000000003E-002  0.91874999999999996        0.0000000000000000     
   8.7499999999999994E-002  0.96250000000000002        0.0000000000000000     
   4.3749999999999997E-002  0.95625000000000004        0.0000000000000000     
  0.18750000000000000       0.87500000000000000        0.0000000000000000     
  0.25000000000000000       0.87500000000000000        0.0000000000000000     
  0.25000000000000000       0.93750000000000000        0.0000000000000000     
  0.16250000000000001       0.91249999999999998        0.0000000000000000     
  0.20624999999999999       0.91874999999999996        0.0000000000000000     
  0.21249999999999999       0.96250000000000002        0.0000000000000000     
  0.16875000000000001       0.95625000000000004        0.0000000000000000     
   6.2500000000000000E-002  0.75000000000000000        0.0000000000000000     
  0.12500000000000000       0.75000000000000000        0.0000000000000000     
  0.12500000000000000       0.81250000000000000        0.0000000000000000     
   3.7499999999999999E-002  0.78749999999999998        0.0000000000000000     
   8.1250000000000003E-002  0.79374999999999996        0.0000000000000000     
   8.7499999999999994E-002  0.83750000000000002        0.0000000000000000     
   4.3749999999999997E-002  0.83125000000000004        0.0000000000000000     
  0.18750000000000000       0.75000000000000000        0.0000000000000000     
  0.25000000000000000       0.75000000000000000        0.0000000000000000     
  0.25000000000000000       0.81250000000000000        0.0000000000000000     
  0.16250000000000001       0.78749999999999998        0.0000000000000000     
  0.20624999999999999       0.79374999999999996        0.0000000000000000     
  0.21249999999999999       0.83750000000000002        0.0000000000000000     
  0.16875000000000001       0.83125000000000004        0.0000000000000000     
  0.31250000000000000       0.87500000000000000        0.0000000000000000     
  0.37500000000000000       0.87500000000000000        0.0000000000000000     
  0.37500000000000000       0.93750000000000000        0.0000000000000000     
  0.28749999999999998       0.91249999999999998        0.0000000000000000     
  0.33124999999999999       0.91874999999999996        0.0000000000000000     
  0.33750000000000002       0.96250000000000002        0.0000000000000000     
  0.29375000000000001       0.95625000000000004        0.0000000000000000     
  0.43750000000000000       0.87500000000000000        0.0000000000000000     
  0.50000000000000000       0.87500000000000000        0.0000000000000000     
  0.50000000000000000       0.93750000000000000        0.0000000000000000     
  0.41249999999999998       0.91249999999999998        0.0000000000000000     
  0.45624999999999999       0.91874999999999996        0.0000000000000000     
  0.46250000000000002       0.96250000000000002        0.0000000000000000     
  0.41875000000000001       0.95625000000000004        0.0000000000000000     
  0.31250000000000000       0.75000000000000000        0.0000000000000000     
  0.37500000000000000       0.75000000000000000        0.0000000000000000     
  0.37500000000000000       0.81250000000000000        0.0000000000000000     
  0.28749999999999998       0.78749999999999998        0.0000000000000000     
  0.33124999999999999       0.79374999999999996        0.0000000000000000     
  0.33750000000000002       0.83750000000000002        0.0000000000000000     
  0.29375000000000001       0.83125000000000004        0.0000000000000000     
  0.43750000000000000       0.75000000000000000        0.0000000000000000     
  0.50000000000000000       0.75000000000000000        0.0000000000000000     
  0.50000000000000000       0.81250000000000000        0.0000000000000000     
  0.41249999999999998       0.78749999999999998        0.0000000000000000     
  0.45624999999999999       0.79374999999999996        0.0000000000000000     
  0.46250000000000002       0.83750000000000002        0.0000000000000000     
  0.41875000000000001       0.83125000000000004        0.0000000000000000     
   6.2500000000000000E-002  0.62500000000000000        0.0000000000000000     
  0.12500000000000000       0.62500000000000000        0.0000000000000000     
  0.12500000000000000       0.68750000000000000        0.0000000000000000     
   3.7499999999999999E-002  0.66249999999999998        0.0000000000000000     
   8.1250000000000003E-002  0.66874999999999996        0.0000000000000000     
   8.7499999999999994E-002  0.71250000000000002        0.0000000000000000     
   4.3749999999999997E-002  0.70625000000000004        0.0000000000000000     
  0.18750000000000000       0.62500000000000000        0.0000000000000000     
  0.25000000000000000       0.62500000000000000        0.0000000000000000     
  0.25000000000000000       0.68750000000000000        0.0000000000000000     
  0.16250000000000001       0.66249999999999998        0.0000000000000000     
  0.20624999999999999       0.66874999999999996        0.0000000000000000     
  0.21249999999999999       0.71250000000000002        0.0000000000000000     
  0.16875000000000001       0.70625000000000004        0.0000000000000000     
   6.2500000000000000E-002  0.50000000000000000        0.0000000000000000     
  0.12500000000000000       0.50000000000000000        0.0000000000000000     
  0.12500000000000000       0.56250000000000000        0.0000000000000000     
   3.7499999999999999E-002  0.53749999999999998        0.0000000000000000     
   8.1250000000000003E-002  0.54374999999999996        0.0000000000000000     
   8.7499999999999994E-002  0.58750000000000002        0.0000000000000000     
   4.3749999999999997E-002  0.58125000000000004        0.0000000000000000     
  0.18750000000000000       0.50000000000000000        0.0000000000000000     
  0.25000000000000000       0.50000000000000000        0.0000000000000000     
  0.25000000000000000       0.56250000000000000        0.0000000000000000     
  0.16250000000000001       0.53749999999999998        0.0000000000000000     
  0.20624999999999999       0.54374999999999996        0.0000000000000000     
  0.21249999999999999       0.58750000000000002        0.0000000000000000     
  0.16875000000000001       0.58125000000000004        0.0000000000000000     
  0.31250000000000000       0.62500000000000000        0.0000000000000000     
  0.37500000000000000       0.62500000000000000        0.0000000000000000     
  0.37500000000000000       0.68750000000000000        0.0000000000000000     
  0.28749999999999998       0.66249999999999998        0.0000000000000000     
  0.33124999999999999       0.66874999999999996        0.0000000000000000     
  0.33750000000000002       0.71250000000000002        0.0000000000000000     
  0.29375000000000001       0.70625000000000004        0.0000000000000000     
  0.43750000000000000       0.62500000000000000        0.0000000000000000     
  0.50000000000000000       0.62500000000000000        0.0000000000000000     
  0.50000000000000000       0.68750000000000000        0.0000000000000000     
  0.41249999999999998       0.66249999999999998        0.0000000000000000     
  0.45624999999999999       0.66874999999999996        0.0000000000000000     
  0.46250000000000002       0.71250000000000002        0.0000000000000000     
  0.41875000000000001       0.70625000000000004        0.0000000000000000     
  0.31250000000000000       0.50000000000000000        0.0000000000000000     
  0.37500000000000000       0.50000000000000000        0.0000000000000000     
  0.37500000000000000       0.56250000000000000        0.0000000000000000     
  0.28749999999999998       0.53749999999999998        0.0000000000000000     
  0.33124999999999999       0.54374999999999996        0.0000000000000000     
  0.33750000000000002       0.58750000000000002        0.0000000000000000     
  0.29375000000000001       0.58125000000000004        0.0000000000000000     
  0.43750000000000000       0.50000000000000000        0.0000000000000000     
  0.50000000000000000       0.50000000000000000        0.0000000000000000     
  0.50000000000000000       0.56250000000000000        0.0000000000000000     
  0.41249999999999998       0.53749999999999998        0.0000000000000000     
  0.45624999999999999       0.54374999999999996        0.0000000000000000     
  0.46250000000000002       0.58750000000000002        0.0000000000000000     
  0.41875000000000001       0.58125000000000004        0.0000000000000000     
  0.56250000000000000       0.87500000000000000        0.0000000000000000     
  0.62500000000000000       0.87500000000000000        0.0000000000000000     
  0.62500000000000000       0.93750000000000000        0.0000000000000000     
  0.53749999999999998       0.91249999999999998        0.0000000000000000     
  0.58125000000000004       0.91874999999999996        0.0000000000000000     
  0.58750000000000002       0.96250000000000002        0.0000000000000000     
  0.54374999999999996       0.95625000000000004        0.0000000000000000     
  0.68750000000000000       0.87500000000000000        0.0000000000000000     
  0.75000000000000000       0.87500000000000000        0.0000000000000000     
  0.75000000000000000       0.93750000000000000        0.0000000000000000     
  0.66249999999999998       0.91249999999999998        0.0000000000000000     
  0.70625000000000004       0.91874999999999996        0.0000000000000000     
  0.71250000000000002       0.96250000000000002        0.0000000000000000     
[...]
 CELL_DATA         896
 SCALARS Tumor_cells float
 LOOKUP_TABLE default
    0.20926191577843758618E-07
   -0.35361752362109540593E-06
    0.31769391114312132462E-07
   -0.78391733992883168981E-07
   -0.33602964952019572496E-06
   -0.27182377004409878399E-06
    0.15805172554287650496E-07
   -0.33758554790294499724E-06
   -0.11851176723549576396E-06
   -0.14572116399075458015E-06
   -0.35373156047835140075E-06
   -0.81519894076391060006E-07
    0.17481934470614108378E-05
    0.15090731646752516369E-05
   -0.33237858386587483521E-06
   -0.26421936123729625801E-06
   -0.33698689298023438780E-06
   -0.33705324329153463406E-06
   -0.26314302992306716603E-06
   -0.33222843648093291510E-06
    0.28044373043940746658E-07
   -0.30319890007897131219E-06
   -0.93206640250029474824E-07
   -0.15775938942534999385E-06
   -0.30340154384983965960E-06
   -0.29066740519600242290E-06
    0.32833357400621438658E-06
    0.32863211954812222898E-06
   -0.26310648705126173917E-06
   -0.33654690180514241750E-06
   -0.11327176113491378327E-06
   -0.11327146296492150128E-06
   -0.33651306028210752233E-06
   -0.26336072972504860370E-06
   -0.18540384146049350108E-06
   -0.35287343891189294673E-06
    0.37340695329743182569E-06
   -0.20460475819611122916E-06
   -0.35345576839807598879E-06
   -0.23212370061526321117E-07
    0.16173299150231747686E-05
    0.16172702872223862348E-05
   -0.28332708008334103302E-06
   -0.30402095754201264666E-06
   -0.18740888833477341229E-06
   -0.27332125016810861377E-06
   -0.25902256430401350132E-06
   -0.35488780975194642144E-06
   -0.35485020469442850368E-06
   -0.26608550438600246161E-06
   -0.25161585837768943259E-06
   -0.18621659642911871917E-06
   -0.30402031989988117020E-06
   -0.28332334287870273998E-06
    0.38045342383627501804E-06
    0.28574052305096031549E-06
   -0.35488253959639585592E-06
   -0.25857554938733284468E-06
   -0.26757056012500779542E-06
   -0.18640083902854344957E-06
   -0.30401051448171122928E-06
   -0.28321646374654958595E-06
    0.22881074771182207580E-07
   -0.30370297997243824608E-06
   -0.82479922372144166591E-07
   -0.25158287870278063347E-06
   -0.26264943499780322132E-06
   -0.35486748980711927008E-06
    0.28669961327610835426E-06
    0.38694837601499565210E-06
   -0.18544022086306246562E-06
   -0.35294096499682245099E-06
    0.37346826929585695106E-06
    0.37346842419711380046E-06
   -0.35323944146532182685E-06
   -0.18536774405985705931E-06
    0.10965860836694652481E-07
   -0.33735760342979789616E-06
   -0.10821585017472077442E-06
   -0.11319842245091981697E-06
   -0.33602698357260924081E-06
   -0.26336748908922889134E-06
    0.16178398943648019225E-05
    0.16171561980110189281E-05
   -0.29302536806044485668E-06
   -0.28358988400413380173E-06
   -0.16352186946383500502E-06
   -0.15794655247223613545E-06
   -0.28909559101572305776E-06
   -0.29080672395757208926E-06
   -0.33247211019353680070E-06
   -0.26343400564147810836E-06
   -0.33579668130151435446E-06
   -0.33564992757192471048E-06
   -0.26225130281211768725E-06
   -0.33875837930354637326E-06
    0.32308464089992930973E-06
    0.32301881337872333200E-06
   -0.27208652109029442947E-06
   -0.33687696968451453525E-06
   -0.78377909335216825467E-07
    0.31826912219850951176E-07
   -0.35359395284742943238E-06
    0.20921450422853250513E-07
    0.20994199172625109340E-07
   -0.35356081773422276656E-06
    0.31796792501092889362E-07
   -0.78366897805283248961E-07
   -0.33665566441107164643E-06
   -0.27207308958417840978E-06
    0.15090903203926623639E-05
    0.17479817264652633662E-05
   -0.35486126013563766938E-06
   -0.25819544624019315280E-06
   -0.26709567061544738205E-06
   -0.18637755163673466656E-06
   -0.30401435922103183512E-06
   -0.28333143235146577638E-06
   -0.28332788549312954625E-06
   -0.30401254078444640693E-06
   -0.18621251930963906474E-06
   -0.53665473361319439566E-07
   -0.26161272062213775040E-06
    0.12124049893929643354E-06
    0.28250894278626450747E-06
    0.37124112444816315571E-06
   -0.18541292965865427684E-06
   -0.35294088929880757927E-06
    0.37346041240338061714E-06
    0.37344827324008659958E-06
   -0.35292976676924363439E-06
   -0.18541297883152866457E-06
   -0.26336731661149549123E-06
   -0.33659329816740766866E-06
   -0.11326546067804161885E-06
   -0.11326672876138332850E-06
   -0.33662967358231894752E-06
   -0.26336396928281386710E-06
    0.16173777469481175654E-05
    0.16173847318887801875E-05
   -0.29073181056924998573E-06
   -0.30149009060691842038E-06
   -0.15772348619701828028E-06
   -0.15779553341756007738E-06
   -0.29682955255954706108E-06
   -0.29081333605785629372E-06
   -0.33700918040924461849E-06
   -0.26063233531275698798E-06
   -0.33649447410401378737E-06
    0.12246976231268450646E-07
   -0.26010240472559440774E-06
    0.62470817305302638355E-07
    0.32308570158118513133E-06
    0.32315286337375565827E-06
   -0.27206952628307655955E-06
   -0.33682243242505489937E-06
   -0.78364664587704307172E-07
    0.31792072529358799888E-07
   -0.35360884454542208078E-06
    0.20987458381816474196E-07
    0.20921119707893085754E-07
   -0.35359854833508127438E-06
    0.31821503057350306982E-07
   -0.78372626641115945236E-07
   -0.33674040972223972651E-06
   -0.27206625169498437212E-06
    0.15090696649494897861E-05
    0.17480480812168165717E-05
    0.20973408287994374759E-07
   -0.35370749435476188027E-06
    0.31786316928952659137E-07
   -0.78389676804198972642E-07
   -0.33715856747580384329E-06
   -0.27210263224021428209E-06
   -0.27209332592622760391E-06
   -0.33655585713774190084E-06
   -0.78402517912146420227E-07
    0.31806662759628159714E-07
   -0.35361214481360574140E-06
    0.20919981811714047646E-07
    0.17480478702775831146E-05
    0.15091562986397520869E-05
   -0.32686063473743903374E-06
   -0.27610502334134263152E-06
   -0.24628630864926464224E-06
   -0.28338675780384298909E-06
   -0.27592843375584804057E-06
   -0.33239347350615049252E-06
   -0.29081187675033436621E-06
   -0.30347900032940305371E-06
   -0.15769945924112186367E-06
   -0.15771190134817947191E-06
   -0.30353266713732802765E-06
   -0.29100298376915321076E-06
    0.32940954993472810939E-06
    0.32983961539166435605E-06
   -0.26350113762320665371E-06
   -0.33716314687312845727E-06
    0.59852275380258756289E-06
    0.45879946183583543992E-03
    0.35119648725014802987E-06
    0.37002961939458170213E-06
   -0.18536627189854790030E-06
   -0.35335498490809692704E-06
    0.37350147430944856104E-06
    0.37349401170608564182E-06
   -0.35286019587626513006E-06
   -0.18547129903125843369E-06
    0.16188215897247363515E-05
    0.16177065337877189041E-05
    0.35976743649795493718E-01
    0.46990587461359104027E-01
    0.45320905454101230447E-01
    0.45355313635877782252E-01
    0.18121084485190133706E-01
    0.14602884330781231836E-02
    0.22773014363568836854E-04
    0.27114185076765190407E-02
    0.97035513461783208159E-05
    0.36312439328975529718E-03
    0.12676037695805770014E-01
    0.95517006592216423255E-02
    0.32555407252377578653E-01
    0.22932371665353664530E-01
    0.20920170776802973302E-07
   -0.35361627271043632673E-06
    0.31768100319430208744E-07
   -0.78393389426628169114E-07
   -0.33601938152108915531E-06
   -0.27182205612639934029E-06
    0.15804371215383156907E-07
   -0.33758962442663128510E-06
   -0.11846717682492520319E-06
    0.31974778092459875348E-07
   -0.35372942679335902441E-06
    0.20918766373727058176E-07
    0.17481916953437921381E-05
    0.15090719649596324550E-05
   -0.33960645986683623460E-06
   -0.26625940662482551930E-06
   -0.33634716829520650806E-06
   -0.33685385209674662006E-06
   -0.26446215480024798780E-06
   -0.33222206840733494524E-06
    0.28044801217060395145E-07
   -0.30319318324326940693E-06
   -0.93206389628491090788E-07
   -0.15777142611424195464E-06
   -0.30255074203406508197E-06
   -0.29075632223298418414E-06
    0.32328364051341641073E-06
    0.32333887032259663981E-06
   -0.26339787727670185864E-06
   -0.33670228483131626834E-06
   -0.11328180684192542384E-06
   -0.11327363973714053359E-06
   -0.33648989689509111921E-06
   -0.26336084939092990493E-06
   -0.18540501779524174669E-06
   -0.35287602850792405967E-06
    0.37341068749693211186E-06
    0.37346842762751380409E-06
   -0.35292616348859626713E-06
   -0.18542602801097583096E-06
    0.16173594633439584632E-05
    0.16173274543056901869E-05
   -0.28390236859078849527E-06
   -0.28774296130472428695E-06
   -0.19529567014689208109E-06
   -0.27115428792361761925E-06
   -0.26007944334830452850E-06
   -0.35489662211301786917E-06
   -0.35488447744956067193E-06
   -0.25967951971912076361E-06
   -0.25646706334997713248E-06
   -0.18636096912875814372E-06
   -0.29641695349417174165E-06
   -0.28338323154491853753E-06
    0.32547197702713458167E-06
    0.30166739783330630995E-06
   -0.35484401257626246909E-06
   -0.25964783281151854596E-06
   -0.25168316612196971146E-06
   -0.18622683990696766406E-06
   -0.30401100377918017453E-06
   -0.28321738901952174944E-06
    0.22880632877592324379E-07
   -0.30370377362708424731E-06
   -0.82480597026484883702E-07
   -0.25162604156601560161E-06
   -0.25814910758058307220E-06
   -0.35485698933456729284E-06
    0.30636687815458066788E-06
    0.38740893344782858919E-06
   -0.18544021946585379938E-06
   -0.35294573983568646010E-06
    0.37336371237729835398E-06
   -0.20464730046478351755E-06
   -0.35356056567557498523E-06
   -0.23022275650487783748E-07
    0.11051117075229223004E-07
   -0.33735882894119329367E-06
   -0.10821605030584397363E-06
   -0.11319908417987835887E-06
   -0.33603476384037361885E-06
   -0.26336818720992647147E-06
    0.16178450333703651360E-05
    0.16171581093502713436E-05
   -0.29158901478467994279E-06
   -0.30089055049251389781E-06
   -0.15773056155627204710E-06
   -0.15769537418880731367E-06
   -0.30339401042171272360E-06
   -0.29069641484917841965E-06
   -0.33236936774871871754E-06
   -0.26750508531900441625E-06
   -0.33669557155446969135E-06
   -0.33610828351043537031E-06
   -0.26722611485433106592E-06
   -0.34078484758814099774E-06
    0.32324344403451762557E-06
    0.32305643137664183529E-06
   -0.27206594555368530219E-06
   -0.33672391683910909085E-06
   -0.78425196121538982891E-07
   -0.14582956744599828363E-06
   -0.35358084056033023791E-06
   -0.81516291902223189083E-07
    0.20997608873835023112E-07
   -0.35355806295175762108E-06
    0.31800168445781761166E-07
   -0.78361848194135479802E-07
   -0.33670171504573508555E-06
   -0.27206577826076233321E-06
    0.15090658657781488744E-05
    0.17479444256947583714E-05
   -0.29695805714020091949E-06
   -0.27594329021125329053E-06
   -0.24877310035617337629E-06
   -0.18628503756580141755E-06
   -0.30405864539686383331E-06
   -0.28339329544497397545E-06
   -0.28338299617459048654E-06
   -0.30406507895772499459E-06
   -0.18622860316987381616E-06
   -0.25154330223926880971E-06
   -0.27586109037130114738E-06
   -0.34396961221768592992E-06
    0.32403030009390614899E-06
    0.38851409769581317609E-06
   -0.18529324995454156538E-06
   -0.35313465026797525063E-06
    0.37344510465031693027E-06
    0.37347642447229692052E-06
   -0.35294522969607955139E-06
   -0.18542156309516000312E-06
   -0.26340042096495425800E-06
   -0.33646482114365779515E-06
   -0.11327473900271420430E-06
   -0.11330406222471512104E-06
   -0.33699359926673377980E-06
   -0.26344810525759172035E-06
    0.16172357878541021369E-05
    0.16176187180021937197E-05
    0.43122824372242879454E-01
    0.45211703538224498611E-01
    0.33828644919053414697E-01
    0.96885613662121405215E-02
    0.22491832922426242825E-02
    0.77183107046231843126E-05
    0.55799415258200095279E-05
    0.19562935747528247682E-02
    0.19124824587752305632E-04
    0.12307625920701015416E-02
    0.16296402801073275185E-01
    0.45215205050245801943E-01
    0.30939433809616351950E-01
    0.20015851092867947142E-01
    0.63855850095608794302E-06
   -0.33685879465284612393E-06
   -0.78581389012657877335E-07
    0.31791816401901508336E-07
   -0.35324252583123727121E-06
    0.20915908018519277498E-07
    0.20913072484680040999E-07
   -0.35387029800478144870E-06
    0.31857705566394178169E-07
   -0.76728447912174086327E-07
    0.67779860078719112656E-06
    0.60034815478068870569E-03
    0.15082664776354098891E-05
    0.17496935726276917868E-05
    0.20934607277050543005E-07
   -0.35359442812173081106E-06
    0.31824814633205212773E-07
   -0.78370663289508664138E-07
   -0.33678920188650807101E-06
   -0.27206416596980537993E-06
   -0.27206384347846369258E-06
   -0.33674848486059182815E-06
   -0.78384412642866132010E-07
    0.31818466227963926347E-07
   -0.35358906170121237424E-06
    0.20949386653344145155E-07
    0.17480831879625306943E-05
    0.15090418507023324619E-05
   -0.33888518758780094582E-06
   -0.26305949885749126954E-06
   -0.33664544093283501828E-06
    0.12687969236298160276E-07
   -0.26300733711120324865E-06
    0.62300947220059943336E-07
   -0.29071240938863178316E-06
   -0.30339796391771059348E-06
   -0.15769299683552565395E-06
   -0.15770915965560262168E-06
   -0.30204689730210886065E-06
   -0.29085273229751513247E-06
    0.32348361780991641387E-06
    0.32315244888879655985E-06
   -0.26337779681834327182E-06
   -0.33664989511329301571E-06
   -0.11327225184296723613E-06
   -0.11326803891125909912E-06
   -0.33659368174167690861E-06
   -0.26336426171812479850E-06
   -0.18541507024962085982E-06
   -0.35294260748544116291E-06
    0.37347119901574171374E-06
    0.37343002929171748733E-06
   -0.35297017888580643694E-06
   -0.18536895565816441858E-06
    0.16173219511142904360E-05
    0.16174308464656614946E-05
   -0.28332975768611283573E-06
   -0.30372597865290755644E-06
   -0.18622202125709012487E-06
   -0.53136227889656680502E-07
   -0.25805217133099728669E-06
    0.12089882563068472159E-06
   -0.35487093407058770300E-06
   -0.25851529234027545839E-06
   -0.26447768998523042684E-06
   -0.18637698135434253453E-06
   -0.30102200236026295268E-06
   -0.28334553545990099446E-06
    0.33262128561962188495E-06
    0.28719426603725466243E-06
    0.20924918796387981213E-07
   -0.35360434019558362349E-06
    0.31829355979326077412E-07
   -0.78371077585130659918E-07
   -0.33680305954173149269E-06
   -0.27206708095543074059E-06
   -0.27206529810138334911E-06
   -0.33677400300035859229E-06
   -0.78426824448764992101E-07
   -0.14582007809097897160E-06
   -0.35360769306089113102E-06
   -0.81519032918916478261E-07
    0.17481163977106764374E-05
    0.15090409050173420657E-05
   -0.33233560669399502364E-06
   -0.27442183337181958807E-06
   -0.31076198124004495262E-06
   -0.32192910889337254984E-06
   -0.27497584503755178323E-06
   -0.34150178411665945921E-06
   -0.29088322995881586713E-06
   -0.30338334580098375461E-06
   -0.15769425916412522879E-06
   -0.15769265081243761589E-06
   -0.30340717565902319605E-06
   -0.29072915287906641417E-06
    0.32468379053934304449E-06
    0.32492667000135565223E-06
   -0.26310928151142194064E-06
   -0.33660329644648808820E-06
   -0.11326613918906067002E-06
   -0.11326861527542822086E-06
   -0.33666344558627163234E-06
   -0.26336890049094759060E-06
   -0.18541300317240339697E-06
   -0.35296176119195528242E-06
    0.37346324317636271036E-06
   -0.20463983238937258623E-06
   -0.35346829302180204886E-06
   -0.23204267155952698226E-07
    0.16174092005344986332E-05
    0.16173916489904118572E-05
   -0.28333405611150816105E-06
   -0.30402985636752172988E-06
   -0.18621350073505036269E-06
   -0.25152876468232886583E-06
   -0.27329194361479704177E-06
   -0.34987438531428016040E-06
   -0.35037530686082683648E-06
   -0.27362507505128183381E-06
   -0.25151871675421414314E-06
   -0.18621036996640277230E-06
   -0.30403095205380148379E-06
   -0.28333761425630943861E-06
    0.38801520151174131961E-06
    0.32222011875916470135E-06
   -0.35312964581054294882E-06
   -0.27236069408797719736E-06
   -0.27808792804296630072E-06
    0.22773360157093533331E-06
    0.14163051591008238901E-05
    0.75124216454748528500E-03
    0.91981657380803020004E-06
   -0.28902216989691001565E-06
   -0.18651329222366682958E-06
   -0.25191747070857638858E-06
   -0.27396881932848198578E-06
   -0.35369062181156239911E-06
    0.32002512076968387763E-06
    0.32362335810843698631E-06
    0.37785464890706540152E-03
    0.13406346620370917372E-01
    0.14656666651654532904E-01
    0.37068834153411861498E-01
    0.47707821233980367281E-01
    0.36185744696932149733E-01
    0.42820344953440218905E-01
    0.49687032545741187384E-01
    0.35211255687461931463E-01
    0.11021234758502371567E-01
    0.12962628181787533288E-01
    0.30275366022075475515E-03
    0.38941748343187643222E-01
    0.47799933128582765274E-01
   -0.29072989504202680987E-06
   -0.30341445453680077637E-06
   -0.15769875456967801316E-06
   -0.15783184986528088402E-06
   -0.29864087043112665317E-06
   -0.29557864119786678797E-06
   -0.34251452141310808284E-06
   -0.27488392949448602460E-06
   -0.32090946508558796553E-06
   -0.31675105427344435012E-06
   -0.27486634950885897694E-06
   -0.33233355241612810236E-06
    0.32419158720557127609E-06
    0.32441944925309381753E-06
   -0.27210569102650176064E-06
   -0.33563398439199434880E-06
   -0.85136050104375355215E-07
    0.31523983565316832726E-07
   -0.34752156189409550299E-06
    0.67848129591317728407E-05
    0.17881556895045973374E-02
    0.87363106958953342025E-05
    0.61867709680789021066E-06
   -0.77988339530205642202E-07
   -0.33635077870361246249E-06
   -0.27212646753233573370E-06
    0.15099105628039015262E-05
    0.17509831675294786808E-05
   -0.35471419356320956526E-06
   -0.25651277956788220932E-06
   -0.25363217084939115206E-06
   -0.18623660389397338684E-06
   -0.30394774194036155515E-06
   -0.28332261685392111046E-06
   -0.28332652603799057346E-06
   -0.30394528331977024420E-06
   -0.18625325029499261814E-06
   -0.51508824567504853386E-07
   -0.25636965575011377441E-06
    0.12246819161162723125E-06
    0.27414577771589661358E-06
    0.34452989371551611122E-06
   -0.18540373931313586803E-06
   -0.35287325869285645576E-06
    0.37340758279019859494E-06
    0.37346607772314678711E-06
   -0.35289793242915046637E-06
   -0.18541984327537537583E-06
   -0.26336880612378774255E-06
   -0.33657018652345523280E-06
   -0.11327297105102131935E-06
   -0.11327118830036512523E-06
   -0.33650670639865891785E-06
   -0.26335986072894063829E-06
    0.16172785481398276305E-05
    0.16173336648998917148E-05
    0.28042786712506849973E-07
   -0.30319174311967170018E-06
   -0.93206809227712529951E-07
   -0.15775923153577046212E-06
   -0.30339847717941270668E-06
   -0.29068391939822436907E-06
   -0.33432595418143206577E-06
   -0.25988587486030600130E-06
   -0.33799395255955257242E-06
    0.14415214622405506366E-07
   -0.25874876450246351833E-06
    0.62654709790879087371E-07
    0.32406511615824786442E-06
    0.32672076089866315972E-06
    0.15804273194100238345E-07
   -0.33758858351758508313E-06
   -0.11846720996026649714E-06
    0.31974681657982778016E-07
   -0.35372964286727952622E-06
    0.20918866246923746529E-07
    0.20920400095854973013E-07
   -0.35361718219764916374E-06
    0.31768712330381851625E-07
   -0.78391886481938296255E-07
   -0.33602172637441019004E-06
   -0.27182192751655262400E-06
    0.15090722068558588796E-05
    0.17481922604332905241E-05
    0.20996412143134678583E-07
   -0.35355939173696277459E-06
    0.31799961583929542873E-07
   -0.78363553406447455353E-07
   -0.33670220206132898170E-06
   -0.27207191158336347313E-06
   -0.27207630196018735130E-06
   -0.33676288911485931247E-06
   -0.78370504102885513558E-07
    0.31816261900060563771E-07
   -0.35357835649161663786E-06
    0.20921990156722916724E-07
    0.17479584114391495746E-05
    0.15090745775302115819E-05
   -0.33236119740281710001E-06
   -0.27335932301392594949E-06
   -0.33333773091503636879E-06
   -0.33197795943214296821E-06
   -0.26713995792281502438E-06
   -0.34188237336383629922E-06
   -0.32297498697856437319E-06
   -0.28189217885097737230E-06
   -0.15840105273490671613E-06
   -0.15770322663432557558E-06
   -0.30339507473642103396E-06
   -0.29069825704344459053E-06