# vtk DataFile Version 3.0
LAPLACIEN  2D
ASCII
DATASET UNSTRUCTURED_GRID
 POINTS         481  float
   6.2500000000000000E-002  0.87500000000000000        0.0000000000000000     
  0.12500000000000000       0.87500000000000000        0.0000000000000000     
  0.12500000000000000       0.93750000000000000        0.0000000000000000     
   3.7499999999999999E-002  0.91249999999999998        0.0000000000000000     
   8.1250000000000003E-002  0.91874999999999996        0.0000000000000000     
   8.7499999999999994E-002  0.96250000000000002        0.0000000000000000     
   4.3749999999999997E-002  0.95625000000000004        0.0000000000000000     
  0.18750000000000000       0.87500000000000000        0.0000000000000000     
  0.25000000000000000       0.87500000000000000        0.0000000000000000     
  0.25000000000000000       0.93750000000000000        0.0000000000000000     
  0.16250000000000001       0.91249999999999998        0.0000000000000000     
  0.20624999999999999       0.91874999999999996        0.0000000000000000     
  0.21249999999999999       0.96250000000000002        0.0000000000000000     
  0.16875000000000001       0.95625000000000004        0.0000000000000000     
   6.2500000000000000E-002  0.75000000000000000        0.0000000000000000     
  0.12500000000000000       0.75000000000000000        0.0000000000000000     
  0.12500000000000000       0.81250000000000000        0.0000000000000000     
   3.7499999999999999E-002  0.78749999999999998        0.0000000000000000     
   8.1250000000000003E-002  0.79374999999999996        0.0000000000000000     
   8.7499999999999994E-002  0.83750000000000002        0.0000000000000000     
   4.3749999999999997E-002  0.83125000000000004        0.0000000000000000     
  0.18750000000000000       0.75000000000000000        0.0000000000000000     
  0.25000000000000000       0.75000000000000000        0.0000000000000000     
  0.25000000000000000       0.81250000000000000        0.0000000000000000     
  0.16250000000000001       0.78749999999999998        0.0000000000000000     
  0.20624999999999999       0.79374999999999996        0.0000000000000000     
  0.21249999999999999       0.83750000000000002        0.0000000000000000     
  0.16875000000000001       0.83125000000000004        0.0000000000000000     
  0.31250000000000000       0.87500000000000000        0.0000000000000000     
  0.37500000000000000       0.87500000000000000        0.0000000000000000     
  0.37500000000000000       0.93750000000000000        0.0000000000000000     
  0.28749999999999998       0.91249999999999998        0.0000000000000000     
  0.33124999999999999       0.91874999999999996        0.0000000000000000     
  0.33750000000000002       0.96250000000000002        0.0000000000000000     
  0.29375000000000001       0.95625000000000004        0.0000000000000000     
  0.43750000000000000       0.87500000000000000        0.0000000000000000     
  0.50000000000000000       0.87500000000000000        0.0000000000000000     
  0.50000000000000000       0.93750000000000000        0.0000000000000000     
  0.41249999999999998       0.91249999999999998        0.0000000000000000     
  0.45624999999999999       0.91874999999999996        0.0000000000000000     
  0.46250000000000002       0.96250000000000002        0.0000000000000000     
  0.41875000000000001       0.95625000000000004        0.0000000000000000     
  0.31250000000000000       0.75000000000000000        0.0000000000000000     
  0.37500000000000000       0.75000000000000000        0.0000000000000000     
  0.37500000000000000       0.81250000000000000        0.0000000000000000     
  0.28749999999999998       0.78749999999999998        0.0000000000000000     
  0.33124999999999999       0.79374999999999996        0.0000000000000000     
  0.33750000000000002       0.83750000000000002        0.0000000000000000     
  0.29375000000000001       0.83125000000000004        0.0000000000000000     
  0.43750000000000000       0.75000000000000000        0.0000000000000000     
  0.50000000000000000       0.75000000000000000        0.0000000000000000     
  0.50000000000000000       0.81250000000000000        0.0000000000000000     
  0.41249999999999998       0.78749999999999998        0.0000000000000000     
  0.45624999999999999       0.79374999999999996        0.0000000000000000     
  0.46250000000000002       0.83750000000000002        0.0000000000000000     
  0.41875000000000001       0.83125000000000004        0.0000000000000000     
   6.2500000000000000E-002  0.62500000000000000        0.0000000000000000     
  0.12500000000000000       0.62500000000000000        0.0000000000000000     
  0.12500000000000000       0.68750000000000000        0.0000000000000000     
   3.7499999999999999E-002  0.66249999999999998        0.0000000000000000     
   8.1250000000000003E-002  0.66874999999999996        0.0000000000000000     
   8.7499999999999994E-002  0.71250000000000002        0.0000000000000000     
   4.3749999999999997E-002  0.70625000000000004        0.0000000000000000     
  0.18750000000000000       0.62500000000000000        0.0000000000000000     
  0.25000000000000000       0.62500000000000000        0.0000000000000000     
  0.25000000000000000       0.68750000000000000        0.0000000000000000     
  0.16250000000000001       0.66249999999999998        0.0000000000000000     
  0.20624999999999999       0.66874999999999996        0.0000000000000000     
  0.21249999999999999       0.71250000000000002        0.0000000000000000     
  0.16875000000000001       0.70625000000000004        0.0000000000000000     
   6.2500000000000000E-002  0.50000000000000000        0.0000000000000000     
  0.12500000000000000       0.50000000000000000        0.0000000000000000     
  0.12500000000000000       0.56250000000000000        0.0000000000000000     
   3.7499999999999999E-002  0.53749999999999998        0.0000000000000000     
   8.1250000000000003E-002  0.54374999999999996        0.0000000000000000     
   8.7499999999999994E-002  0.58750000000000002        0.0000000000000000     
   4.3749999999999997E-002  0.58125000000000004        0.0000000000000000     
  0.18750000000000000       0.50000000000000000        0.0000000000000000     
  0.25000000000000000       0.50000000000000000        0.0000000000000000     
  0.25000000000000000       0.56250000000000000        0.0000000000000000     
  0.16250000000000001       0.53749999999999998        0.0000000000000000     
  0.20624999999999999       0.54374999999999996        0.0000000000000000     
  0.21249999999999999       0.58750000000000002        0.0000000000000000     
  0.16875000000000001       0.58125000000000004        0.0000000000000000     
  0.31250000000000000       0.62500000000000000        0.0000000000000000     
  0.37500000000000000       0.62500000000000000        0.0000000000000000     
  0.37500000000000000       0.68750000000000000        0.0000000000000000     
  0.28749999999999998       0.66249999999999998        0.0000000000000000     
  0.33124999999999999       0.66874999999999996        0.0000000000000000     
  0.33750000000000002       0.71250000000000002        0.0000000000000000     
  0.29375000000000001       0.70625000000000004        0.0000000000000000     
  0.43750000000000000       0.62500000000000000        0.0000000000000000     
  0.50000000000000000       0.62500000000000000        0.0000000000000000     
  0.50000000000000000       0.68750000000000000        0.0000000000000000     
  0.41249999999999998       0.66249999999999998        0.0000000000000000     
  0.45624999999999999       0.66874999999999996        0.0000000000000000     
  0.46250000000000002       0.71250000000000002        0.0000000000000000     
  0.41875000000000001       0.70625000000000004        0.0000000000000000     
  0.31250000000000000       0.50000000000000000        0.0000000000000000     
  0.37500000000000000       0.50000000000000000        0.0000000000000000     
  0.37500000000000000       0.56250000000000000        0.0000000000000000     
  0.28749999999999998       0.53749999999999998        0.0000000000000000     
  0.33124999999999999       0.54374999999999996        0.0000000000000000     
  0.33750000000000002       0.58750000000000002        0.0000000000000000     
  0.29375000000000001       0.58125000000000004        0.0000000000000000     
  0.43750000000000000       0.50000000000000000        0.0000000000000000     
  0.50000000000000000       0.50000000000000000        0.0000000000000000     
  0.50000000000000000       0.56250000000000000        0.0000000000000000     
  0.41249999999999998       0.53749999999999998        0.0000000000000000     
  0.45624999999999999       0.54374999999999996        0.0000000000000000     
  0.46250000000000002       0.58750000000000002        0.0000000000000000     
  0.41875000000000001       0.58125000000000004        0.0000000000000000     
  0.56250000000000000       0.87500000000000000        0.0000000000000000     
  0.62500000000000000       0.87500000000000000        0.0000000000000000     
  0.62500000000000000       0.93750000000000000        0.0000000000000000     
  0.53749999999999998       0.91249999999999998        0.0000000000000000     
  0.58125000000000004       0.91874999999999996        0.0000000000000000     
  0.58750000000000002       0.96250000000000002        0.0000000000000000     
  0.54374999999999996       0.95625000000000004        0.0000000000000000     
  0.68750000000000000       0.87500000000000000        0.0000000000000000     
  0.75000000000000000       0.87500000000000000        0.0000000000000000     
  0.75000000000000000       0.93750000000000000        0.0000000000000000     
  0.66249999999999998       0.91249999999999998        0.0000000000000000     
  0.70625000000000004       0.91874999999999996        0.0000000000000000     
  0.71250000000000002       0.96250000000000002        0.0000000000000000     
[...]
 CELL_DATA         896
 SCALARS VEGF float
 LOOKUP_TABLE default
    0.78814645495729453379E-04
    0.76017636249155317988E-04
    0.84122124841872318872E-04
    0.81358350640934652426E-04
    0.71479649788126162777E-04
    0.69271814980953323152E-04
    0.64093816214228825179E-04
    0.62547820212187878121E-04
    0.59310958828999995544E-04
    0.60176549169650178802E-04
    0.65832719101481380311E-04
    0.71680052888715249247E-04
    0.68288427819681015514E-04
    0.67107395308916046738E-04
    0.10432218436307902451E-03
    0.10624185448609200588E-03
    0.13045685279104035246E-03
    0.12788972207073670724E-03
    0.10617071260785385101E-03
    0.10614745180843705654E-03
    0.93815221529349045898E-04
    0.85455227147772922620E-04
    0.75219517221541528566E-04
    0.72597955598635252085E-04
    0.81917266370001490575E-04
    0.85809737522408031625E-04
    0.91784220052293106281E-04
    0.92296699517880264555E-04
    0.11715218262122789248E-03
    0.12189384891583729094E-03
    0.14748704890810658812E-03
    0.14949461265906214299E-03
    0.12025523272021463336E-03
    0.11088594182064640773E-03
    0.91476772301502673338E-04
    0.93146336000541211432E-04
    0.84157252202441887572E-04
    0.88502769269687664683E-04
    0.99525300946164317281E-04
    0.10628523341348212192E-03
    0.10726857708690226202E-03
    0.10609814949852571398E-03
    0.22907116517846052542E-03
    0.24642719532008884207E-03
    0.33648097296084210611E-03
    0.32512872193819059279E-03
    0.23278543181112161032E-03
    0.20274758301869216402E-03
    0.14841292469869156131E-03
    0.14778739638414610069E-03
    0.11544684065057037384E-03
    0.11913633713003388343E-03
    0.15634066143593427362E-03
    0.16775415300821473427E-03
    0.19091224112323992293E-03
    0.18763660967787557164E-03
    0.18774498364535868429E-03
    0.19298279159517991153E-03
    0.24693652811084049496E-03
    0.23649939356690553318E-03
    0.18802472807204651407E-03
    0.17988171470489287785E-03
    0.15790577011074385201E-03
    0.14370387820810448022E-03
    0.12189215644684320999E-03
    0.11504793921422203215E-03
    0.13575829732551605183E-03
    0.14106057934414701835E-03
    0.15956374951925367256E-03
    0.16005506480585381026E-03
    0.34013261108327815180E-03
    0.32051407971636820555E-03
    0.37738872270189326988E-03
    0.33333673633095540481E-03
    0.26972729774250831609E-03
    0.23390284350486022268E-03
    0.21854329322609851081E-03
    0.21820851316961634722E-03
    0.19554042579581168318E-03
    0.19212229694645982709E-03
    0.23244021644474701705E-03
    0.25738269315735856115E-03
    0.25973469338808253702E-03
    0.25020279522765817917E-03
    0.53337912104914559155E-03
    0.53117532275499845015E-03
    0.70427759422143009719E-03
    0.64939574875053920292E-03
    0.46586375714375216281E-03
    0.39353182558591340507E-03
    0.28658329014864445360E-03
    0.28971874855484674961E-03
    0.21467899780315183702E-03
    0.22459541169619868465E-03
    0.32262612853503961057E-03
    0.36870637106595346641E-03
    0.39689246274854481263E-03
    0.38260348873539814932E-03
    0.95008517616178788344E-03
    0.86639764972558386009E-03
    0.10224817488466684829E-02
    0.88723618332979070720E-03
    0.68326683568546524566E-03
    0.54084608399074913469E-03
    0.43698833751921025087E-03
    0.48481510375206942134E-03
    0.39194523704079513001E-03
    0.42543443146872726235E-03
    0.59036242294750946365E-03
    0.70341551810913468309E-03
    0.66873436066231266208E-03
    0.62675395447968124032E-03
    0.16201761963083175563E-03
    0.18221332451554502255E-03
    0.23642465233759247080E-03
    0.26380491454505017443E-03
    0.20964440034472971229E-03
    0.21490894884775412084E-03
    0.16140583603395082610E-03
    0.14737729933572094607E-03
    0.12350357145608870731E-03
    0.12516703340583620560E-03
    0.14065649051025073328E-03
    0.14466491559764690380E-03
    0.16162379953900448261E-03
    0.16662698072278381289E-03
    0.43538687049310246819E-03
    0.54186633383786274136E-03
    0.76002919520457728510E-03
    0.81504285335450585379E-03
    0.60609695918332475925E-03
    0.56800484117312864760E-03
    0.39347367241326371926E-03
    0.36502019945931595121E-03
    0.25724605556610232078E-03
    0.24765286629752216807E-03
    0.33297331452949340469E-03
    0.31519619785746116414E-03
    0.44538613021986064562E-03
    0.45948615319092196837E-03
    0.20824572085416064699E-03
    0.23482123666694241192E-03
    0.29206037439737434196E-03
    0.33922824731145561489E-03
    0.29215359827893558169E-03
    0.33454302258865726161E-03
    0.25001775095978036453E-03
    0.21021179986479676238E-03
    0.16940170162495785328E-03
    0.16861115218228431398E-03
    0.18828755542851452346E-03
    0.19105152031221282749E-03
    0.21774532873316201236E-03
    0.22925366742120929136E-03
    0.50392895062447535474E-03
    0.68998609136610821856E-03
    0.92752433810326250126E-03
    0.11322535011501994127E-02
    0.97194970476654899468E-03
    0.11112506951836660998E-02
    0.82069622387385163069E-03
    0.65752755785228604764E-03
    0.46009168742771732602E-03
    0.39888445762614440152E-03
    0.48337745117833731592E-03
    0.40317052248191065930E-03
    0.65503234709265111511E-03
    0.72219792108943372654E-03
    0.13018687067368149828E-02
    0.14328652099158303412E-02
    0.18905114586295834137E-02
    0.18234397710765379557E-02
    0.13494699780158495722E-02
    0.11429727111557535547E-02
    0.83337317455919055278E-03
    0.85167538064036501892E-03
    0.62365132495480223897E-03
    0.64426597285381149213E-03
    0.90437679998491438821E-03
    0.94878181778952337764E-03
    0.11322988387291647947E-02
    0.11118215206543952817E-02
    0.26964207862310496031E-02
    0.24891933347105459594E-02
    0.30069896331450670333E-02
    0.25697908960304605142E-02
    0.19329311745205544036E-02
    0.14937387729572011632E-02
    0.11971025872811969989E-02
    0.13561117225434381802E-02
    0.11089465731849571569E-02
    0.12244984349771457447E-02
    0.16841346000839127906E-02
    0.19945817569058119437E-02
    0.18988442044362730411E-02
    0.17696862548282849079E-02
    0.17262417700688364921E-02
    0.23493786826709306924E-02
    0.32321956278324290475E-02
    0.38349695635994268152E-02
    0.29683372711068055534E-02
    0.29299305283007042594E-02
    0.21442836778324150630E-02
    0.19336135813633411901E-02
    0.14196593154828058767E-02
    0.13033791224200609767E-02
    0.16025477150917399015E-02
    0.13633427386857412903E-02
    0.21224611661100714101E-02
    0.22618742614256871770E-02
    0.64750600661308372816E-02
    0.72650417957904472877E-02
    0.83537738485496594587E-02
    0.78790706172184275802E-02
    0.61527192940149036393E-02
    0.45910911448280231073E-02
    0.35869921701981071285E-02
    0.41402169437188933443E-02
    0.31425808482341372960E-02
    0.33158674167267903482E-02
    0.47406006303934164828E-02
    0.46991776816472912576E-02
    0.59698498975782384596E-02
    0.56812977336497087755E-02
    0.39621000729914715660E-03
    0.32118061328752158141E-03
    0.32178811126749748374E-03
    0.26193642523666943846E-03
    0.22847084080345340441E-03
    0.18717065824030187688E-03
    0.19323298897628920449E-03
    0.21630504229126968534E-03
    0.22022959876701557859E-03
    0.23345437963843680782E-03
    0.27241215136524963257E-03
    0.33382438178467687849E-03
    0.26533282143864959056E-03
    0.24342436626199754333E-03
    0.25678405658084019203E-03
    0.19353743028982639388E-03
    0.17735199035551573832E-03
    0.14311359492151572051E-03
    0.13282280928265786544E-03
    0.11093742010311757494E-03
    0.12043601130793361734E-03
    0.14073319049075276544E-03
    0.15722122650598113086E-03
    0.17454264089544166720E-03
    0.18848214481396511591E-03
    0.24167975733302299595E-03
    0.16644004871344751347E-03
    0.15067840186862185869E-03
    0.10748585484876239590E-02
    0.86560536238839498515E-03
    0.89123758804600817368E-03
    0.71271564068763981845E-03
    0.57539596521423679986E-03
    0.41160683649228924303E-03
    0.37210186611282621439E-03
    0.47998544997352029715E-03
    0.45716238863533159662E-03
    0.53951527161426977245E-03
    0.69302928480767858870E-03
    0.88794043614281233535E-03
    0.68196343848951851505E-03
    0.60809519377898343072E-03
    0.73697893880249527344E-03
    0.53072222739155769638E-03
    0.49605280730107492119E-03
    0.37583829757241091468E-03
    0.31179029335209852095E-03
    0.21493062005420115698E-03
    0.20340926854518523816E-03
    0.28227717684927886802E-03
    0.29646281676784161504E-03
    0.37846843173569712877E-03
    0.46946996394025322088E-03
    0.66056934625350889438E-03
    0.41564141495684418185E-03
    0.35647818297193385306E-03
    0.13408808491667658985E-03
    0.10590508084720697739E-03
    0.99429190947863355598E-04
    0.85774890025430345123E-04
    0.80164699257755011523E-04
    0.70553063743007359801E-04
    0.74118156366284338723E-04
    0.83565008253113663901E-04
    0.92610927204280879110E-04
    0.10204602551150396598E-03
    0.10564295003409970462E-03
    0.13025528410272403158E-03
    0.94449851077124495624E-04
    0.87524119172631572282E-04
    0.85204146253088937205E-04
    0.75238857701020152107E-04
    0.75987808647760694044E-04
    0.70689159001922509244E-04
    0.64501309502826075859E-04
    0.59360494949299096284E-04
    0.58267913205191604223E-04
    0.61476931166666999281E-04
    0.63338525546606297130E-04
    0.67254657577870590379E-04
    0.70911105483265513428E-04
    0.81427673369379439364E-04
    0.68248377396270797361E-04
    0.65295215876140616745E-04
    0.34956349475860078830E-03
    0.24678313813699916590E-03
    0.21691573175494722396E-03
    0.17096129809779532765E-03
    0.15150459936581265577E-03
    0.11501135999315179818E-03
    0.11023335858716275704E-03
    0.14348007331293479924E-03
    0.15195068657933760692E-03
    0.19307383885134129413E-03
    0.23368920559491203098E-03
    0.33351539640195449529E-03
    0.20079131053262771101E-03
    0.17383019430159934028E-03
    0.14965580345248729699E-03
    0.12135108087366473675E-03
    0.11385329772341510376E-03
    0.10529043570040020044E-03
    0.97290935755715602122E-04
    0.87067470567557588164E-04
    0.81233759434209338842E-04
    0.91244722701698286285E-04
    0.92473255604837080891E-04
    0.10695007617150818541E-03
    0.12004424908855668380E-03
    0.15283823973728745188E-03
    0.10931330559360737369E-03
    0.10166181916974767431E-03
    0.31631780965042724518E-02
    0.24797944264517658361E-02
    0.25149462547156575289E-02
    0.20105387750213752837E-02
    0.16337246779785541840E-02
    0.11847581184165497346E-02
    0.10451451926843412839E-02
    0.13381828836651439227E-02
    0.12523609193722715603E-02
    0.14889604614447932932E-02
    0.19583999954230824937E-02
    0.25692284265705260873E-02
    0.19295918573041298451E-02
    0.17152476781320390598E-02
    0.19387841035854870130E-02
    0.14322619906044838523E-02
    0.12451940705234402010E-02
    0.98016437900819868879E-03
    0.87605935312216225760E-03
    0.61021375698581503504E-03
    0.58405934455987027279E-03
    0.82683384308796382522E-03
    0.86550395553490965753E-03
    0.11002003320562004241E-02
    0.13504065046066001700E-02
    0.18451070438081015879E-02
    0.11880573671928227643E-02
    0.10294788671854312231E-02
    0.84048619998593927793E-02
    0.71972685120516768226E-02
    0.63498184596541022359E-02
    0.49205441377494435820E-02
    0.44489706703117739769E-02
    0.31181929142569241725E-02
    0.29355887918200243049E-02
    0.40028418761550417851E-02
    0.37434682792038837668E-02
    0.45571732880033185425E-02
    0.61596037569878903800E-02
    0.78461558419996770691E-02
    0.60544558757299358695E-02
    0.52981828319970704355E-02
    0.32240792599349471850E-02
    0.23763754745550155247E-02
    0.17296068304750360310E-02
    0.14376740618513410026E-02
    0.15761484642623159631E-02
    0.12236576089109838742E-02
    0.13641173111673357988E-02
    0.18732699359662030852E-02
    0.21877327214485232758E-02
    0.27603692198523589046E-02
    0.29758213639381157767E-02
    0.40586346574953335517E-02
    0.23181943214422417315E-02
    0.20408354252014690444E-02
    0.77029260265806765925E-03
    0.54518908133778802745E-03
    0.42212089277810361902E-03
    0.32942430297625203322E-03
    0.32408353455147846049E-03
    0.23373532956174903610E-03
    0.24486204062139273890E-03
    0.35289537457368585875E-03
    0.40590038543923570406E-03
    0.53521621327468754930E-03
    0.60673237791241470436E-03
    0.84710347811427840359E-03
    0.48316217402416132597E-03
    0.41344994313077495281E-03
    0.23876382904335801587E-03
    0.18302536824733485065E-03
    0.15828371268192259350E-03
    0.14424229638784074898E-03
    0.13807542083039807141E-03
    0.12310859016759497062E-03
    0.12029948081424774527E-03
    0.14389228728624157321E-03
    0.16316863231266424440E-03
    0.20210478889655028719E-03
    0.20970231753819807991E-03
    0.27763039203511656518E-03
    0.17089888564092789317E-03
    0.15481225741297265910E-03
    0.91869403764914862008E-03
    0.70093774857180567162E-03
    0.50482952949466516901E-03
    0.42415281397902368380E-03
    0.47926015056450993164E-03
    0.37397957561679856173E-03
    0.44884086553725546656E-03
    0.63910147739472205307E-03
    0.82878745352077507098E-03
    0.10380796993369788631E-02
    0.96959375920717416359E-03
    0.12028425298453541969E-02
    0.72552004384111130290E-03
    0.64466749278859413700E-03
    0.29285451995475676604E-03
    0.23738122001797486377E-03
    0.20616702658172336065E-03
    0.19195764302268929972E-03
    0.18683778775534478820E-03
    0.16670684269482852224E-03
    0.16614659428635113235E-03
    0.20607365128847476084E-03
    0.25137089898380157206E-03
    0.31176354752478728505E-03
    0.29178586318441237417E-03
    0.35890044461823946559E-03
    0.23256846546092024104E-03
    0.21274167318045047190E-03
    0.20144060103973501340E-03
    0.22873855047993895328E-03
    0.25567088557106547710E-03
    0.29869382366786665370E-03
    0.29194305510101594683E-03
    0.34975509524453544507E-03
    0.29236618686488067805E-03
    0.24570855924025244077E-03
    0.21227433419217253230E-03
    0.20784371162091530680E-03
    0.21341414488352221249E-03
    0.20364627339482097761E-03
    0.23368934903962408568E-03
    0.24749543337152971707E-03
    0.37856911416970340884E-03
    0.52440092501517649674E-03
    0.66157218236552039082E-03
    0.85346294304304072022E-03
    0.83728927168240266203E-03
    0.11117919583886236648E-02
    0.90484565015210331133E-03
    0.65746597367363226148E-03
    0.49346792297763153543E-03
    0.40660057956853673435E-03
    0.42990660078075693031E-03
    0.34006026178998242622E-03
    0.55388602196408459263E-03
    0.63258468751655231536E-03
    0.12495130316907840048E-03
    0.15083087953168971174E-03
    0.16098448632353819167E-03
    0.19360134484100371207E-03
    0.20712766147682411841E-03
    0.25748731528817169270E-03
    0.24264395185639409352E-03
    0.20317155190352690470E-03
    0.19284676747250114920E-03
    0.17874401803027662101E-03
    0.16125262246359221992E-03
    0.13768407870582181299E-03
    0.17022987442824044093E-03
    0.18459455274409200813E-03
    0.22807451883989618879E-03
    0.30930638875277755104E-03
    0.36502278440827157528E-03
    0.46371836038943265975E-03
    0.49563041965600227335E-03
    0.68278453139013987189E-03
    0.60939102246034156356E-03
    0.43739640922258799698E-03
    0.35389138559980729644E-03
    0.28945528968367156743E-03
    0.28099525278564395489E-03
    0.21676821276081024016E-03
    0.34414043264804119451E-03
    0.39389661217497219745E-03
    0.11752809886668505457E-02
    0.17574891800124863538E-02
    0.22307915236353692036E-02
    0.29897209911552142907E-02
    0.30351783848198404109E-02
    0.42119259421467356713E-02
    0.32463197753956354007E-02
    0.23203781211121074328E-02
    0.16910380536857463462E-02
    0.13424984065310010487E-02
    0.14207099541346645405E-02
    0.10290191917757696843E-02
    0.19153896189030485825E-02
    0.22325117390434314445E-02
    0.38376835694785399987E-02
    0.58125854842108340761E-02
    0.61088332315016244389E-02
    0.75480845368916475030E-02
    0.84995098620737185441E-02
    0.90158818491015632612E-02
    0.86482929655933467317E-02
    0.80500300994501353125E-02
    0.65681186564874845593E-02
    0.52220350863617683024E-02
    0.53829642781383435848E-02
    0.36206318266201013845E-02
    0.70235183186442380274E-02
    0.78527099082097290283E-02
    0.55792313813453581033E-03
    0.79679428817928900017E-03
    0.89435690675328726948E-03
    0.11837509830370613814E-02
    0.14146029585972220467E-02
    0.20803750598469197136E-02
    0.19762965290698662583E-02
    0.13417608473603559287E-02
    0.10649005608754128719E-02
    0.80935045860636243426E-03
    0.76092192622578293509E-03
    0.53788622324674130373E-03
    0.95731688594526587362E-03
    0.11318584642793867636E-02
    0.11836402616979091289E-02
    0.16604368309687702991E-02
    0.15349782168508786101E-02
    0.19632653859982382091E-02
    0.27980221735509880863E-02
    0.39557271053010491582E-02
    0.50337927802364410348E-02
    0.35647924627789126344E-02
    0.32806363135140393511E-02
    0.24331792606574575814E-02
    0.20047435165164080063E-02
    0.13319625844972760031E-02
    0.22662565975457627833E-02
    0.26619089327313137823E-02
    0.65738643427468002978E-04
    0.80236825159610381344E-04
    0.87609594792906639814E-04
    0.10697108624929472359E-03
    0.11612855718015888714E-03
    0.15071411302318551756E-03
    0.14720211197212737541E-03
    0.11704983240885229320E-03
    0.11296196419782586126E-03
    0.99252676143160765651E-04
    0.85671343593575060042E-04
    0.71058450748296106175E-04
    0.91544662858453486310E-04
    0.10134784409241317084E-03
    0.12607396904011148372E-03
    0.16944742053742978217E-03
    0.19106451062976735037E-03
    0.23493758518847331204E-03
    0.26013934090836549930E-03
    0.34491583846939444713E-03
    0.33106156247340005764E-03
    0.24632461287844490240E-03
    0.20908277142106054965E-03
    0.16942290245229211327E-03
    0.15999185608707634397E-03
    0.12070037120311012657E-03
    0.19226081967614738343E-03
    0.21813990679726301728E-03
    0.50510686500148722520E-04
    0.55408710671817091719E-04
    0.61807259786864803593E-04
    0.68639698202714087235E-04
    0.69214951062178587836E-04
    0.84519676362986785232E-04
    0.80671439634381200624E-04
    0.65238883527542632849E-04
    0.60761558974448030368E-04
    0.55374954500280384605E-04
    0.52812396353900609505E-04
    0.49580772211781209816E-04
    0.56768491624721553106E-04
    0.60576495423552507904E-04
    0.83387781101836849621E-04
    0.99659820483102170663E-04
    0.11270864688340229175E-03
    0.12587711718246396946E-03
    0.13470908971944698740E-03
    0.16944284022725803114E-03
    0.17228655440806360326E-03
    0.13210564170310895430E-03
    0.11525315582721631317E-03
    0.94596236776509464361E-04
    0.91387044137211989993E-04
    0.75676801319073119735E-04
    0.10651343425175718112E-03
    0.11765026506495300550E-03
    0.24817888327167866554E-03
    0.31895522529991934390E-03
    0.31733977480682089420E-03
    0.38819638841532837833E-03
    0.49402328072109806967E-03
    0.68830093366416494980E-03
    0.76166963887262068792E-03
    0.55157132094222456001E-03
    0.49395408995427580665E-03
    0.39012847990201466849E-03
    0.34662116187645259117E-03
    0.25914776077071085018E-03
    0.39219873076418832565E-03
    0.44744389863401052556E-03
    0.33986279573697465066E-03
    0.42860626616925649865E-03
    0.37952308642636133898E-03
    0.46436352608677242473E-03
    0.66396317926760526230E-03
    0.93037758864535568485E-03
    0.12350151827850261617E-02
    0.92282229657493692644E-03
    0.97213652697256320613E-03
    0.74750767443842645009E-03
    0.57123365904020010925E-03
    0.40692040473082449802E-03
    0.58161194869059537269E-03