# vtk DataFile Version 3.0
LAPLACIEN  2D
ASCII
DATASET UNSTRUCTURED_GRID
 POINTS         481  float
   6.2500000000000000E-002  0.87500000000000000        0.0000000000000000     
  0.12500000000000000       0.87500000000000000        0.0000000000000000     
  0.12500000000000000       0.93750000000000000        0.0000000000000000     
   3.7499999999999999E-002  0.91249999999999998        0.0000000000000000     
   8.1250000000000003E-002  0.91874999999999996        0.0000000000000000     
   8.7499999999999994E-002  0.96250000000000002        0.0000000000000000     
   4.3749999999999997E-002  0.95625000000000004        0.0000000000000000     
  0.18750000000000000       0.87500000000000000        0.0000000000000000     
  0.25000000000000000       0.87500000000000000        0.0000000000000000     
  0.25000000000000000       0.93750000000000000        0.0000000000000000     
  0.16250000000000001       0.91249999999999998        0.0000000000000000     
  0.20624999999999999       0.91874999999999996        0.0000000000000000     
  0.21249999999999999       0.96250000000000002        0.0000000000000000     
  0.16875000000000001       0.95625000000000004        0.0000000000000000     
   6.2500000000000000E-002  0.75000000000000000        0.0000000000000000     
  0.12500000000000000       0.75000000000000000        0.0000000000000000     
  0.12500000000000000       0.81250000000000000        0.0000000000000000     
   3.7499999999999999E-002  0.78749999999999998        0.0000000000000000     
   8.1250000000000003E-002  0.79374999999999996        0.0000000000000000     
   8.7499999999999994E-002  0.83750000000000002        0.0000000000000000     
   4.3749999999999997E-002  0.83125000000000004        0.0000000000000000     
  0.18750000000000000       0.75000000000000000        0.0000000000000000     
  0.25000000000000000       0.75000000000000000        0.0000000000000000     
  0.25000000000000000       0.81250000000000000        0.0000000000000000     
  0.16250000000000001       0.78749999999999998        0.0000000000000000     
  0.20624999999999999       0.79374999999999996        0.0000000000000000     
  0.21249999999999999       0.83750000000000002        0.0000000000000000     
  0.16875000000000001       0.83125000000000004        0.0000000000000000     
  0.31250000000000000       0.87500000000000000        0.0000000000000000     
  0.37500000000000000       0.87500000000000000        0.0000000000000000     
  0.37500000000000000       0.93750000000000000        0.0000000000000000     
  0.28749999999999998       0.91249999999999998        0.0000000000000000     
  0.33124999999999999       0.91874999999999996        0.0000000000000000     
  0.33750000000000002       0.96250000000000002        0.0000000000000000     
  0.29375000000000001       0.95625000000000004        0.0000000000000000     
  0.43750000000000000       0.87500000000000000        0.0000000000000000     
  0.50000000000000000       0.87500000000000000        0.0000000000000000     
  0.50000000000000000       0.93750000000000000        0.0000000000000000     
  0.41249999999999998       0.91249999999999998        0.0000000000000000     
  0.45624999999999999       0.91874999999999996        0.0000000000000000     
  0.46250000000000002       0.96250000000000002        0.0000000000000000     
  0.41875000000000001       0.95625000000000004        0.0000000000000000     
  0.31250000000000000       0.75000000000000000        0.0000000000000000     
  0.37500000000000000       0.75000000000000000        0.0000000000000000     
  0.37500000000000000       0.81250000000000000        0.0000000000000000     
  0.28749999999999998       0.78749999999999998        0.0000000000000000     
  0.33124999999999999       0.79374999999999996        0.0000000000000000     
  0.33750000000000002       0.83750000000000002        0.0000000000000000     
  0.29375000000000001       0.83125000000000004        0.0000000000000000     
  0.43750000000000000       0.75000000000000000        0.0000000000000000     
  0.50000000000000000       0.75000000000000000        0.0000000000000000     
  0.50000000000000000       0.81250000000000000        0.0000000000000000     
  0.41249999999999998       0.78749999999999998        0.0000000000000000     
  0.45624999999999999       0.79374999999999996        0.0000000000000000     
  0.46250000000000002       0.83750000000000002        0.0000000000000000     
  0.41875000000000001       0.83125000000000004        0.0000000000000000     
   6.2500000000000000E-002  0.62500000000000000        0.0000000000000000     
  0.12500000000000000       0.62500000000000000        0.0000000000000000     
  0.12500000000000000       0.68750000000000000        0.0000000000000000     
   3.7499999999999999E-002  0.66249999999999998        0.0000000000000000     
   8.1250000000000003E-002  0.66874999999999996        0.0000000000000000     
   8.7499999999999994E-002  0.71250000000000002        0.0000000000000000     
   4.3749999999999997E-002  0.70625000000000004        0.0000000000000000     
  0.18750000000000000       0.62500000000000000        0.0000000000000000     
  0.25000000000000000       0.62500000000000000        0.0000000000000000     
  0.25000000000000000       0.68750000000000000        0.0000000000000000     
  0.16250000000000001       0.66249999999999998        0.0000000000000000     
  0.20624999999999999       0.66874999999999996        0.0000000000000000     
  0.21249999999999999       0.71250000000000002        0.0000000000000000     
  0.16875000000000001       0.70625000000000004        0.0000000000000000     
   6.2500000000000000E-002  0.50000000000000000        0.0000000000000000     
  0.12500000000000000       0.50000000000000000        0.0000000000000000     
  0.12500000000000000       0.56250000000000000        0.0000000000000000     
   3.7499999999999999E-002  0.53749999999999998        0.0000000000000000     
   8.1250000000000003E-002  0.54374999999999996        0.0000000000000000     
   8.7499999999999994E-002  0.58750000000000002        0.0000000000000000     
   4.3749999999999997E-002  0.58125000000000004        0.0000000000000000     
  0.18750000000000000       0.50000000000000000        0.0000000000000000     
  0.25000000000000000       0.50000000000000000        0.0000000000000000     
  0.25000000000000000       0.56250000000000000        0.0000000000000000     
  0.16250000000000001       0.53749999999999998        0.0000000000000000     
  0.20624999999999999       0.54374999999999996        0.0000000000000000     
  0.21249999999999999       0.58750000000000002        0.0000000000000000     
  0.16875000000000001       0.58125000000000004        0.0000000000000000     
  0.31250000000000000       0.62500000000000000        0.0000000000000000     
  0.37500000000000000       0.62500000000000000        0.0000000000000000     
  0.37500000000000000       0.68750000000000000        0.0000000000000000     
  0.28749999999999998       0.66249999999999998        0.0000000000000000     
  0.33124999999999999       0.66874999999999996        0.0000000000000000     
  0.33750000000000002       0.71250000000000002        0.0000000000000000     
  0.29375000000000001       0.70625000000000004        0.0000000000000000     
  0.43750000000000000       0.62500000000000000        0.0000000000000000     
  0.50000000000000000       0.62500000000000000        0.0000000000000000     
  0.50000000000000000       0.68750000000000000        0.0000000000000000     
  0.41249999999999998       0.66249999999999998        0.0000000000000000     
  0.45624999999999999       0.66874999999999996        0.0000000000000000     
  0.46250000000000002       0.71250000000000002        0.0000000000000000     
  0.41875000000000001       0.70625000000000004        0.0000000000000000     
  0.31250000000000000       0.50000000000000000        0.0000000000000000     
  0.37500000000000000       0.50000000000000000        0.0000000000000000     
  0.37500000000000000       0.56250000000000000        0.0000000000000000     
  0.28749999999999998       0.53749999999999998        0.0000000000000000     
  0.33124999999999999       0.54374999999999996        0.0000000000000000     
  0.33750000000000002       0.58750000000000002        0.0000000000000000     
  0.29375000000000001       0.58125000000000004        0.0000000000000000     
  0.43750000000000000       0.50000000000000000        0.0000000000000000     
  0.50000000000000000       0.50000000000000000        0.0000000000000000     
  0.50000000000000000       0.56250000000000000        0.0000000000000000     
  0.41249999999999998       0.53749999999999998        0.0000000000000000     
  0.45624999999999999       0.54374999999999996        0.0000000000000000     
  0.46250000000000002       0.58750000000000002        0.0000000000000000     
  0.41875000000000001       0.58125000000000004        0.0000000000000000     
  0.56250000000000000       0.87500000000000000        0.0000000000000000     
  0.62500000000000000       0.87500000000000000        0.0000000000000000     
  0.62500000000000000       0.93750000000000000        0.0000000000000000     
  0.53749999999999998       0.91249999999999998        0.0000000000000000     
  0.58125000000000004       0.91874999999999996        0.0000000000000000     
  0.58750000000000002       0.96250000000000002        0.0000000000000000     
  0.54374999999999996       0.95625000000000004        0.0000000000000000     
  0.68750000000000000       0.87500000000000000        0.0000000000000000     
  0.75000000000000000       0.87500000000000000        0.0000000000000000     
  0.75000000000000000       0.93750000000000000        0.0000000000000000     
  0.66249999999999998       0.91249999999999998        0.0000000000000000     
  0.70625000000000004       0.91874999999999996        0.0000000000000000     
  0.71250000000000002       0.96250000000000002        0.0000000000000000     
[...]
 CELL_DATA         896
 SCALARS VEGF float
 LOOKUP_TABLE default
    0.73101746182132853856E-05
    0.69772317564895980469E-05
    0.76175400287784904649E-05
    0.72707930857213715065E-05
    0.64158157612199282358E-05
    0.61142259682438074384E-05
    0.57488106975108744414E-05
    0.57156413473446298823E-05
    0.54918383414549792394E-05
    0.55911131489209268047E-05
    0.61074517790353357401E-05
    0.66677820427756193914E-05
    0.62973336799227438499E-05
    0.61528066895601638551E-05
    0.92137705764580599355E-05
    0.92222097580703668530E-05
    0.11311868359529017982E-04
    0.10948733039296380199E-04
    0.90336791277839668913E-05
    0.89676797089522058536E-05
    0.79307999238239015194E-05
    0.72874960940625539325E-05
    0.64901646929490940213E-05
    0.63349494236397711148E-05
    0.71331034317646613226E-05
    0.75948709500575742968E-05
    0.79066753407587203931E-05
    0.79023816429142314981E-05
    0.10924566317876176894E-04
    0.11372560602041985081E-04
    0.13858483114696388888E-04
    0.13966161705508278745E-04
    0.11096152441263322549E-04
    0.10061037405889121965E-04
    0.83138853184922138420E-05
    0.85845556167302498435E-05
    0.78110705069603371625E-05
    0.82264627156792055330E-05
    0.92518296478737303194E-05
    0.98900365014046195098E-05
    0.99773085596005332154E-05
    0.98394371978361988839E-05
    0.22157824015905851163E-04
    0.23693427815192189039E-04
    0.33534403734962760202E-04
    0.31680283220257076467E-04
    0.21674079747772058722E-04
    0.18184536551314568818E-04
    0.13044674752304922242E-04
    0.13237776235377504794E-04
    0.10285612069305385751E-04
    0.10765761984883128903E-04
    0.14406817761371677441E-04
    0.15754830185942501219E-04
    0.17722366746985056333E-04
    0.17255552724405866466E-04
    0.16272863298706429858E-04
    0.16542634201400886816E-04
    0.21322198246088165495E-04
    0.20259327446352622332E-04
    0.16079356797558759295E-04
    0.15505537565559701402E-04
    0.13557095911743959483E-04
    0.12240643560102086739E-04
    0.10315127981218796547E-04
    0.97222652359865564901E-05
    0.11530453123776342403E-04
    0.12067581808062178525E-04
    0.13591454300120450673E-04
    0.13635950321400537390E-04
    0.29618037530544664624E-04
    0.27705718358041921795E-04
    0.32825594561908426404E-04
    0.28787157803775987837E-04
    0.23407867044463754192E-04
    0.20509328706210192954E-04
    0.19231291506239136353E-04
    0.19065797647613085089E-04
    0.17033038620781646376E-04
    0.16627951269624840981E-04
    0.20035414897512007483E-04
    0.22104555500843617733E-04
    0.22479901068492152158E-04
    0.21718601071607306595E-04
    0.57310604084034983091E-04
    0.55526702353014767367E-04
    0.79112233814535113524E-04
    0.68493798651870775292E-04
    0.45105630171367348065E-04
    0.35733496898759502811E-04
    0.25169047389517829126E-04
    0.26069071675624712049E-04
    0.18898516610994937068E-04
    0.20183593131115982463E-04
    0.30545478169363933561E-04
    0.36566024653519082739E-04
    0.38303096145876669757E-04
    0.36164535458565549939E-04
    0.11635972663399641008E-03
    0.97566943569945939344E-04
    0.12395643167119004859E-03
    0.97234638727177415585E-04
    0.67548736917846498523E-04
    0.49448214305041369109E-04
    0.38644582958926612887E-04
    0.44138270566063155507E-04
    0.34723646987275196105E-04
    0.38750291333214097341E-04
    0.58237344598248087432E-04
    0.75618629512948774309E-04
    0.67120850580866233065E-04
    0.60814150532145861750E-04
    0.15431992638504337382E-04
    0.17662785678851098320E-04
    0.23668624608080549623E-04
    0.26814256230929250105E-04
    0.20588641529439261855E-04
    0.20993690711366781498E-04
    0.15330316572471240822E-04
    0.13947586135855069046E-04
    0.11550629782556840131E-04
    0.11714585955352989564E-04
    0.13279080651578012591E-04
    0.13656847993953517034E-04
    0.15459069998532769903E-04
    0.15981621749106486043E-04
    0.48897070379527180623E-04
    0.63697872035154613920E-04
    0.98491097579243272377E-04
    0.10714474244785666924E-03
    0.71585521313784702155E-04
    0.64227106960125821900E-04
    0.40874311929770244009E-04
    0.38018730169306169761E-04
    0.25408596029293707848E-04
    0.24561913449123023301E-04
    0.34879459822738515852E-04
    0.33051999012153389932E-04
    0.49105060945986780951E-04
    0.50696543115750883378E-04
    0.19949540261445499942E-04
    0.23275336236579757099E-04
    0.30409700355979820720E-04
    0.36929328278956127492E-04
    0.30531749254921726423E-04
    0.35901971318252806132E-04
    0.25337080945843440540E-04
    0.20690302695982425298E-04
    0.16180415416288422483E-04
    0.16012763313833397021E-04
    0.18025542729799769285E-04
    0.18131040197038538034E-04
    0.21383543321756951243E-04
    0.22811831736896782361E-04
    0.63399052924229269733E-04
    0.97357598364666622366E-04
    0.15123967116563918553E-03
    0.20237007500358177091E-03
    0.15248323897690813761E-03
    0.17900392160891310687E-03
    0.11231996301285480998E-03
    0.84759013180268094633E-04
    0.52891428441112251315E-04
    0.44559717180978847891E-04
    0.58174908463192424738E-04
    0.46380937146393987980E-04
    0.87219914446417317016E-04
    0.99053656066052072683E-04
    0.21963543111418065723E-03
    0.25509310192241345340E-03
    0.40911068691671124758E-03
    0.37477692811045768689E-03
    0.22442608492033089469E-03
    0.16415095968903004584E-03
    0.10243533557132019317E-03
    0.10927144639672519886E-03
    0.70986710708101840792E-04
    0.75417185495488991065E-04
    0.12280577170233972629E-03
    0.13407160766425567648E-03
    0.17082509823950064597E-03
    0.16435260804121480487E-03
    0.79768940478895102811E-03
    0.65777789953235465091E-03
    0.92944050744115758005E-03
    0.66353808679246869488E-03
    0.39366895307872429863E-03
    0.23974306512423667649E-03
    0.16321291482493353463E-03
    0.20946620065404950440E-03
    0.14980501079985531995E-03
    0.18168671454589645936E-03
    0.32030038708170466754E-03
    0.44699521099274139779E-03
    0.39087304764303683726E-03
    0.33725629163290789768E-03
    0.42489406276160189297E-03
    0.70711347774440327322E-03
    0.12328340467715967217E-02
    0.16320560688735425044E-02
    0.10279131865554669116E-02
    0.96722823615820116561E-03
    0.53240818148801325946E-03
    0.45069387854041451959E-03
    0.25839038980052399632E-03
    0.22949630193650478300E-03
    0.34503652131273148925E-03
    0.27525856231154174382E-03
    0.55940106748182433401E-03
    0.62071376344961044693E-03
    0.30297782033083422819E-02
    0.34190527499564598961E-02
    0.40641960560301110608E-02
    0.38718569238411588637E-02
    0.29669236474853038707E-02
    0.20294470900881081757E-02
    0.13288871321013515092E-02
    0.17502326233296411611E-02
    0.10818853625979216182E-02
    0.12140850378552408076E-02
    0.21249279770054344332E-02
    0.21349057408799401725E-02
    0.27699819541997711993E-02
    0.26443016890450006876E-02
    0.34507784362298906918E-04
    0.27707826219210802358E-04
    0.27806824715120056194E-04
    0.22431045632109703028E-04
    0.19669152663911217285E-04
    0.16160741869684297023E-04
    0.16839390448929650161E-04
    0.18892447409199950682E-04
    0.19368164346382763560E-04
    0.20472555560783866339E-04
    0.23619928348777004208E-04
    0.28820729819404666496E-04
    0.22960817408942575804E-04
    0.21090155470395871584E-04
    0.22121381632826215359E-04
    0.16520540067518322565E-04
    0.15221251353988680884E-04
    0.12185866302261279622E-04
    0.11253973526575079521E-04
    0.93652531806821663775E-05
    0.10192719772766936650E-04
    0.11975406925807950177E-04
    0.13483131119196462981E-04
    0.15008243452940125479E-04
    0.16081282397170932176E-04
    0.20644890166396592275E-04
    0.14153185096342522770E-04
    0.12795153902198087736E-04
    0.13395365306927167173E-03
    0.96600945347677461819E-04
    0.10378030965285755356E-03
    0.75288797142603907275E-04
    0.55713149192553900239E-04
    0.37167782902893425944E-04
    0.32659289416844182420E-04
    0.43419045397740273684E-04
    0.40471979314734340201E-04
    0.49247029748904746756E-04
    0.68692094263061127877E-04
    0.97297206375285093380E-04
    0.68020915263657306428E-04
    0.58485111730670830750E-04
    0.82994215531608048902E-04
    0.54681359376041383977E-04
    0.51342719674600882358E-04
    0.36674537366667813842E-04
    0.28959909664494546777E-04
    0.19138607264287956590E-04
    0.17699348204619903650E-04
    0.25093831641829720538E-04
    0.25921334433774437326E-04
    0.34007745950638262747E-04
    0.44999911786606524135E-04
    0.68674062680834603231E-04
    0.39709390691955860457E-04
    0.33145825001062293228E-04
    0.11616512410460120571E-04
    0.91653119738190159190E-05
    0.87354499469880850650E-05
    0.75549813926353339284E-05
    0.69715502794748102880E-05
    0.61794742731253024710E-05
    0.63967288834156830574E-05
    0.71278789670495357739E-05
    0.78216736128628178289E-05
    0.86133539723653980365E-05
    0.89765510526285023174E-05
    0.11105864045503710758E-04
    0.80960469120837961159E-05
    0.75127070178325482829E-05
    0.77138308116939035896E-05
    0.68981049851211967026E-05
    0.70486227890656578924E-05
    0.65725577306826401085E-05
    0.59872972316037736140E-05
    0.55270948298427111434E-05
    0.54036063575627181903E-05
    0.56279257640543064689E-05
    0.56816241355633623957E-05
    0.59622294826007609435E-05
    0.63643665816503377139E-05
    0.72412584398148263531E-05
    0.62618277215030672609E-05
    0.60211564129736575037E-05
    0.34697060266102787321E-04
    0.23519448103475156024E-04
    0.20665159615680108677E-04
    0.15952764714050609874E-04
    0.13843685276518101748E-04
    0.10374408307601426320E-04
    0.97606178530460655174E-05
    0.12761850282135999199E-04
    0.13316695385930462733E-04
    0.17165891692586446841E-04
    0.21555387987919732149E-04
    0.32088051035065417017E-04
    0.18507878845040667419E-04
    0.15839859055427076527E-04
    0.14031230710231179252E-04
    0.11291731115755851683E-04
    0.10589825212813043422E-04
    0.97786408891694813944E-05
    0.90279758223443294456E-05
    0.80882273137171347197E-05
    0.75322968184217978116E-05
    0.84009295419173602023E-05
    0.84023746036980979788E-05
    0.96989259663369835546E-05
    0.11049340489542709305E-04
    0.14207822779048505648E-04
    0.10134334315292805491E-04
    0.94265295483109046208E-05
    0.10131062341917167462E-02
    0.64133474206533238205E-03
    0.67689229911180727288E-03
    0.43731815291241641535E-03
    0.29548216913705783538E-03
    0.16998946410012410980E-03
    0.13474794583418140521E-03
    0.20155319070945385733E-03
    0.17384379844511270202E-03
    0.23742936201147631721E-03
    0.40006971666204543033E-03
    0.66116108765348154033E-03
    0.39327555754071477287E-03
    0.31554822266677111115E-03
    0.41896677848572905960E-03
    0.24948224931106781051E-03
    0.19938697886779125842E-03
    0.13670370603405246606E-03
    0.11400167645722277844E-03
    0.69308328792355383230E-04
    0.64041981515915573386E-04
    0.10193921451196568653E-03
    0.10560725294406580576E-03
    0.15195271328955294965E-03
    0.21925494578451317786E-03
    0.37150591166557902188E-03
    0.17950178164000466213E-03
    0.14315145563603202234E-03
    0.40959761627294682257E-02
    0.33809397425345454752E-02
    0.29523417648083445132E-02
    0.22587316190367974500E-02
    0.19852337149392574114E-02
    0.10679900629948729882E-02
    0.93239628134170692529E-03
    0.16321226509693116148E-02
    0.14073538029454406816E-02
    0.19956253612848210734E-02
    0.29583005163402002757E-02
    0.38557380998759153111E-02
    0.28147399924693720062E-02
    0.24055574599949019858E-02
    0.12264645117072063649E-02
    0.71223538213515389696E-03
    0.41731711002163010115E-03
    0.29452705916387182097E-03
    0.32785588488520769467E-03
    0.20604759197097573882E-03
    0.23691944924475065231E-03
    0.41427583770679192801E-03
    0.53583269056027289356E-03
    0.84363166861221709249E-03
    0.10251224342049749822E-02
    0.17698283157298272481E-02
    0.64954986060210002496E-03
    0.50689569705777059918E-03
    0.99194340825022107692E-04
    0.63364253334535815547E-04
    0.46508279123529440988E-04
    0.34397472999255109113E-04
    0.33353137073384622583E-04
    0.22886413376010489003E-04
    0.23804281557639322682E-04
    0.36024310888125457108E-04
    0.41807904929697454934E-04
    0.58779869456799323409E-04
    0.70779696232150973484E-04
    0.11081350402231918573E-03
    0.53517770426261947008E-04
    0.44132883534055200646E-04
    0.23799857952849237474E-04
    0.17678801669451338179E-04
    0.15011786832352178175E-04
    0.13579097339057549874E-04
    0.12979782671068975736E-04
    0.11492182023186756751E-04
    0.11216638601660706927E-04
    0.13546773173360983030E-04
    0.15448639689171362460E-04
    0.19518989458923064633E-04
    0.20501006648924912832E-04
    0.28201370512727916891E-04
    0.16379723058708092076E-04
    0.14695766338880016035E-04
    0.14983127782614792038E-03
    0.98852980650123695020E-04
    0.62957018876931864913E-04
    0.49113941913039923929E-04
    0.56891228782500527495E-04
    0.40975457698491005284E-04
    0.50717613218969732306E-04
    0.80468980477805935833E-04
    0.11229126543318085970E-03
    0.15924250166077894854E-03
    0.15125705572811951223E-03
    0.22076027028140657034E-03
    0.10000714260636522684E-03
    0.83779935665070188414E-04
    0.30411724029356137074E-04
    0.23516501021133685796E-04
    0.19710093184667718002E-04
    0.18190970986459880000E-04
    0.17826637672128650745E-04
    0.15772270455668837370E-04
    0.15806932863405501465E-04
    0.20131946687636415619E-04
    0.25333705223718411211E-04
    0.32778722213372829270E-04
    0.30365941607315635742E-04
    0.39494436657313665092E-04
    0.23087359494150869318E-04
    0.20792218772764681515E-04
    0.19058718605683235193E-04
    0.22309573010567901666E-04
    0.25997059105117049655E-04
    0.32048400103787919068E-04
    0.30654185809460741897E-04
    0.38931852281248536315E-04
    0.30480326610833759058E-04
    0.24372467986140941755E-04
    0.20315211452079073433E-04
    0.19685490357086948241E-04
    0.20302179359587948831E-04
    0.19164653483575640631E-04
    0.22818907987003849374E-04
    0.24595935202700044633E-04
    0.46086544759077114112E-04
    0.73599304664374970669E-04
    0.10539278094648071079E-03
    0.15497318344014977039E-03
    0.14496613564526371928E-03
    0.21805898907743061265E-03
    0.15012361155104195654E-03
    0.96116928200498693408E-04
    0.62345341839436043980E-04
    0.47912164616255737554E-04
    0.53337888140245010504E-04
    0.38661239045343152702E-04
    0.77564415876342902812E-04
    0.93919047451056125362E-04
    0.11583898002861454018E-04
    0.14246458263810598459E-04
    0.15549148619506414099E-04
    0.19363390508798909462E-04
    0.20659428505483754381E-04
    0.27088199141543775947E-04
    0.24445944117835452167E-04
    0.19614680402395804373E-04
    0.18187187723118517434E-04
    0.16708856972960517152E-04
    0.15068346080339835207E-04
    0.12753004132154807844E-04
    0.16168855281982743921E-04
    0.17757500222066984196E-04
    0.24340348692364052795E-04
    0.36444564970806132896E-04
    0.45921329405477134605E-04
    0.64830514984409053948E-04
    0.71490170489085395683E-04
    0.11373447881277614973E-03
    0.93697723197379837639E-04
    0.58461363801812644405E-04
    0.42248789545871701871E-04
    0.31975982409568372831E-04
    0.31434128816655161989E-04
    0.22471806527622105253E-04
    0.41997290528179751997E-04
    0.50885686803209517195E-04
    0.26250386526137050496E-03
    0.49037674314130461940E-03
    0.71776074519822182732E-03
    0.11553116614153831950E-02
    0.11970704038618926613E-02
    0.19546759996561459578E-02
    0.12661167409468616647E-02
    0.74209524791744602840E-03
    0.42242244629956185713E-03
    0.29514331182549586111E-03
    0.34126316100230378973E-03
    0.20937283209502768758E-03
    0.55664919571412989612E-03
    0.71515580057748958862E-03
    0.16623203081437515176E-02
    0.27687224083926837565E-02
    0.29310224951613764524E-02
    0.35654585069016093112E-02
    0.40160133766190420773E-02
    0.43763422926933054358E-02
    0.42001744620423983601E-02
    0.37967346270357947742E-02
    0.31006020831881443527E-02
    0.25118039926853279881E-02
    0.25711036851455053645E-02
    0.15569641211553486484E-02
    0.32980581063309366563E-02
    0.36745281654774540440E-02
    0.84991069428270505683E-04
    0.14459404619322215827E-03
    0.17110263687514465185E-03
    0.26193954928969206009E-03
    0.35003438763454478673E-03
    0.62587233915784934793E-03
    0.58429557645857583582E-03
    0.32548957661561581014E-03
    0.22534850234654581506E-03
    0.14798762505028340030E-03
    0.13562674878166581377E-03
    0.80899886205401867235E-04
    0.19226695611035892700E-03
    0.24882132540548042906E-03
    0.26374167361644344906E-03
    0.44119051534287367661E-03
    0.38804264134618927321E-03
    0.56577571351197370342E-03
    0.98732748404639571367E-03
    0.16764106865756111739E-02
    0.23723381228761236499E-02
    0.14713293086077794750E-02
    0.12951149679950432671E-02
    0.80336659766281953623E-03
    0.58864015905234386150E-03
    0.31500058332945164979E-03
    0.71042368680510525805E-03
    0.91707024062615569247E-03
    0.60611025387913820085E-05
    0.74763181822022468939E-05
    0.82945554009817638706E-05
    0.10266313170707346616E-04
    0.11083340095635924077E-04
    0.14734812497873756685E-04
    0.14106968100549073546E-04
    0.10961212094275255439E-04
    0.10441742405957021760E-04
    0.91293659245485138143E-05
    0.78931221439747208731E-05
    0.65309257968046842578E-05
    0.85193520905188472475E-05
    0.94880722959079344365E-05
    0.12486698056649964762E-04
    0.17371696009577033016E-04
    0.20016790794646680641E-04
    0.25661958700103032038E-04
    0.29230929608241959815E-04
    0.42211943040092907761E-04
    0.39928077068471919348E-04
    0.27181723324252178277E-04
    0.21881745750243685670E-04
    0.16979354676247076047E-04
    0.16081142639884344172E-04
    0.11771204338959099974E-04
    0.20073924868262632082E-04
    0.23395712879388738274E-04
    0.46929704205585365528E-05
    0.52085261126658060580E-05
    0.59051373343556163206E-05
    0.66183583426423092135E-05
    0.66135864917306572908E-05
    0.81411880133143649588E-05
    0.76390448242845725906E-05
    0.61056617186192133637E-05
    0.56066672398515581091E-05
    0.51033648073028134841E-05
    0.48927731955918162492E-05
    0.45860695403428315656E-05
    0.53222923178596306918E-05
    0.57024029599328577818E-05
    0.82109715119171269615E-05
    0.99047974307895547870E-05
    0.11260114565805119413E-04
    0.12620566224425192121E-04
    0.13601303242033082797E-04
    0.17443584147297125115E-04
    0.17763090935188879097E-04
    0.13278162098178013852E-04
    0.11370162727296706322E-04
    0.92167038521123015223E-05
    0.89739864245754892807E-05
    0.73668470059002567606E-05
    0.10617858284913203474E-04
    0.11790116074209220170E-04
    0.27634095588013680349E-04
    0.38586148598000582827E-04
    0.38670804906067403263E-04
    0.51521725833701455136E-04
    0.72069322315262008671E-04
    0.11559311884207806756E-03
    0.13401315939461119048E-03
    0.83617241312127570346E-04
    0.70658948550394860182E-04
    0.50256842146189908895E-04
    0.42765014454117754317E-04
    0.29105956584090452675E-04
    0.51099799692095888414E-04
    0.61771017974559925710E-04
    0.43998386428418352016E-04
    0.61951069954990846162E-04
    0.52732247435801471837E-04
    0.70433389635844552358E-04
    0.11623749896352626352E-03
    0.18647404757536972732E-03
    0.28247653916622461698E-03
    0.18401688306346407581E-03
    0.19585094340578658640E-03
    0.13195039433813089713E-03
    0.90853083290813894729E-04
    0.55732735913713154499E-04
    0.94670280918786293240E-04