# vtk DataFile Version 3.0
LAPLACIEN  2D
ASCII
DATASET UNSTRUCTURED_GRID
 POINTS         481  float
   6.2500000000000000E-002  0.87500000000000000        0.0000000000000000     
  0.12500000000000000       0.87500000000000000        0.0000000000000000     
  0.12500000000000000       0.93750000000000000        0.0000000000000000     
   3.7499999999999999E-002  0.91249999999999998        0.0000000000000000     
   8.1250000000000003E-002  0.91874999999999996        0.0000000000000000     
   8.7499999999999994E-002  0.96250000000000002        0.0000000000000000     
   4.3749999999999997E-002  0.95625000000000004        0.0000000000000000     
  0.18750000000000000       0.87500000000000000        0.0000000000000000     
  0.25000000000000000       0.87500000000000000        0.0000000000000000     
  0.25000000000000000       0.93750000000000000        0.0000000000000000     
  0.16250000000000001       0.91249999999999998        0.0000000000000000     
  0.20624999999999999       0.91874999999999996        0.0000000000000000     
  0.21249999999999999       0.96250000000000002        0.0000000000000000     
  0.16875000000000001       0.95625000000000004        0.0000000000000000     
   6.2500000000000000E-002  0.75000000000000000        0.0000000000000000     
  0.12500000000000000       0.75000000000000000        0.0000000000000000     
  0.12500000000000000       0.81250000000000000        0.0000000000000000     
   3.7499999999999999E-002  0.78749999999999998        0.0000000000000000     
   8.1250000000000003E-002  0.79374999999999996        0.0000000000000000     
   8.7499999999999994E-002  0.83750000000000002        0.0000000000000000     
   4.3749999999999997E-002  0.83125000000000004        0.0000000000000000     
  0.18750000000000000       0.75000000000000000        0.0000000000000000     
  0.25000000000000000       0.75000000000000000        0.0000000000000000     
  0.25000000000000000       0.81250000000000000        0.0000000000000000     
  0.16250000000000001       0.78749999999999998        0.0000000000000000     
  0.20624999999999999       0.79374999999999996        0.0000000000000000     
  0.21249999999999999       0.83750000000000002        0.0000000000000000     
  0.16875000000000001       0.83125000000000004        0.0000000000000000     
  0.31250000000000000       0.87500000000000000        0.0000000000000000     
  0.37500000000000000       0.87500000000000000        0.0000000000000000     
  0.37500000000000000       0.93750000000000000        0.0000000000000000     
  0.28749999999999998       0.91249999999999998        0.0000000000000000     
  0.33124999999999999       0.91874999999999996        0.0000000000000000     
  0.33750000000000002       0.96250000000000002        0.0000000000000000     
  0.29375000000000001       0.95625000000000004        0.0000000000000000     
  0.43750000000000000       0.87500000000000000        0.0000000000000000     
  0.50000000000000000       0.87500000000000000        0.0000000000000000     
  0.50000000000000000       0.93750000000000000        0.0000000000000000     
  0.41249999999999998       0.91249999999999998        0.0000000000000000     
  0.45624999999999999       0.91874999999999996        0.0000000000000000     
  0.46250000000000002       0.96250000000000002        0.0000000000000000     
  0.41875000000000001       0.95625000000000004        0.0000000000000000     
  0.31250000000000000       0.75000000000000000        0.0000000000000000     
  0.37500000000000000       0.75000000000000000        0.0000000000000000     
  0.37500000000000000       0.81250000000000000        0.0000000000000000     
  0.28749999999999998       0.78749999999999998        0.0000000000000000     
  0.33124999999999999       0.79374999999999996        0.0000000000000000     
  0.33750000000000002       0.83750000000000002        0.0000000000000000     
  0.29375000000000001       0.83125000000000004        0.0000000000000000     
  0.43750000000000000       0.75000000000000000        0.0000000000000000     
  0.50000000000000000       0.75000000000000000        0.0000000000000000     
  0.50000000000000000       0.81250000000000000        0.0000000000000000     
  0.41249999999999998       0.78749999999999998        0.0000000000000000     
  0.45624999999999999       0.79374999999999996        0.0000000000000000     
  0.46250000000000002       0.83750000000000002        0.0000000000000000     
  0.41875000000000001       0.83125000000000004        0.0000000000000000     
   6.2500000000000000E-002  0.62500000000000000        0.0000000000000000     
  0.12500000000000000       0.62500000000000000        0.0000000000000000     
  0.12500000000000000       0.68750000000000000        0.0000000000000000     
   3.7499999999999999E-002  0.66249999999999998        0.0000000000000000     
   8.1250000000000003E-002  0.66874999999999996        0.0000000000000000     
   8.7499999999999994E-002  0.71250000000000002        0.0000000000000000     
   4.3749999999999997E-002  0.70625000000000004        0.0000000000000000     
  0.18750000000000000       0.62500000000000000        0.0000000000000000     
  0.25000000000000000       0.62500000000000000        0.0000000000000000     
  0.25000000000000000       0.68750000000000000        0.0000000000000000     
  0.16250000000000001       0.66249999999999998        0.0000000000000000     
  0.20624999999999999       0.66874999999999996        0.0000000000000000     
  0.21249999999999999       0.71250000000000002        0.0000000000000000     
  0.16875000000000001       0.70625000000000004        0.0000000000000000     
   6.2500000000000000E-002  0.50000000000000000        0.0000000000000000     
  0.12500000000000000       0.50000000000000000        0.0000000000000000     
  0.12500000000000000       0.56250000000000000        0.0000000000000000     
   3.7499999999999999E-002  0.53749999999999998        0.0000000000000000     
   8.1250000000000003E-002  0.54374999999999996        0.0000000000000000     
   8.7499999999999994E-002  0.58750000000000002        0.0000000000000000     
   4.3749999999999997E-002  0.58125000000000004        0.0000000000000000     
  0.18750000000000000       0.50000000000000000        0.0000000000000000     
  0.25000000000000000       0.50000000000000000        0.0000000000000000     
  0.25000000000000000       0.56250000000000000        0.0000000000000000     
  0.16250000000000001       0.53749999999999998        0.0000000000000000     
  0.20624999999999999       0.54374999999999996        0.0000000000000000     
  0.21249999999999999       0.58750000000000002        0.0000000000000000     
  0.16875000000000001       0.58125000000000004        0.0000000000000000     
  0.31250000000000000       0.62500000000000000        0.0000000000000000     
  0.37500000000000000       0.62500000000000000        0.0000000000000000     
  0.37500000000000000       0.68750000000000000        0.0000000000000000     
  0.28749999999999998       0.66249999999999998        0.0000000000000000     
  0.33124999999999999       0.66874999999999996        0.0000000000000000     
  0.33750000000000002       0.71250000000000002        0.0000000000000000     
  0.29375000000000001       0.70625000000000004        0.0000000000000000     
  0.43750000000000000       0.62500000000000000        0.0000000000000000     
  0.50000000000000000       0.62500000000000000        0.0000000000000000     
  0.50000000000000000       0.68750000000000000        0.0000000000000000     
  0.41249999999999998       0.66249999999999998        0.0000000000000000     
  0.45624999999999999       0.66874999999999996        0.0000000000000000     
  0.46250000000000002       0.71250000000000002        0.0000000000000000     
  0.41875000000000001       0.70625000000000004        0.0000000000000000     
  0.31250000000000000       0.50000000000000000        0.0000000000000000     
  0.37500000000000000       0.50000000000000000        0.0000000000000000     
  0.37500000000000000       0.56250000000000000        0.0000000000000000     
  0.28749999999999998       0.53749999999999998        0.0000000000000000     
  0.33124999999999999       0.54374999999999996        0.0000000000000000     
  0.33750000000000002       0.58750000000000002        0.0000000000000000     
  0.29375000000000001       0.58125000000000004        0.0000000000000000     
  0.43750000000000000       0.50000000000000000        0.0000000000000000     
  0.50000000000000000       0.50000000000000000        0.0000000000000000     
  0.50000000000000000       0.56250000000000000        0.0000000000000000     
  0.41249999999999998       0.53749999999999998        0.0000000000000000     
  0.45624999999999999       0.54374999999999996        0.0000000000000000     
  0.46250000000000002       0.58750000000000002        0.0000000000000000     
  0.41875000000000001       0.58125000000000004        0.0000000000000000     
  0.56250000000000000       0.87500000000000000        0.0000000000000000     
  0.62500000000000000       0.87500000000000000        0.0000000000000000     
  0.62500000000000000       0.93750000000000000        0.0000000000000000     
  0.53749999999999998       0.91249999999999998        0.0000000000000000     
  0.58125000000000004       0.91874999999999996        0.0000000000000000     
  0.58750000000000002       0.96250000000000002        0.0000000000000000     
  0.54374999999999996       0.95625000000000004        0.0000000000000000     
  0.68750000000000000       0.87500000000000000        0.0000000000000000     
  0.75000000000000000       0.87500000000000000        0.0000000000000000     
  0.75000000000000000       0.93750000000000000        0.0000000000000000     
  0.66249999999999998       0.91249999999999998        0.0000000000000000     
  0.70625000000000004       0.91874999999999996        0.0000000000000000     
  0.71250000000000002       0.96250000000000002        0.0000000000000000     
[...]
 CELL_DATA         896
 SCALARS VEGF float
 LOOKUP_TABLE default
    0.38590134916182455209E-04
    0.37033594067987202051E-04
    0.40735905050211622933E-04
    0.39150593701385738739E-04
    0.34429280500884948684E-04
    0.33083123367031239256E-04
    0.30845184818267969542E-04
    0.30396930528309474575E-04
    0.29056029796157099431E-04
    0.29538037172224761558E-04
    0.32258095126496559352E-04
    0.35171986958296711434E-04
    0.33291483246346201925E-04
    0.32617551910366397120E-04
    0.49957248650692222540E-04
    0.50496825546830398953E-04
    0.61891212104434745059E-04
    0.60519968451899282963E-04
    0.50132708645786047631E-04
    0.50080543083270745485E-04
    0.44115933015063036780E-04
    0.40252710377950616473E-04
    0.35546540876355417276E-04
    0.34487494022558521940E-04
    0.38935955640594997035E-04
    0.41119210758948498562E-04
    0.43448467760102252896E-04
    0.43588237444517969525E-04
    0.57253207161982821820E-04
    0.59629131772203460883E-04
    0.72179838420062964735E-04
    0.72973794209966571828E-04
    0.58618743085081748351E-04
    0.53724581718332862471E-04
    0.44377036321351686818E-04
    0.45450630760819423523E-04
    0.41201851792412483668E-04
    0.43346827247610346552E-04
    0.48687718316807670159E-04
    0.51952683334619242624E-04
    0.52453607048933324970E-04
    0.51834735400524817306E-04
    0.11108206727684933875E-03
    0.11821659823318829603E-03
    0.15933113947924469221E-03
    0.15282674231668482248E-03
    0.11040337022528632065E-03
    0.95781416690494199009E-04
    0.70469420188232169064E-04
    0.70707544420507196549E-04
    0.55437064023636874232E-04
    0.57550156896855685735E-04
    0.75627918942059246614E-04
    0.81661841393247382127E-04
    0.91751492743102569202E-04
    0.89880019070753602644E-04
    0.88468794333669363962E-04
    0.91193445623898830750E-04
    0.11599824207295263536E-03
    0.11219050688479872339E-03
    0.90059582982011813015E-04
    0.87235832080149479633E-04
    0.76279230066806716901E-04
    0.68779790944611347088E-04
    0.57880688996562570437E-04
    0.54421375323670606941E-04
    0.64371856075159394092E-04
    0.66701028524156761495E-04
    0.75902303756711887663E-04
    0.76403224584323760544E-04
    0.15881487384635686161E-03
    0.15190927248782783231E-03
    0.17709773018645202187E-03
    0.15894758834167479816E-03
    0.13103211510234595051E-03
    0.11535700591391905359E-03
    0.10818449160222007917E-03
    0.10722539041442434506E-03
    0.95868593123112999608E-04
    0.93538648862118560522E-04
    0.11211722113199460305E-03
    0.12210954503293351865E-03
    0.12546946154270511090E-03
    0.12168378550939969304E-03
    0.24281837899837576539E-03
    0.23882527584232724231E-03
    0.30956223046142803280E-03
    0.28534344838603286102E-03
    0.20946146223915296583E-03
    0.17963875671919349503E-03
    0.13319484391256734943E-03
    0.13420694139104657311E-03
    0.10077648985400826669E-03
    0.10552895918485901826E-03
    0.14955878952558514846E-03
    0.17135303000398495747E-03
    0.18116565006141203921E-03
    0.17465537371438754808E-03
    0.40434359155001051503E-03
    0.36935835381033776774E-03
    0.42910292533859253298E-03
    0.37647094430307573515E-03
    0.29835893245386307026E-03
    0.24350480562415700359E-03
    0.20152949767399732381E-03
    0.21961028554894472553E-03
    0.18052932156381468480E-03
    0.19355677217197360743E-03
    0.26082465959326476754E-03
    0.30645032570522737778E-03
    0.29233216806559845840E-03
    0.27607232947675060600E-03
    0.78958938781750238759E-04
    0.88994030571551104632E-04
    0.11525675773262953976E-03
    0.12848398695152493752E-03
    0.10251610729845120351E-03
    0.10501491709720684571E-03
    0.79025857315317122698E-04
    0.72139920050314439745E-04
    0.60349946198988221207E-04
    0.61117843235198657790E-04
    0.68708306453137626296E-04
    0.70545974099484067802E-04
    0.79064104969104210142E-04
    0.81549801941796403989E-04
    0.20874953630206370182E-03
    0.25678895915973512509E-03
    0.35418861947219111791E-03
    0.37642146405758027897E-03
    0.28309390389334552910E-03
    0.26318036567786874756E-03
    0.18569514263188535057E-03
    0.17443217715812985393E-03
    0.12468929907998924761E-03
    0.12059075314024669649E-03
    0.16090049775507373852E-03
    0.15279968289106385859E-03
    0.21259138513318249141E-03
    0.21843340642136599037E-03
    0.10064422278511036776E-03
    0.11329702087345039818E-03
    0.14014131579371825456E-03
    0.16239543428883733379E-03
    0.14083352405951606360E-03
    0.16136110662957808067E-03
    0.12154855405835495038E-03
    0.10218449758875845518E-03
    0.82451219380420229677E-04
    0.81957904599228953392E-04
    0.91304030075328883645E-04
    0.92503886553061762522E-04
    0.10543516712204974259E-03
    0.11102678572372473467E-03
    0.23743786930934050565E-03
    0.32253955338220675376E-03
    0.43036389135149544748E-03
    0.52525355326836140318E-03
    0.45020744163203567758E-03
    0.51152988709383983342E-03
    0.38184830459829451109E-03
    0.30915429456278341411E-03
    0.22001833348080131604E-03
    0.19148874898164359917E-03
    0.22953853288264219759E-03
    0.19194910604606747729E-03
    0.30745644101475250003E-03
    0.33796839297481844457E-03
    0.59029565871063715502E-03
    0.64202319697637360955E-03
    0.85579616162134752085E-03
    0.80979199866799869267E-03
    0.58984030144244197543E-03
    0.49106042066138471790E-03
    0.36402996817771387031E-03
    0.37727013991015239053E-03
    0.28296155486300767585E-03
    0.29506632864373269444E-03
    0.40854739699448301303E-03
    0.43365781926389565483E-03
    0.50329033461044133876E-03
    0.49083417625178367254E-03
    0.12902304681011735575E-02
    0.11365933994277157074E-02
    0.14332379296459920974E-02
    0.11504882729199876826E-02
    0.82461773187792006701E-03
    0.62019968862680769240E-03
    0.49870988713853858613E-03
    0.56866805575464811524E-03
    0.46941425033333888548E-03
    0.52239997760411538679E-03
    0.72752819741407181563E-03
    0.89420858378562147542E-03
    0.81996661622300121789E-03
    0.75203325709827077445E-03
    0.82501618658350507878E-03
    0.11691246747535456903E-02
    0.17326042943998341567E-02
    0.21716586274678649146E-02
    0.15306649784289588865E-02
    0.14761554692325697287E-02
    0.10012619002211123158E-02
    0.90136957498887189996E-03
    0.64822067918635063125E-03
    0.59845886071801406882E-03
    0.74868867359169355685E-03
    0.63610500231635542286E-03
    0.10189521841214943618E-02
    0.10934443150877226798E-02
    0.40388010441156606267E-02
    0.45597393017781651103E-02
    0.53902123629230927482E-02
    0.50946120246117172770E-02
    0.38500290778587420611E-02
    0.25916241242886074551E-02
    0.18427514677001454336E-02
    0.23261892594102382900E-02
    0.15911919047412719647E-02
    0.17380564257872051660E-02
    0.28232683081419276440E-02
    0.28165369696702092714E-02
    0.36618224014830927718E-02
    0.34723331264973358000E-02
    0.18487321811956343009E-03
    0.15224951248333774790E-03
    0.15107466137686897207E-03
    0.12447739173989329870E-03
    0.11038901926023422545E-03
    0.91037825660546988155E-04
    0.94831156092007687385E-04
    0.10632544632978486749E-03
    0.10900605841977942343E-03
    0.11515576926235454515E-03
    0.13221305748577325163E-03
    0.15914600380175088993E-03
    0.12832053420909061026E-03
    0.11831535893141580671E-03
    0.12036122409701052879E-03
    0.91514686350225384103E-04
    0.83723406385808791272E-04
    0.67734119984602249418E-04
    0.63041813466814926596E-04
    0.52458047886607072046E-04
    0.57240917386409616264E-04
    0.67381204320034738500E-04
    0.75966972515031041158E-04
    0.84557753823277315500E-04
    0.90290196386730436494E-04
    0.11481103179501094208E-03
    0.79326953804627895524E-04
    0.71844184886183943672E-04
    0.44880082928452008162E-03
    0.36863377338563455173E-03
    0.38039326387576328278E-03
    0.30996610094636769953E-03
    0.25484460455454650786E-03
    0.18751982317532364599E-03
    0.17220463909312596121E-03
    0.21768490261322420557E-03
    0.20986318310590212411E-03
    0.24301600945999643120E-03
    0.30217087023579058958E-03
    0.37663928608113605859E-03
    0.29754767585558119245E-03
    0.26847741633527499611E-03
    0.32308780083424956013E-03
    0.23845272942758097214E-03
    0.22637355518310709737E-03
    0.17438067715857174991E-03
    0.14489770433873117028E-03
    0.10123025594221363535E-03
    0.95664210173860260238E-04
    0.13107629260345444945E-03
    0.13755717243379812710E-03
    0.17309676279978592579E-03
    0.21099498119336941213E-03
    0.28971918137313631319E-03
    0.18895824411261451085E-03
    0.16365783771188637213E-03
    0.63710678988856796006E-04
    0.50348704479594830847E-04
    0.47571701688705176042E-04
    0.41047871016764412872E-04
    0.38098314733800748449E-04
    0.33582421495591689210E-04
    0.35030453826775572455E-04
    0.39373055387879467596E-04
    0.43552088795407163072E-04
    0.48116363698905063211E-04
    0.49914469001579885629E-04
    0.61689074578700757337E-04
    0.44681372130475754674E-04
    0.41380248438086570555E-04
    0.41289308167220539487E-04
    0.36642626438494189554E-04
    0.37212324294159555295E-04
    0.34677625013811973220E-04
    0.31606963330430422028E-04
    0.29149991013696291485E-04
    0.28546388617520800405E-04
    0.29895899117213554376E-04
    0.30484833574005639487E-04
    0.32189037250009574717E-04
    0.34162890518266457104E-04
    0.39124749661178728636E-04
    0.33186866678309038582E-04
    0.31826970786393326597E-04
    0.16565353574170675632E-03
    0.11841428449987937896E-03
    0.10525306538372824735E-03
    0.83228890286685176824E-04
    0.73350068542721839513E-04
    0.55637802461875068719E-04
    0.52901742876539045474E-04
    0.68728999773924506333E-04
    0.72252828390705300964E-04
    0.91430395228138245625E-04
    0.11084988980752698555E-03
    0.15643101161688603555E-03
    0.96252959925733843987E-04
    0.83554919734259489430E-04
    0.73295696445813761474E-04
    0.59376701492099057242E-04
    0.55653931595867773814E-04
    0.51465434334305930168E-04
    0.47584458132842694469E-04
    0.42638363057151075139E-04
    0.39769080302115798742E-04
    0.44529268988462363552E-04
    0.44895078517233652060E-04
    0.51887892148401994978E-04
    0.58541731337897557003E-04
    0.74598043936799219417E-04
    0.53435690828063969651E-04
    0.49699730227009793410E-04
    0.15263556967876784100E-02
    0.11229581426134658140E-02
    0.11649267973368640072E-02
    0.88953231206181882992E-03
    0.69901217259541337939E-03
    0.50531231080623258741E-03
    0.44273150441380664920E-03
    0.55959351864519281308E-03
    0.51946575850268512757E-03
    0.61770935479476000909E-03
    0.83521656894272047148E-03
    0.11487994434288256035E-02
    0.82738474180519910005E-03
    0.72656076245734976197E-03
    0.87453839344104711100E-03
    0.63850954199590474920E-03
    0.56205651067434614018E-03
    0.44572996845579555304E-03
    0.39532844187105300581E-03
    0.28055707947232197018E-03
    0.26531765450176137593E-03
    0.36633888101069903400E-03
    0.37704169885258002372E-03
    0.47293677075737564769E-03
    0.58740595256744857627E-03
    0.81092824060909941570E-03
    0.52374701710258960655E-03
    0.45598814853101149068E-03
    0.54300944076712594905E-02
    0.44969304656009966709E-02
    0.39340947325566602566E-02
    0.29572506770849057468E-02
    0.25899010523880664630E-02
    0.15852976975288741220E-02
    0.14384290121731741104E-02
    0.21932125999650641142E-02
    0.19322070461764238175E-02
    0.25554134279334437575E-02
    0.38428873373006003367E-02
    0.50721022356472120207E-02
    0.37023045786075455682E-02
    0.31635487219459960083E-02
    0.17265174155356760761E-02
    0.11793205031417092633E-02
    0.82267080380956107612E-03
    0.66938708292238143817E-03
    0.73113772266235950870E-03
    0.56117012062420674502E-03
    0.61926074291830841834E-03
    0.86256981298074629581E-03
    0.10142064325774297409E-02
    0.13530539719320533974E-02
    0.15303453828895282555E-02
    0.23275794526750144195E-02
    0.11257422169471879674E-02
    0.96504117096810320547E-03
    0.35847924906930682658E-03
    0.25814369946870443151E-03
    0.20265502968415058122E-03
    0.15963541530353633768E-03
    0.15681796570206585307E-03
    0.11397329027418367858E-03
    0.11875124740630796686E-03
    0.16902687474492812127E-03
    0.19176556944963370557E-03
    0.24921945410696341771E-03
    0.28325328330080248819E-03
    0.38921296648036036916E-03
    0.22944229064440248289E-03
    0.19775687872455578829E-03
    0.11633360218615114922E-03
    0.89405417428050691186E-04
    0.77165825993783418685E-04
    0.70346534938892018121E-04
    0.67450899262146911091E-04
    0.60112119094673423388E-04
    0.58801787714588423753E-04
    0.70457241087863831217E-04
    0.79953229446585739318E-04
    0.98886111161593833862E-04
    0.10255198371532771653E-03
    0.13512657133001357941E-03
    0.83626702805941036697E-04
    0.75761914436238775110E-04
    0.42589108315842531469E-03
    0.32724063988582110553E-03
    0.23794021101949055261E-03
    0.20157455910819807175E-03
    0.22756851195084999945E-03
    0.17969080132662051930E-03
    0.21478565941438062734E-03
    0.30066640118674994257E-03
    0.38516352303403367111E-03
    0.47822363897186614609E-03
    0.44880443816543760241E-03
    0.55706925041208005776E-03
    0.33904473373971301918E-03
    0.30284210136799868300E-03
    0.14035605733981525124E-03
    0.11447497470491058982E-03
    0.99631730969967100073E-04
    0.92913476029053668919E-04
    0.90621256905352540081E-04
    0.81029155082381032179E-04
    0.80898290047867651553E-04
    0.10019561309614572278E-03
    0.12214612003141547695E-03
    0.15053627813250026329E-03
    0.14054295388164336138E-03
    0.17144904188993642983E-03
    0.11247124184464225469E-03
    0.10312211122485638495E-03
    0.97179020762767291241E-04
    0.10973546121538576713E-03
    0.12176506885520500920E-03
    0.14167955536686029799E-03
    0.13906987903756413993E-03
    0.16606014406204719597E-03
    0.14001271710308485345E-03
    0.11810547423437759264E-03
    0.10251488078695824874E-03
    0.10044785808081893314E-03
    0.10299242419871237669E-03
    0.98432928690560822656E-04
    0.11230244832926861718E-03
    0.11872652589274600501E-03
    0.17817137102074719155E-03
    0.24590229326126498109E-03
    0.31078367390923898259E-03
    0.40223332345446736200E-03
    0.39140718981150969188E-03
    0.52028472950996034179E-03
    0.42045010300981259512E-03
    0.30678771004692407783E-03
    0.23224627486079281609E-03
    0.19214071151005816026E-03
    0.20226252816623490520E-03
    0.16064411493951221517E-03
    0.25916884413893767408E-03
    0.29550666273381559317E-03
    0.60167562519577205324E-04
    0.72374743632035610109E-04
    0.76917500524391690746E-04
    0.92158382442872517366E-04
    0.98641077039448164430E-04
    0.12203457076025865365E-03
    0.11556802140126810246E-03
    0.97400089582200377451E-04
    0.93039110193771115101E-04
    0.86372569447538635225E-04
    0.77776387536200133660E-04
    0.66453828799302891938E-04
    0.81743057753130328328E-04
    0.88452840035301423484E-04
    0.10855836140983905378E-03
    0.14675728818421882971E-03
    0.17373639018070839929E-03
    0.22042565957389019266E-03
    0.23445949545995690175E-03
    0.32307356221985010416E-03
    0.28656938267275651987E-03
    0.20588618593882202466E-03
    0.16669739439904144077E-03
    0.13677254666605019357E-03
    0.13290827011743289242E-03
    0.10299048957074372816E-03
    0.16263379767918927565E-03
    0.18594416960648928790E-03
    0.56591639456097630589E-03
    0.87218576032503040540E-03
    0.11501886710368865521E-02
    0.16342961808227711787E-02
    0.16637066600624574216E-02
    0.25096165604972745650E-02
    0.17588916503262243523E-02
    0.11794548896414537402E-02
    0.81161008380418878452E-03
    0.63408709274997293332E-03
    0.68294665492614513910E-03
    0.48896693491160339584E-03
    0.95424892822987728187E-03
    0.11397127065040828578E-02
    0.22218082458062091838E-02
    0.36531843841984858179E-02
    0.38463643986913465499E-02
    0.47729517481775868282E-02
    0.54048104989341712312E-02
    0.58559041509198333716E-02
    0.55902097053674663224E-02
    0.51005175079440268418E-02
    0.41182002603162119747E-02
    0.32495953824180716894E-02
    0.33675310319556317137E-02
    0.20798900603114351369E-02
    0.44110905667306210889E-02
    0.49476148951843887738E-02
    0.26754975426923524161E-03
    0.38375538260304668499E-03
    0.43433458336095099542E-03
    0.58068329467810062949E-03
    0.69915757855607235487E-03
    0.10617746489493451369E-02
    0.99860820145047934915E-03
    0.65609776965347367441E-03
    0.51108431859375952951E-03
    0.38485432326906381930E-03
    0.36316122106808297609E-03
    0.25629612981526177142E-03
    0.46136341697443372135E-03
    0.54941882741190134053E-03
    0.58517186988294789870E-03
    0.83908600713170251872E-03
    0.77032467443245863058E-03
    0.10081725939751107375E-02
    0.15067635116120900885E-02
    0.22652046926830001969E-02
    0.30865895838633459515E-02
    0.20185510254163382439E-02
    0.18202426469698374228E-02
    0.12751041429095904059E-02
    0.10255728357044309896E-02
    0.65963232080498929253E-03
    0.11801771804573447325E-02
    0.14212215302109251509E-02
    0.31635455366803696888E-04
    0.38718476217578633592E-04
    0.42478870817862828739E-04
    0.51825082806123665179E-04
    0.55904866027602426312E-04
    0.72242201766070489191E-04
    0.70446128842140565834E-04
    0.56209782922893986295E-04
    0.54377171140470018562E-04
    0.47786036211101980782E-04
    0.41233613466487688281E-04
    0.34177134478415363821E-04
    0.44074236909174520696E-04
    0.48761986045180249572E-04
    0.61676193362152959996E-04
    0.82601374399544343985E-04
    0.93541811914639189790E-04
    0.11448662486173422884E-03
    0.12574937634542729349E-03
    0.16581444423343754671E-03
    0.15809480872412158678E-03
    0.11799670417769891223E-03
    0.99821712294487666508E-04
    0.81174995416803840038E-04
    0.77206499268221172642E-04
    0.58577186559074204033E-04
    0.92993980205230427987E-04
    0.10526248642463220467E-03
    0.24311356965296160337E-04
    0.26890981948708083825E-04
    0.30308713339045610419E-04
    0.33834147049151035364E-04
    0.33905757629300524957E-04
    0.41463114974561703769E-04
    0.39221417807408986630E-04
    0.31596972815901822637E-04
    0.29242981137798483430E-04
    0.26607222044627054148E-04
    0.25415153927557535343E-04
    0.23797837452138047884E-04
    0.27499760485733650207E-04
    0.29418335916601787573E-04
    0.41565700432696705635E-04
    0.49765308622394732122E-04
    0.56335204609002784073E-04
    0.62712079484363960941E-04
    0.66913701466308393934E-04
    0.83639085573332128684E-04
    0.84706454781712192626E-04
    0.65232784437574590857E-04
    0.56632532997904603698E-04
    0.46555669766549137687E-04
    0.45299248101726393226E-04
    0.37484265524910173606E-04
    0.53016162360741816767E-04
    0.58471818979265937982E-04
    0.12133833514156860001E-03
    0.15530189270601660778E-03
    0.15454297606777781643E-03
    0.18896373141979967225E-03
    0.24014839721231987174E-03
    0.33496948225057292811E-03
    0.36930987824973737733E-03
    0.26662445126892194347E-03
    0.23740515632362873231E-03
    0.18776436943733921386E-03
    0.16788947433837460017E-03
    0.12624266420337956806E-03
    0.19034332434392014707E-03
    0.21701503737985871115E-03
    0.16518482291004362448E-03
    0.20893033461215720329E-03
    0.18491768206483136369E-03
    0.22691063611974179588E-03
    0.32541205394314207501E-03
    0.45819128856580942227E-03
    0.61340628638779297159E-03
    0.45383349497589100694E-03
    0.47746953246724044371E-03
    0.36495299578663840728E-03
    0.27869473767385332871E-03
    0.19813450794751180802E-03
    0.28423344911790719876E-03