# vtk DataFile Version 3.0
LAPLACIEN  2D
ASCII
DATASET UNSTRUCTURED_GRID
 POINTS         481  float
   6.2500000000000000E-002  0.87500000000000000        0.0000000000000000     
  0.12500000000000000       0.87500000000000000        0.0000000000000000     
  0.12500000000000000       0.93750000000000000        0.0000000000000000     
   3.7499999999999999E-002  0.91249999999999998        0.0000000000000000     
   8.1250000000000003E-002  0.91874999999999996        0.0000000000000000     
   8.7499999999999994E-002  0.96250000000000002        0.0000000000000000     
   4.3749999999999997E-002  0.95625000000000004        0.0000000000000000     
  0.18750000000000000       0.87500000000000000        0.0000000000000000     
  0.25000000000000000       0.87500000000000000        0.0000000000000000     
  0.25000000000000000       0.93750000000000000        0.0000000000000000     
  0.16250000000000001       0.91249999999999998        0.0000000000000000     
  0.20624999999999999       0.91874999999999996        0.0000000000000000     
  0.21249999999999999       0.96250000000000002        0.0000000000000000     
  0.16875000000000001       0.95625000000000004        0.0000000000000000     
   6.2500000000000000E-002  0.75000000000000000        0.0000000000000000     
  0.12500000000000000       0.75000000000000000        0.0000000000000000     
  0.12500000000000000       0.81250000000000000        0.0000000000000000     
   3.7499999999999999E-002  0.78749999999999998        0.0000000000000000     
   8.1250000000000003E-002  0.79374999999999996        0.0000000000000000     
   8.7499999999999994E-002  0.83750000000000002        0.0000000000000000     
   4.3749999999999997E-002  0.83125000000000004        0.0000000000000000     
  0.18750000000000000       0.75000000000000000        0.0000000000000000     
  0.25000000000000000       0.75000000000000000        0.0000000000000000     
  0.25000000000000000       0.81250000000000000        0.0000000000000000     
  0.16250000000000001       0.78749999999999998        0.0000000000000000     
  0.20624999999999999       0.79374999999999996        0.0000000000000000     
  0.21249999999999999       0.83750000000000002        0.0000000000000000     
  0.16875000000000001       0.83125000000000004        0.0000000000000000     
  0.31250000000000000       0.87500000000000000        0.0000000000000000     
  0.37500000000000000       0.87500000000000000        0.0000000000000000     
  0.37500000000000000       0.93750000000000000        0.0000000000000000     
  0.28749999999999998       0.91249999999999998        0.0000000000000000     
  0.33124999999999999       0.91874999999999996        0.0000000000000000     
  0.33750000000000002       0.96250000000000002        0.0000000000000000     
  0.29375000000000001       0.95625000000000004        0.0000000000000000     
  0.43750000000000000       0.87500000000000000        0.0000000000000000     
  0.50000000000000000       0.87500000000000000        0.0000000000000000     
  0.50000000000000000       0.93750000000000000        0.0000000000000000     
  0.41249999999999998       0.91249999999999998        0.0000000000000000     
  0.45624999999999999       0.91874999999999996        0.0000000000000000     
  0.46250000000000002       0.96250000000000002        0.0000000000000000     
  0.41875000000000001       0.95625000000000004        0.0000000000000000     
  0.31250000000000000       0.75000000000000000        0.0000000000000000     
  0.37500000000000000       0.75000000000000000        0.0000000000000000     
  0.37500000000000000       0.81250000000000000        0.0000000000000000     
  0.28749999999999998       0.78749999999999998        0.0000000000000000     
  0.33124999999999999       0.79374999999999996        0.0000000000000000     
  0.33750000000000002       0.83750000000000002        0.0000000000000000     
  0.29375000000000001       0.83125000000000004        0.0000000000000000     
  0.43750000000000000       0.75000000000000000        0.0000000000000000     
  0.50000000000000000       0.75000000000000000        0.0000000000000000     
  0.50000000000000000       0.81250000000000000        0.0000000000000000     
  0.41249999999999998       0.78749999999999998        0.0000000000000000     
  0.45624999999999999       0.79374999999999996        0.0000000000000000     
  0.46250000000000002       0.83750000000000002        0.0000000000000000     
  0.41875000000000001       0.83125000000000004        0.0000000000000000     
   6.2500000000000000E-002  0.62500000000000000        0.0000000000000000     
  0.12500000000000000       0.62500000000000000        0.0000000000000000     
  0.12500000000000000       0.68750000000000000        0.0000000000000000     
   3.7499999999999999E-002  0.66249999999999998        0.0000000000000000     
   8.1250000000000003E-002  0.66874999999999996        0.0000000000000000     
   8.7499999999999994E-002  0.71250000000000002        0.0000000000000000     
   4.3749999999999997E-002  0.70625000000000004        0.0000000000000000     
  0.18750000000000000       0.62500000000000000        0.0000000000000000     
  0.25000000000000000       0.62500000000000000        0.0000000000000000     
  0.25000000000000000       0.68750000000000000        0.0000000000000000     
  0.16250000000000001       0.66249999999999998        0.0000000000000000     
  0.20624999999999999       0.66874999999999996        0.0000000000000000     
  0.21249999999999999       0.71250000000000002        0.0000000000000000     
  0.16875000000000001       0.70625000000000004        0.0000000000000000     
   6.2500000000000000E-002  0.50000000000000000        0.0000000000000000     
  0.12500000000000000       0.50000000000000000        0.0000000000000000     
  0.12500000000000000       0.56250000000000000        0.0000000000000000     
   3.7499999999999999E-002  0.53749999999999998        0.0000000000000000     
   8.1250000000000003E-002  0.54374999999999996        0.0000000000000000     
   8.7499999999999994E-002  0.58750000000000002        0.0000000000000000     
   4.3749999999999997E-002  0.58125000000000004        0.0000000000000000     
  0.18750000000000000       0.50000000000000000        0.0000000000000000     
  0.25000000000000000       0.50000000000000000        0.0000000000000000     
  0.25000000000000000       0.56250000000000000        0.0000000000000000     
  0.16250000000000001       0.53749999999999998        0.0000000000000000     
  0.20624999999999999       0.54374999999999996        0.0000000000000000     
  0.21249999999999999       0.58750000000000002        0.0000000000000000     
  0.16875000000000001       0.58125000000000004        0.0000000000000000     
  0.31250000000000000       0.62500000000000000        0.0000000000000000     
  0.37500000000000000       0.62500000000000000        0.0000000000000000     
  0.37500000000000000       0.68750000000000000        0.0000000000000000     
  0.28749999999999998       0.66249999999999998        0.0000000000000000     
  0.33124999999999999       0.66874999999999996        0.0000000000000000     
  0.33750000000000002       0.71250000000000002        0.0000000000000000     
  0.29375000000000001       0.70625000000000004        0.0000000000000000     
  0.43750000000000000       0.62500000000000000        0.0000000000000000     
  0.50000000000000000       0.62500000000000000        0.0000000000000000     
  0.50000000000000000       0.68750000000000000        0.0000000000000000     
  0.41249999999999998       0.66249999999999998        0.0000000000000000     
  0.45624999999999999       0.66874999999999996        0.0000000000000000     
  0.46250000000000002       0.71250000000000002        0.0000000000000000     
  0.41875000000000001       0.70625000000000004        0.0000000000000000     
  0.31250000000000000       0.50000000000000000        0.0000000000000000     
  0.37500000000000000       0.50000000000000000        0.0000000000000000     
  0.37500000000000000       0.56250000000000000        0.0000000000000000     
  0.28749999999999998       0.53749999999999998        0.0000000000000000     
  0.33124999999999999       0.54374999999999996        0.0000000000000000     
  0.33750000000000002       0.58750000000000002        0.0000000000000000     
  0.29375000000000001       0.58125000000000004        0.0000000000000000     
  0.43750000000000000       0.50000000000000000        0.0000000000000000     
  0.50000000000000000       0.50000000000000000        0.0000000000000000     
  0.50000000000000000       0.56250000000000000        0.0000000000000000     
  0.41249999999999998       0.53749999999999998        0.0000000000000000     
  0.45624999999999999       0.54374999999999996        0.0000000000000000     
  0.46250000000000002       0.58750000000000002        0.0000000000000000     
  0.41875000000000001       0.58125000000000004        0.0000000000000000     
  0.56250000000000000       0.87500000000000000        0.0000000000000000     
  0.62500000000000000       0.87500000000000000        0.0000000000000000     
  0.62500000000000000       0.93750000000000000        0.0000000000000000     
  0.53749999999999998       0.91249999999999998        0.0000000000000000     
  0.58125000000000004       0.91874999999999996        0.0000000000000000     
  0.58750000000000002       0.96250000000000002        0.0000000000000000     
  0.54374999999999996       0.95625000000000004        0.0000000000000000     
  0.68750000000000000       0.87500000000000000        0.0000000000000000     
  0.75000000000000000       0.87500000000000000        0.0000000000000000     
  0.75000000000000000       0.93750000000000000        0.0000000000000000     
  0.66249999999999998       0.91249999999999998        0.0000000000000000     
  0.70625000000000004       0.91874999999999996        0.0000000000000000     
  0.71250000000000002       0.96250000000000002        0.0000000000000000     
[...]
 CELL_DATA         896
 SCALARS VEGF float
 LOOKUP_TABLE default
    0.34386422384677736317E-04
    0.32980566069844033882E-04
    0.36256146157068923569E-04
    0.34823098613304285045E-04
    0.30627317543414994086E-04
    0.29407286937625594825E-04
    0.27434687059843729365E-04
    0.27058068770329326592E-04
    0.25879283192569313437E-04
    0.26313262973908806597E-04
    0.28736992978291972300E-04
    0.31340841786354958071E-04
    0.29648060808879722567E-04
    0.29039502284095088542E-04
    0.44381245211556254334E-04
    0.44820229065600215802E-04
    0.54868764344462048828E-04
    0.53648039045854662582E-04
    0.44476890353691455238E-04
    0.44441406636802751945E-04
    0.39152495818637808849E-04
    0.35732014513206482775E-04
    0.31567986623641737835E-04
    0.30641213624576084146E-04
    0.34589803745099403475E-04
    0.36553864895305257325E-04
    0.38574166036242413160E-04
    0.38691245292195564868E-04
    0.51028809698250810151E-04
    0.53120459872037693817E-04
    0.64242543759911527193E-04
    0.64908785402075362572E-04
    0.52174375250202939308E-04
    0.47788267720240050972E-04
    0.39499894333339802396E-04
    0.40486900031478773563E-04
    0.36717285445171745663E-04
    0.38635535679163419769E-04
    0.43396623987555171212E-04
    0.46313328894658973059E-04
    0.46738967810168762830E-04
    0.46177188492206193210E-04
    0.98541897298297869518E-04
    0.10469386378197748577E-03
    0.14079776688977671257E-03
    0.13492079688594871040E-03
    0.97637011241845860724E-04
    0.84692238377396308197E-04
    0.62436307412891973024E-04
    0.62705891930598243902E-04
    0.49245061298830039456E-04
    0.51155577541639113480E-04
    0.67156993144683061543E-04
    0.72565865967982564125E-04
    0.81335215372271970832E-04
    0.79643500547357532881E-04
    0.78223909670058422916E-04
    0.80654451159600757683E-04
    0.10240687465946960268E-03
    0.99179102162562935222E-04
    0.79810490150655560501E-04
    0.77458987737220346055E-04
    0.67754887447874466433E-04
    0.61051313689141308212E-04
    0.51377471115772037650E-04
    0.48292216778451164862E-04
    0.57072696738327593959E-04
    0.59091294251758925385E-04
    0.67263660339041947260E-04
    0.67741566925104328774E-04
    0.13994319931541639689E-03
    0.13410916591429891437E-03
    0.15608758505367386748E-03
    0.14039489328181324937E-03
    0.11610402304170359391E-03
    0.10247870937449457378E-03
    0.96187477492874008710E-04
    0.95251717032620439513E-04
    0.85197878202168257937E-04
    0.83063349826028646497E-04
    0.99333388395282928027E-04
    0.10791008008933246603E-03
    0.11112250143918865814E-03
    0.10787775526118473972E-03
    0.21377683640267318953E-03
    0.20992449550589819878E-03
    0.27189567105326858769E-03
    0.25026890323788525275E-03
    0.18392535349572527070E-03
    0.15789636300685472628E-03
    0.11738807459042890750E-03
    0.11824866846913916992E-03
    0.89015810680483572494E-04
    0.93215793630958132662E-04
    0.13180243888584591556E-03
    0.15108594669251937436E-03
    0.15935436730199270062E-03
    0.15359856167341490673E-03
    0.35511885002341273855E-03
    0.32367833493458135832E-03
    0.37643446487703344184E-03
    0.32953933543608879405E-03
    0.26124390422093990991E-03
    0.21360869166934669423E-03
    0.17724050449595581125E-03
    0.19280419365987517015E-03
    0.15879278529861901351E-03
    0.17004933598535124637E-03
    0.22863210727744063600E-03
    0.26870929902821907506E-03
    0.25605941916229888735E-03
    0.24183903001118658310E-03
    0.70306927326048172040E-04
    0.79187959856280909824E-04
    0.10241460207609304125E-03
    0.11408858252499473553E-03
    0.91129440546975054149E-04
    0.93302300066044828691E-04
    0.70316860299645496044E-04
    0.64239708087942792012E-04
    0.53785086270902789530E-04
    0.54475745173772069168E-04
    0.61218234068396645831E-04
    0.62853664691444208700E-04
    0.70394025455853371587E-04
    0.72588086465688765668E-04
    0.18496326651805993836E-03
    0.22730861200440005188E-03
    0.31354342189646037045E-03
    0.33310067607164676453E-03
    0.25021219080220463878E-03
    0.23226193410859368891E-03
    0.16406538453759840056E-03
    0.15435416755001533169E-03
    0.11058237177587764051E-03
    0.10703644534063295167E-03
    0.14262627092882082720E-03
    0.13555008990666310279E-03
    0.18816551161991438754E-03
    0.19324191730315766957E-03
    0.89479329117902095449E-04
    0.10066154159132574585E-03
    0.12438086455140127951E-03
    0.14406424761601309718E-03
    0.12499993093714953916E-03
    0.14314253940070009665E-03
    0.10797527555217270882E-03
    0.90854075700769445687E-04
    0.73398316329215199929E-04
    0.72961999377235326240E-04
    0.81226481817935847966E-04
    0.82285250578291368128E-04
    0.93720215804172997453E-04
    0.98664315813489267856E-04
    0.21061094554463831875E-03
    0.28646050049697713335E-03
    0.38357910887342871326E-03
    0.46973134079034123802E-03
    0.40063327095514955026E-03
    0.45538536428886235890E-03
    0.33848221620138288978E-03
    0.27397241720513576665E-03
    0.19497097248638093204E-03
    0.16977279887742474326E-03
    0.20350241855758558125E-03
    0.17022462088244131435E-03
    0.27270361464330072779E-03
    0.29986000156070348986E-03
    0.52602042137958105773E-03
    0.57323562693964295097E-03
    0.77200043020257398500E-03
    0.72817122665029977019E-03
    0.52459246888790142787E-03
    0.43380190559569488514E-03
    0.32031896529951815310E-03
    0.33268791536017109202E-03
    0.24928211930913893313E-03
    0.26029211339499881564E-03
    0.36131476193033040985E-03
    0.38424988094629526853E-03
    0.44618052820386504666E-03
    0.43466647512616698188E-03
    0.11891878323802887972E-02
    0.10393453941658437403E-02
    0.13259827037946712684E-02
    0.10505524415638156296E-02
    0.74097872418033960268E-03
    0.54980428360370517307E-03
    0.43911467731930648719E-03
    0.50342566057093827980E-03
    0.41345662613099241119E-03
    0.46193020707706956623E-03
    0.65116994748377215758E-03
    0.80842279162010740289E-03
    0.73729611079638088245E-03
    0.67302947884748532802E-03
    0.75034095992363325934E-03
    0.10777936003247379042E-02
    0.16254935949666323748E-02
    0.20571347654697821374E-02
    0.14257895093565547701E-02
    0.13708253244329819936E-02
    0.91119508502212731137E-03
    0.81695108686168245709E-03
    0.57967485908575020360E-03
    0.53452672983409854970E-03
    0.67554207349456872524E-03
    0.57207709193290556121E-03
    0.93079945996249794336E-03
    0.10015856358584779989E-02
    0.38653600062125165887E-02
    0.43691250707315219468E-02
    0.51782553308604159850E-02
    0.49003561560634545033E-02
    0.36944613146573514022E-02
    0.24664927045182508461E-02
    0.17282896664712098581E-02
    0.22066810064997059888E-02
    0.14831285619123794808E-02
    0.16276352577334410321E-02
    0.26907754725995999302E-02
    0.26855319634880199520E-02
    0.35030163815684537722E-02
    0.33219543864422408468E-02
    0.16280829300734147029E-03
    0.13440731277138530473E-03
    0.13322277427877928175E-03
    0.11001075715797196605E-03
    0.97829101827100030191E-04
    0.80843356695080737656E-04
    0.84291001280849527717E-04
    0.94460329758645520206E-04
    0.96912421513996798795E-04
    0.10230327004656189385E-03
    0.11713090267558428921E-03
    0.14056518020920814502E-03
    0.11364983806695746116E-03
    0.10489743798047252300E-03
    0.10620549027760175088E-03
    0.80936807555621778339E-04
    0.74060337353550712860E-04
    0.60007298237801117000E-04
    0.55906826616581007619E-04
    0.46554435112945363805E-04
    0.50818819686636688417E-04
    0.59819235628391084292E-04
    0.67480001820479162760E-04
    0.75083709339041984914E-04
    0.80011495502291666887E-04
    0.10149781530852118366E-03
    0.70296551023566272395E-04
    0.63709233159007301779E-04
    0.39393741240366326800E-03
    0.32294082364260357767E-03
    0.33364176566880686652E-03
    0.27160788445305321208E-03
    0.22335550089799458256E-03
    0.16475765476548233346E-03
    0.15155878083695432761E-03
    0.19111480540728569152E-03
    0.18444666847148831631E-03
    0.21318314052870882252E-03
    0.26455277387659711973E-03
    0.32968027759079751755E-03
    0.26054342586578498097E-03
    0.23519933588079901319E-03
    0.28368025156078649192E-03
    0.20951280569082676784E-03
    0.19921855477053612574E-03
    0.15366969592575262151E-03
    0.12770183286318307226E-03
    0.89447852700888548917E-04
    0.84529830482192973838E-04
    0.11550954737415989541E-03
    0.12118219102763928342E-03
    0.15216788512719751068E-03
    0.18521574045416756577E-03
    0.25395361737204542613E-03
    0.16608811742308289398E-03
    0.14399783066777944486E-03
    0.56480780028421778889E-04
    0.44689839496057378416E-04
    0.42265243761945683117E-04
    0.36487113137450415416E-04
    0.33848201310008463197E-04
    0.29843255856689075023E-04
    0.31111799316592204424E-04
    0.34955170324307412665E-04
    0.38654456341249835479E-04
    0.42701862535543819242E-04
    0.44286372223591016154E-04
    0.54683161494116681802E-04
    0.39663388106761371930E-04
    0.36741127460650703127E-04
    0.36752523911612853830E-04
    0.32632175855799867685E-04
    0.33158547648342178739E-04
    0.30899967604833879784E-04
    0.28157022691550226022E-04
    0.25968897968542882813E-04
    0.25425785741120688211E-04
    0.26613798123175080981E-04
    0.27114886474655012334E-04
    0.28618482034953906840E-04
    0.30391835096349538692E-04
    0.34795968835971519638E-04
    0.29549092183472760260E-04
    0.28342632345760925515E-04
    0.14635736399324497724E-03
    0.10485641197746910724E-03
    0.93384369826795163533E-04
    0.73946577171264747490E-04
    0.65146587356460698790E-04
    0.49470530301404933211E-04
    0.46997020289399315249E-04
    0.60966910543759273203E-04
    0.64016384734610589551E-04
    0.80876347857665960620E-04
    0.98015939702385731776E-04
    0.13802550033258255543E-03
    0.85271477631556786832E-04
    0.74090464198029397759E-04
    0.65237431342785137970E-04
    0.52896312369847900154E-04
    0.49606650279462742895E-04
    0.45879928292834940538E-04
    0.42414748222973742769E-04
    0.38005582482681587672E-04
    0.35439898950085767931E-04
    0.39669873817991823555E-04
    0.39965954961652738276E-04
    0.46168401761445844174E-04
    0.52108358936066514089E-04
    0.66340381837545325111E-04
    0.47605834693271446465E-04
    0.44287007803889477046E-04
    0.14160908047834688730E-02
    0.10253333049695838915E-02
    0.10663461536184334292E-02
    0.80251988918945082151E-03
    0.62376861622223059994E-03
    0.44619576823566299778E-03
    0.38934126125541652268E-03
    0.49475028145805647825E-03
    0.45756905928303319040E-03
    0.54740097596552754824E-03
    0.75062569503537158577E-03
    0.10487887796600499964E-02
    0.74345403279240166155E-03
    0.64886855624940497148E-03
    0.78869083997516026795E-03
    0.56935810532000744131E-03
    0.49966408609373709829E-03
    0.39456811945668215664E-03
    0.34909879903737743925E-03
    0.24741032928576661351E-03
    0.23358243233969174435E-03
    0.32262815607026189973E-03
    0.33156130007921382971E-03
    0.41716043202115021512E-03
    0.52171580262623355739E-03
    0.72813356950553946405E-03
    0.46407636610741370611E-03
    0.40297023026069088468E-03
    0.52188313136296094266E-02
    0.43089267172281694659E-02
    0.37633359925459243869E-02
    0.28222620913743007819E-02
    0.24663251397985010149E-02
    0.14764999705384738472E-02
    0.13326421809893964146E-02
    0.20739977593204226777E-02
    0.18144920303295244968E-02
    0.24301064774683921003E-02
    0.36867828481600677798E-02
    0.48795703035804513167E-02
    0.35427794308807215341E-02
    0.30196377216891714598E-02
    0.16197052961974959303E-02
    0.10869565471632739243E-02
    0.74729392335893065919E-03
    0.60235294259366242015E-03
    0.65836251605476804692E-03
    0.50029014195398873420E-03
    0.55248948382577282336E-03
    0.77917520018543832798E-03
    0.92199659577411766185E-03
    0.12492920490797456302E-02
    0.14250099940802216526E-02
    0.22100689435740603940E-02
    0.10326391389754454274E-02
    0.87810307161986669942E-03
    0.31722103207650070725E-03
    0.22841993217765998265E-03
    0.17953561508086583265E-03
    0.14156564737782050358E-03
    0.13900058410775179463E-03
    0.10119215440779483477E-03
    0.10532189865557438347E-03
    0.14957003995832234239E-03
    0.16939153821901142393E-03
    0.21992127563446597308E-03
    0.25025959644204328735E-03
    0.34418106970735283566E-03
    0.20294003042609415799E-03
    0.17500469995549735149E-03
    0.10335827788467257047E-03
    0.79548953491917072552E-04
    0.68716584465886303319E-04
    0.62675345819286840663E-04
    0.60101935048474649040E-04
    0.53583201567355138030E-04
    0.52408653832917363367E-04
    0.62750523148830103840E-04
    0.71145734908735968824E-04
    0.87890254385302414770E-04
    0.91157818215624643191E-04
    0.11994111612705414896E-03
    0.74428584084197579244E-04
    0.67463970746054234074E-04
    0.37958924760007721477E-03
    0.29058953323448874235E-03
    0.21101106909448096700E-03
    0.17870985032125341813E-03
    0.20169450424509501670E-03
    0.15932031125727864462E-03
    0.19029087282811102530E-03
    0.26631016739197372559E-03
    0.34125560939642145221E-03
    0.42501478620519923075E-03
    0.39928716417478256123E-03
    0.49867591587402870876E-03
    0.30082909055016894160E-03
    0.26845166832781643725E-03
    0.12455643262288473242E-03
    0.10169561419838214409E-03
    0.88579812709496265192E-04
    0.82643166960596296518E-04
    0.80620281158541487031E-04
    0.72137378725800019742E-04
    0.72020786503059462409E-04
    0.89091367423728301555E-04
    0.10849439852807815469E-03
    0.13356401649118149156E-03
    0.12473067006211297977E-03
    0.15204852868733588576E-03
    0.99932077093976159443E-04
    0.91673888884664822443E-04
    0.86363157102993523616E-04
    0.97464171092017032935E-04
    0.10807476813717599971E-03
    0.12570584395881186980E-03
    0.12340557857001724189E-03
    0.14729687959964807612E-03
    0.12426225594773784096E-03
    0.10489892621934748666E-03
    0.91131208813409426625E-04
    0.89304011254001037959E-04
    0.91539631934848124145E-04
    0.87497610560403592532E-04
    0.99757802807247424525E-04
    0.10543694898315765192E-03
    0.15814570860521736132E-03
    0.21861686243366027600E-03
    0.27713674394374925285E-03
    0.36023122796068019966E-03
    0.34984172048320688175E-03
    0.46736167396719554244E-03
    0.37503643053775370143E-03
    0.27279150180133462673E-03
    0.20604148878228774398E-03
    0.17041544946653399274E-03
    0.17948923657678752695E-03
    0.14252497857071167874E-03
    0.23032923010094796270E-03
    0.26292763920084994984E-03
    0.53485093705989853808E-04
    0.64311560346230991938E-04
    0.68330520057547012355E-04
    0.81838728035929527815E-04
    0.87581491861103415056E-04
    0.10830184950608196675E-03
    0.10258285556963652840E-03
    0.86513380271611254615E-04
    0.82685672804020760116E-04
    0.76773208704279964545E-04
    0.69128704812010979526E-04
    0.59075501926598082377E-04
    0.72630694138055819039E-04
    0.78574683952225676115E-04
    0.96432990346135476298E-04
    0.13038731426464594669E-03
    0.15450599570603526750E-03
    0.19628336747701263668E-03
    0.20879738370609712849E-03
    0.28864362028220195240E-03
    0.25533122160195263414E-03
    0.18300151883730373238E-03
    0.14795744912309336363E-03
    0.12137473031420367741E-03
    0.11798831379201114270E-03
    0.91451162750346893138E-04
    0.14446903105903467291E-03
    0.16526291643289238637E-03
    0.51184063337681416379E-03
    0.79959634302242065494E-03
    0.10648901601430014845E-02
    0.15338779970925011265E-02
    0.15640901822279269437E-02
    0.23940758335427572354E-02
    0.16528749206714240041E-02
    0.10919357717999135168E-02
    0.73883051559613761514E-03
    0.57288958981119785744E-03
    0.62023704178022786866E-03
    0.44010254477464536612E-03
    0.87731562236436938951E-03
    0.10550803796436825002E-02
    0.21045363353363855628E-02
    0.34949837978358465514E-02
    0.36805871410141143690E-02
    0.45681586671048541107E-02
    0.51795702305856197029E-02
    0.56249415087354284054E-02
    0.53686593708939410116E-02
    0.48879542212649958188E-02
    0.39438404150941991366E-02
    0.31121683167860303594E-02
    0.32235020339634020206E-02
    0.19693083771796402945E-02
    0.42226092579347122152E-02
    0.47374587127047545349E-02
    0.23881825561309280169E-03
    0.34420786452034666083E-03
    0.39040904147120768881E-03
    0.52525184103504945436E-03
    0.63620730459681496330E-03
    0.97806877982545997220E-03
    0.91896653574408376352E-03
    0.59629581248277815485E-03
    0.46098752892176044415E-03
    0.34497778778765482649E-03
    0.32536919732216771457E-03
    0.22859700796333865436E-03
    0.41537390542473721531E-03
    0.49674085257837038813E-03
    0.52956188206659685416E-03
    0.76660946479971479438E-03
    0.70167939770661457745E-03
    0.92570327278313152899E-03
    0.14030627868245335380E-02
    0.21389788122059111806E-02
    0.29464624287650121627E-02
    0.19023816327712859704E-02
    0.17101226978381046939E-02
    0.11821991978302835019E-02
    0.94301486767457568319E-03
    0.59873015378088376062E-03
    0.10898076950019357050E-02
    0.13211309330479501043E-02
    0.28154068466883301310E-04
    0.34455214594068475252E-04
    0.37817925355548467198E-04
    0.46125897132127561618E-04
    0.49719281352825073889E-04
    0.64212714220028592948E-04
    0.62596989898411974063E-04
    0.49967742525536354989E-04
    0.48343068499067245807E-04
    0.42490550473106342057E-04
    0.36674537044986201559E-04
    0.30407454810429665942E-04
    0.39202998219632531314E-04
    0.43365311598239604041E-04
    0.54943298329873085776E-04
    0.73552312913229727417E-04
    0.83331805505780937862E-04
    0.10195303810473592388E-03
    0.11190548480566377414E-03
    0.14755592621843187286E-03
    0.14057874116830108456E-03
    0.10490389950679581202E-03
    0.88697285986446012932E-04
    0.72151599708902201770E-04
    0.68677621244739252195E-04
    0.52141145401483260499E-04
    0.82743833682503379473E-04
    0.93642898903481484852E-04
    0.21655876833135963793E-04
    0.23966888672988127053E-04
    0.27033659193617358830E-04
    0.30186685916073023042E-04
    0.30230255791303523559E-04
    0.36960494497518411546E-04
    0.34931820476461600787E-04
    0.28141211640502429347E-04
    0.26030620514033127398E-04
    0.23686793362503341079E-04
    0.22633874069080943419E-04
    0.21193274979962691056E-04
    0.24502691494414429401E-04
    0.26214190457472631777E-04
    0.37113786389976047883E-04
    0.44434268297327946190E-04
    0.50301376897077666565E-04
    0.55976464661671675703E-04
    0.59704251001474578880E-04
    0.74577812124098318263E-04
    0.75492967726120444277E-04
    0.58166365342273799999E-04
    0.50475605895139616342E-04
    0.41508107805056070343E-04
    0.40419690599093347015E-04
    0.33453492101916155077E-04
    0.47319555800580708675E-04
    0.52177486887534161154E-04
    0.10811268265751517652E-03
    0.13838302669822349954E-03
    0.13773847219588698006E-03
    0.16852921840987460317E-03
    0.21440128118362515347E-03
    0.29988667797683165282E-03
    0.33101719971572162718E-03
    0.23810026492659990471E-03
    0.21168387676948917701E-03
    0.16719780247893695755E-03
    0.14952507769101674897E-03
    0.11243420424437042759E-03
    0.16964990364068521637E-03
    0.19354861362793788831E-03
    0.14731393508232896810E-03
    0.18659853686314137691E-03
    0.16508003311203414969E-03
    0.20285114993264807023E-03
    0.29182300661495329643E-03
    0.41269370765656404479E-03
    0.55577642843482408935E-03
    0.40871810328052798206E-03
    0.43015742044433464327E-03
    0.32724893468608897903E-03
    0.24927632066972535505E-03
    0.17678901803593922862E-03
    0.25439039602719254810E-03