# vtk DataFile Version 3.0
LAPLACIEN  2D
ASCII
DATASET UNSTRUCTURED_GRID
 POINTS         481  float
   6.2500000000000000E-002  0.87500000000000000        0.0000000000000000     
  0.12500000000000000       0.87500000000000000        0.0000000000000000     
  0.12500000000000000       0.93750000000000000        0.0000000000000000     
   3.7499999999999999E-002  0.91249999999999998        0.0000000000000000     
   8.1250000000000003E-002  0.91874999999999996        0.0000000000000000     
   8.7499999999999994E-002  0.96250000000000002        0.0000000000000000     
   4.3749999999999997E-002  0.95625000000000004        0.0000000000000000     
  0.18750000000000000       0.87500000000000000        0.0000000000000000     
  0.25000000000000000       0.87500000000000000        0.0000000000000000     
  0.25000000000000000       0.93750000000000000        0.0000000000000000     
  0.16250000000000001       0.91249999999999998        0.0000000000000000     
  0.20624999999999999       0.91874999999999996        0.0000000000000000     
  0.21249999999999999       0.96250000000000002        0.0000000000000000     
  0.16875000000000001       0.95625000000000004        0.0000000000000000     
   6.2500000000000000E-002  0.75000000000000000        0.0000000000000000     
  0.12500000000000000       0.75000000000000000        0.0000000000000000     
  0.12500000000000000       0.81250000000000000        0.0000000000000000     
   3.7499999999999999E-002  0.78749999999999998        0.0000000000000000     
   8.1250000000000003E-002  0.79374999999999996        0.0000000000000000     
   8.7499999999999994E-002  0.83750000000000002        0.0000000000000000     
   4.3749999999999997E-002  0.83125000000000004        0.0000000000000000     
  0.18750000000000000       0.75000000000000000        0.0000000000000000     
  0.25000000000000000       0.75000000000000000        0.0000000000000000     
  0.25000000000000000       0.81250000000000000        0.0000000000000000     
  0.16250000000000001       0.78749999999999998        0.0000000000000000     
  0.20624999999999999       0.79374999999999996        0.0000000000000000     
  0.21249999999999999       0.83750000000000002        0.0000000000000000     
  0.16875000000000001       0.83125000000000004        0.0000000000000000     
  0.31250000000000000       0.87500000000000000        0.0000000000000000     
  0.37500000000000000       0.87500000000000000        0.0000000000000000     
  0.37500000000000000       0.93750000000000000        0.0000000000000000     
  0.28749999999999998       0.91249999999999998        0.0000000000000000     
  0.33124999999999999       0.91874999999999996        0.0000000000000000     
  0.33750000000000002       0.96250000000000002        0.0000000000000000     
  0.29375000000000001       0.95625000000000004        0.0000000000000000     
  0.43750000000000000       0.87500000000000000        0.0000000000000000     
  0.50000000000000000       0.87500000000000000        0.0000000000000000     
  0.50000000000000000       0.93750000000000000        0.0000000000000000     
  0.41249999999999998       0.91249999999999998        0.0000000000000000     
  0.45624999999999999       0.91874999999999996        0.0000000000000000     
  0.46250000000000002       0.96250000000000002        0.0000000000000000     
  0.41875000000000001       0.95625000000000004        0.0000000000000000     
  0.31250000000000000       0.75000000000000000        0.0000000000000000     
  0.37500000000000000       0.75000000000000000        0.0000000000000000     
  0.37500000000000000       0.81250000000000000        0.0000000000000000     
  0.28749999999999998       0.78749999999999998        0.0000000000000000     
  0.33124999999999999       0.79374999999999996        0.0000000000000000     
  0.33750000000000002       0.83750000000000002        0.0000000000000000     
  0.29375000000000001       0.83125000000000004        0.0000000000000000     
  0.43750000000000000       0.75000000000000000        0.0000000000000000     
  0.50000000000000000       0.75000000000000000        0.0000000000000000     
  0.50000000000000000       0.81250000000000000        0.0000000000000000     
  0.41249999999999998       0.78749999999999998        0.0000000000000000     
  0.45624999999999999       0.79374999999999996        0.0000000000000000     
  0.46250000000000002       0.83750000000000002        0.0000000000000000     
  0.41875000000000001       0.83125000000000004        0.0000000000000000     
   6.2500000000000000E-002  0.62500000000000000        0.0000000000000000     
  0.12500000000000000       0.62500000000000000        0.0000000000000000     
  0.12500000000000000       0.68750000000000000        0.0000000000000000     
   3.7499999999999999E-002  0.66249999999999998        0.0000000000000000     
   8.1250000000000003E-002  0.66874999999999996        0.0000000000000000     
   8.7499999999999994E-002  0.71250000000000002        0.0000000000000000     
   4.3749999999999997E-002  0.70625000000000004        0.0000000000000000     
  0.18750000000000000       0.62500000000000000        0.0000000000000000     
  0.25000000000000000       0.62500000000000000        0.0000000000000000     
  0.25000000000000000       0.68750000000000000        0.0000000000000000     
  0.16250000000000001       0.66249999999999998        0.0000000000000000     
  0.20624999999999999       0.66874999999999996        0.0000000000000000     
  0.21249999999999999       0.71250000000000002        0.0000000000000000     
  0.16875000000000001       0.70625000000000004        0.0000000000000000     
   6.2500000000000000E-002  0.50000000000000000        0.0000000000000000     
  0.12500000000000000       0.50000000000000000        0.0000000000000000     
  0.12500000000000000       0.56250000000000000        0.0000000000000000     
   3.7499999999999999E-002  0.53749999999999998        0.0000000000000000     
   8.1250000000000003E-002  0.54374999999999996        0.0000000000000000     
   8.7499999999999994E-002  0.58750000000000002        0.0000000000000000     
   4.3749999999999997E-002  0.58125000000000004        0.0000000000000000     
  0.18750000000000000       0.50000000000000000        0.0000000000000000     
  0.25000000000000000       0.50000000000000000        0.0000000000000000     
  0.25000000000000000       0.56250000000000000        0.0000000000000000     
  0.16250000000000001       0.53749999999999998        0.0000000000000000     
  0.20624999999999999       0.54374999999999996        0.0000000000000000     
  0.21249999999999999       0.58750000000000002        0.0000000000000000     
  0.16875000000000001       0.58125000000000004        0.0000000000000000     
  0.31250000000000000       0.62500000000000000        0.0000000000000000     
  0.37500000000000000       0.62500000000000000        0.0000000000000000     
  0.37500000000000000       0.68750000000000000        0.0000000000000000     
  0.28749999999999998       0.66249999999999998        0.0000000000000000     
  0.33124999999999999       0.66874999999999996        0.0000000000000000     
  0.33750000000000002       0.71250000000000002        0.0000000000000000     
  0.29375000000000001       0.70625000000000004        0.0000000000000000     
  0.43750000000000000       0.62500000000000000        0.0000000000000000     
  0.50000000000000000       0.62500000000000000        0.0000000000000000     
  0.50000000000000000       0.68750000000000000        0.0000000000000000     
  0.41249999999999998       0.66249999999999998        0.0000000000000000     
  0.45624999999999999       0.66874999999999996        0.0000000000000000     
  0.46250000000000002       0.71250000000000002        0.0000000000000000     
  0.41875000000000001       0.70625000000000004        0.0000000000000000     
  0.31250000000000000       0.50000000000000000        0.0000000000000000     
  0.37500000000000000       0.50000000000000000        0.0000000000000000     
  0.37500000000000000       0.56250000000000000        0.0000000000000000     
  0.28749999999999998       0.53749999999999998        0.0000000000000000     
  0.33124999999999999       0.54374999999999996        0.0000000000000000     
  0.33750000000000002       0.58750000000000002        0.0000000000000000     
  0.29375000000000001       0.58125000000000004        0.0000000000000000     
  0.43750000000000000       0.50000000000000000        0.0000000000000000     
  0.50000000000000000       0.50000000000000000        0.0000000000000000     
  0.50000000000000000       0.56250000000000000        0.0000000000000000     
  0.41249999999999998       0.53749999999999998        0.0000000000000000     
  0.45624999999999999       0.54374999999999996        0.0000000000000000     
  0.46250000000000002       0.58750000000000002        0.0000000000000000     
  0.41875000000000001       0.58125000000000004        0.0000000000000000     
  0.56250000000000000       0.87500000000000000        0.0000000000000000     
  0.62500000000000000       0.87500000000000000        0.0000000000000000     
  0.62500000000000000       0.93750000000000000        0.0000000000000000     
  0.53749999999999998       0.91249999999999998        0.0000000000000000     
  0.58125000000000004       0.91874999999999996        0.0000000000000000     
  0.58750000000000002       0.96250000000000002        0.0000000000000000     
  0.54374999999999996       0.95625000000000004        0.0000000000000000     
  0.68750000000000000       0.87500000000000000        0.0000000000000000     
  0.75000000000000000       0.87500000000000000        0.0000000000000000     
  0.75000000000000000       0.93750000000000000        0.0000000000000000     
  0.66249999999999998       0.91249999999999998        0.0000000000000000     
  0.70625000000000004       0.91874999999999996        0.0000000000000000     
  0.71250000000000002       0.96250000000000002        0.0000000000000000     
[...]
 CELL_DATA         896
 SCALARS VEGF float
 LOOKUP_TABLE default
    0.96573594960943004116E+06
    0.96573594961882964708E+06
    0.96573594963966624346E+06
    0.96573594964382541366E+06
    0.96573594962106435560E+06
    0.96573594960526865907E+06
    0.96573594963254942559E+06
    0.96573594959170441143E+06
    0.96573594960390590131E+06
    0.96573594960969011299E+06
    0.96573594959510629997E+06
    0.96573594962990004569E+06
    0.96573594957266445272E+06
    0.96573594957315083593E+06
    0.96573594971127039753E+06
    0.96573594973721413407E+06
    0.96573594980208075140E+06
    0.96573594980273325928E+06
    0.96573594974482303951E+06
    0.96573594972123729531E+06
    0.96573594973048474640E+06
    0.96573594967732974328E+06
    0.96573594966462103184E+06
    0.96573594962409720756E+06
    0.96573594966342812404E+06
    0.96573594965676427819E+06
    0.96573594966914167162E+06
    0.96573594967194693163E+06
    0.96573594972816668451E+06
    0.96573594973945128731E+06
    0.96573594979377649724E+06
    0.96573594980669685174E+06
    0.96573594974141893908E+06
    0.96573594971637742128E+06
    0.96573594966273324098E+06
    0.96573594966132345144E+06
    0.96573594961824244820E+06
    0.96573594966787612066E+06
    0.96573594967756280676E+06
    0.96573594972886343021E+06
    0.96573594966981059406E+06
    0.96573594966859580018E+06
    0.96573594999321678188E+06
    0.96573595006364875007E+06
    0.96573595027241192292E+06
    0.96573595027019851841E+06
    0.96573595005826896522E+06
    0.96573594999159954023E+06
    0.96573594985129975248E+06
    0.96573594983772374690E+06
    0.96573594973518978804E+06
    0.96573594974786310922E+06
    0.96573594984438200481E+06
    0.96573594984934851527E+06
    0.96573594990787864663E+06
    0.96573594990661588963E+06
    0.96573594995742221363E+06
    0.96573594996033224743E+06
    0.96573595007528341375E+06
    0.96573595003545144573E+06
    0.96573594992471509613E+06
    0.96573594987941381987E+06
    0.96573594987544626929E+06
    0.96573594981641403865E+06
    0.96573594978980137967E+06
    0.96573594974800117780E+06
    0.96573594981524627656E+06
    0.96573594983293733094E+06
    0.96573594983777846210E+06
    0.96573594983353768475E+06
    0.96573595023349521216E+06
    0.96573595017530897167E+06
    0.96573595028834056575E+06
    0.96573595019725349266E+06
    0.96573595005091466010E+06
    0.96573594997329940088E+06
    0.96573594997686659917E+06
    0.96573594994999107439E+06
    0.96573594993608410005E+06
    0.96573594990734104067E+06
    0.96573595000410266221E+06
    0.96573595006508438382E+06
    0.96573595001347851939E+06
    0.96573594998736889102E+06
    0.96573595074098324403E+06
    0.96573595079495362006E+06
    0.96573595124723494519E+06
    0.96573595112436765339E+06
    0.96573595065155532211E+06
    0.96573595041774923448E+06
    0.96573595018169295508E+06
    0.96573595022101746872E+06
    0.96573595002683298662E+06
    0.96573595005841413513E+06
    0.96573595029794948641E+06
    0.96573595037350873463E+06
    0.96573595045408792794E+06
    0.96573595042331248987E+06
    0.96573595203008013777E+06
    0.96573595173192129005E+06
    0.96573595221269654576E+06
    0.96573595181066379882E+06
    0.96573595115274400450E+06
    0.96573595075646857731E+06
    0.96573595044752524700E+06
    0.96573595058659370989E+06
    0.96573595035708555952E+06
    0.96573595047914271709E+06
    0.96573595092549268156E+06
    0.96573595127754320856E+06
    0.96573595108768530190E+06
    0.96573595095399743877E+06
    0.96573594987832801417E+06
    0.96573594992601056583E+06
    0.96573595003910257947E+06
    0.96573595009012881201E+06
    0.96573594996846816503E+06
    0.96573594995343196206E+06
    0.96573594983257760759E+06
    0.96573594981625140645E+06
    0.96573594974753446877E+06
    0.96573594980117771775E+06
    0.96573594982266973238E+06
    0.96573594986765517388E+06
    0.96573594983962713741E+06
    0.96573594984559598379E+06
    0.96573595042355894111E+06
    0.96573595063133118674E+06
    0.96573595109289488755E+06
    0.96573595124842342921E+06
    0.96573595080557989422E+06
    0.96573595076186326332E+06
    0.96573595039107208140E+06
    0.96573595030036277603E+06
    0.96573595004778658040E+06
    0.96573595002989633940E+06
    0.96573595021437713876E+06
    0.96573595018437097315E+06
    0.96573595041000260971E+06
    0.96573595044933876488E+06
    0.96573594996257452294E+06
    0.96573595004221075214E+06
    0.96573595016583451070E+06
    0.96573595027524675243E+06
    0.96573595016971742734E+06
    0.96573595024369691964E+06
    0.96573595007520413492E+06
    0.96573594999612541869E+06
    0.96573594989622244611E+06
    0.96573594993959693238E+06
    0.96573594995457702316E+06
    0.96573594997816183604E+06
    0.96573594998247467447E+06
    0.96573595000742573757E+06
    0.96573595069364109077E+06
    0.96573595114405918866E+06
    0.96573595175744930748E+06
    0.96573595223130378872E+06
    0.96573595174579648301E+06
    0.96573595198874536436E+06
    0.96573595125166501384E+06
    0.96573595093226630706E+06
    0.96573595048335613683E+06
    0.96573595038152742200E+06
    0.96573595059864735231E+06
    0.96573595042272447608E+06
    0.96573595097575860564E+06
    0.96573595111217314843E+06
    0.96573595254430605564E+06
    0.96573595308070117608E+06
    0.96573595454537495971E+06
    0.96573595449985249434E+06
    0.96573595303418743424E+06
    0.96573595253012166359E+06
    0.96573595159301697277E+06
    0.96573595155673800036E+06
    0.96573595093310740776E+06
    0.96573595095749618486E+06
    0.96573595158677198924E+06
    0.96573595160153985489E+06
    0.96573595222609001212E+06
    0.96573595221276080702E+06
    0.96575434363576874603E+06
    0.96573595782553416211E+06
    0.96577155986436363310E+06
    0.96573595891107525676E+06
    0.96573595586059615016E+06
    0.96573595412421156652E+06
    0.96573595284692884888E+06
    0.96573595343193958979E+06
    0.96573595253243274055E+06
    0.96573595285300631076E+06
    0.96573595439909840934E+06
    0.96573595524579018820E+06
    0.96573595537842914928E+06
    0.96573595495543908328E+06
    0.96573595395921997260E+06
    0.96573595567519904580E+06
    0.96573595842612057459E+06
    0.96565372759153414518E+06
    0.96573594931594061200E+06
    0.96571976170362893026E+06
    0.96573594842370646074E+06
    0.96573595442164037377E+06
    0.96573595283419638872E+06
    0.96573595249173091725E+06
    0.96573595336685632356E+06
    0.96573595283097669017E+06
    0.96573595486278610770E+06
    0.96573595533559727482E+06
    0.96581074367817456368E+06
    0.96573597993170446716E+06
    0.96573552951247303281E+06
    0.96573611729389848188E+06
    0.96573597301749023609E+06
    0.96573499127652612515E+06
    0.96573546170536614954E+06
    0.96573574091866228264E+06
    0.96573530037502630148E+06
    0.96573502223830798175E+06
    0.96573556754442071542E+06
    0.96573599787404760718E+06
    0.96573571625696995761E+06
    0.96573596983396052383E+06
    0.96573595043111534324E+06
    0.96573595026793307625E+06
    0.96573595029696659185E+06
    0.96573595015628449619E+06
    0.96573595005868049338E+06
    0.96573594994539103936E+06
    0.96573594999417907093E+06
    0.96573595000605483074E+06
    0.96573595002487977035E+06
    0.96573595000700326636E+06
    0.96573595011991658248E+06
    0.96573595023385272361E+06
    0.96573595009154418949E+06
    0.96573595004475221504E+06
    0.96573595018632989377E+06
    0.96573595002932788339E+06
    0.96573594999226462096E+06
    0.96573594989703514148E+06
    0.96573594986041251104E+06
    0.96573594977446226403E+06
    0.96573594983991701156E+06
    0.96573594986190914642E+06
    0.96573594991689699236E+06
    0.96573594992741337046E+06
    0.96573594998789578676E+06
    0.96573595011462806724E+06
    0.96573594991362851579E+06
    0.96573594987135601696E+06
    0.96573595277647906914E+06
    0.96573595202238275670E+06
    0.96573595212385815103E+06
    0.96573595153302419931E+06
    0.96573595108115347102E+06
    0.96573595059778098948E+06
    0.96573595044650207274E+06
    0.96573595072731189430E+06
    0.96573595059924921952E+06
    0.96573595082115067635E+06
    0.96573595135902729817E+06
    0.96573595195871079341E+06
    0.96573595133996545337E+06
    0.96573595111015380826E+06
    0.96573595158393913880E+06
    0.96573595098969491664E+06
    0.96573595084597181994E+06
    0.96573595052964810748E+06
    0.96573595037866337225E+06
    0.96573595010274602100E+06
    0.96573595007370878011E+06
    0.96573595029256679118E+06
    0.96573595029938989319E+06
    0.96573595052884425968E+06
    0.96573595081850280985E+06
    0.96573595136535959318E+06
    0.96573595064240205102E+06
    0.96573595047739997972E+06
    0.96573594986234337557E+06
    0.96573594977676391136E+06
    0.96573594973803870380E+06
    0.96573594969644187950E+06
    0.96573594968969863839E+06
    0.96573594963962433394E+06
    0.96573594969902350567E+06
    0.96573594970145507250E+06
    0.96573594975344394334E+06
    0.96573594975471636280E+06
    0.96573594978145963978E+06
    0.96573594985418289434E+06
    0.96573594971191580407E+06
    0.96573594968829990830E+06
    0.96573594966997590382E+06
    0.96573594964433426503E+06
    0.96573594963111262769E+06
    0.96573594965221383609E+06
    0.96573594961627293378E+06
    0.96573594962946185842E+06
    0.96573594963317806832E+06
    0.96573594961284007877E+06
    0.96573594964675593656E+06
    0.96573594963154965080E+06
    0.96573594964686164167E+06
    0.96573594967208395246E+06
    0.96573594960021623410E+06
    0.96573594959189346991E+06
    0.96573595039671589620E+06
    0.96573595014027087018E+06
    0.96573595003670942970E+06
    0.96573594992138352245E+06
    0.96573594988627452403E+06
    0.96573594976899656467E+06
    0.96573594977271964308E+06
    0.96573594988283584826E+06
    0.96573594991093187127E+06
    0.96573595004214521032E+06
    0.96573595014280616306E+06
    0.96573595039882615674E+06
    0.96573595000601955689E+06
    0.96573594993180839811E+06
    0.96573594985207519494E+06
    0.96573594977893284522E+06
    0.96573594975427957252E+06
    0.96573594975890242495E+06
    0.96573594970489188563E+06
    0.96573594969532277901E+06
    0.96573594964918470941E+06
    0.96573594968627113849E+06
    0.96573594968599290587E+06
    0.96573594974347506650E+06
    0.96573594977929990273E+06
    0.96573594986445410177E+06
    0.96573594971191859804E+06
    0.96573594968830223661E+06
    0.96573596280364831910E+06
    0.96573595896900887601E+06
    0.96573595854911603965E+06
    0.96573595623041677754E+06
    0.96573595489350357093E+06
    0.96573595311593171209E+06
    0.96573595267700613476E+06
    0.96573595385787915438E+06
    0.96573595348174450919E+06
    0.96573595439448277466E+06
    0.96573595661398465745E+06
    0.96573595939876651391E+06
    0.96573595640033390373E+06
    0.96573595540095330216E+06
    0.96573595536419877317E+06
    0.96573595351734792348E+06
    0.96573595275888196193E+06
    0.96573595197598158848E+06
    0.96573595177652698476E+06
    0.96573595106295845471E+06
    0.96573595106668176595E+06
    0.96573595177308819257E+06
    0.96573595196552854031E+06
    0.96573595276430225931E+06
    0.96573595351987902541E+06
    0.96573595536628901027E+06
    0.96573595278881583363E+06
    0.96573595228115806822E+06
    0.96573702599474159069E+06
    0.96573908394315408077E+06
    0.96573663631917641032E+06
    0.96573596626923559234E+06
    0.96573596599584375508E+06
    0.96573596030818799045E+06
    0.96573596030958427582E+06
    0.96573596595811774023E+06
    0.96573418515782407485E+06
    0.96573837484248110559E+06
    0.96573729137677443214E+06
    0.96573600205343123525E+06
    0.96573991854703961872E+06
    0.96573615771841560490E+06
    0.96573595972224359866E+06
    0.96573595669735711999E+06
    0.96573595455643080641E+06
    0.96573595353080355562E+06
    0.96573595386779261753E+06
    0.96573595267391938251E+06
    0.96573595311974035576E+06
    0.96573595489062438719E+06
    0.96573595622016873676E+06
    0.96573595855606370606E+06
    0.96573595898574590683E+06
    0.96573596291286055930E+06
    0.96573595641401712783E+06
    0.96573595540540572256E+06
    0.96573595136324490886E+06
    0.96573595081596868113E+06
    0.96573595052341232076E+06
    0.96573595030984189361E+06
    0.96573595029600546695E+06
    0.96573595006998570170E+06
    0.96573595010646933224E+06
    0.96573595037522469647E+06
    0.96573595051919657271E+06
    0.96573595085140760057E+06
    0.96573595099223032594E+06
    0.96573595158605033066E+06
    0.96573595064240216743E+06
    0.96573595047739997972E+06
    0.96573595011250826064E+06
    0.96573594998536957428E+06
    0.96573594992697844282E+06
    0.96573594992235559039E+06
    0.96573594986534595955E+06
    0.96573594983621640131E+06
    0.96573594978402263951E+06
    0.96573594985698489472E+06
    0.96573594988658628426E+06
    0.96573594999770098366E+06
    0.96573595003186387476E+06
    0.96573595018844073638E+06
    0.96573594991363142617E+06
    0.96573594987135834526E+06
    0.96573595205890806392E+06
    0.96573595138089987449E+06
    0.96573595085372275207E+06
    0.96573595061855006497E+06
    0.96573595073222531937E+06
    0.96573595044291473459E+06
    0.96573595060151384678E+06
    0.96573595107785821892E+06
    0.96573595152261969633E+06
    0.96573595212971291039E+06
    0.96573595202891761437E+06
    0.96573595280409732368E+06
    0.96573595134384720586E+06
    0.96573595111137046479E+06
    0.96573595026231184602E+06
    0.96573595012637099717E+06
    0.96573595002676779404E+06
    0.96573595003550173715E+06
    0.96573595001032552682E+06
    0.96573594999055541120E+06
    0.96573594995494897012E+06
    0.96573595005529990885E+06
    0.96573595014583843295E+06
    0.96573595030250458512E+06
    0.96573595027158851735E+06
    0.96573595044006407261E+06
    0.96573595009294315241E+06
    0.96573595004522311501E+06
    0.96573594989655108657E+06
    0.96573594998910627328E+06
    0.96573595006841397844E+06
    0.96573595020823087543E+06
    0.96573595018979860470E+06
    0.96573595033507957123E+06
    0.96573595017706486396E+06
    0.96573595005412667524E+06
    0.96573594995632534847E+06
    0.96573594996908144094E+06
    0.96573594994533585850E+06
    0.96573594993383274414E+06
    0.96573594997820933349E+06
    0.96573595002464961726E+06
    0.96573595046540407930E+06
    0.96573595088609680533E+06
    0.96573595129196031485E+06
    0.96573595181090047117E+06
    0.96573595170480397064E+06
    0.96573595240548322909E+06
    0.96573595175316277891E+06
    0.96573595113697391935E+06
    0.96573595068368478678E+06
    0.96573595048908621538E+06
    0.96573595058045117185E+06
    0.96573595033063017763E+06
    0.96573595089496299624E+06
    0.96573595109421247616E+06
    0.96573594974211056251E+06
    0.96573594981588027440E+06
    0.96573594984960393049E+06
    0.96573594994172547013E+06
    0.96573594996663276106E+06
    0.96573595009787089657E+06
    0.96573595003722188994E+06
    0.96573594992472580634E+06
    0.96573594987342599779E+06
    0.96573594988060684409E+06
    0.96573594982262793928E+06
    0.96573594979721982963E+06
    0.96573594982272619382E+06
    0.96573594986007479019E+06
    0.96573595002562785521E+06
    0.96573595026384026278E+06
    0.96573595038909057621E+06
    0.96573595068415789865E+06
    0.96573595081852842122E+06
    0.96573595133384712972E+06
    0.96573595115943579003E+06
    0.96573595067492360249E+06
    0.96573595039828645531E+06
    0.96573595020858803764E+06
    0.96573595020075235516E+06
    0.96573595000351360068E+06
    0.96573595036021643318E+06
    0.96573595051235822029E+06
    0.96573595265201537404E+06
    0.96573595425460010301E+06
    0.96575295666388608515E+06
    0.96573587865371140651E+06
    0.96573032990289328154E+06
    0.96573646535419626161E+06
    0.96573083241024054587E+06
    0.96573595589742786251E+06
    0.96573595396595471539E+06
    0.96573595306670316495E+06
    0.96573595338956825435E+06
    0.96573595229313126765E+06
    0.96573595476620888803E+06
    0.96573595565864536911E+06
    0.96573580508377123624E+06
    0.96573577365063375328E+06
    0.96573649480159161612E+06
    0.96573656865449971519E+06
    0.96572962513072311413E+06
    0.96571138605919596739E+06
    0.96573470602333650459E+06
    0.96573625202842615545E+06
    0.96573596779308561236E+06
    0.96573596502352331299E+06
    0.96576278339074505493E+06
    0.96573596013569319621E+06
    0.96573532653405843303E+06
    0.96573479130321729463E+06
    0.96573595089000579901E+06
    0.96573595151335478295E+06
    0.96573595167645928450E+06
    0.96573595236017927527E+06
    0.96573595304108620621E+06
    0.96573595472285291180E+06
    0.96573595465656579472E+06
    0.96573595298722840380E+06
    0.96573595232222590130E+06
    0.96573595166012225673E+06
    0.96573595149028231390E+06
    0.96573595087480812799E+06
    0.96573595192967285402E+06
    0.96573595236817817204E+06
    0.96573595224607037380E+06
    0.96573595333578076679E+06
    0.96573595310455583967E+06
    0.96573595413077762350E+06
    0.96573595589454367291E+06
    0.96573402275330247357E+06
    0.96573756712881207932E+06
    0.96573405581522849388E+06
    0.96573550496196653694E+06
    0.96573513673405162990E+06
    0.96573595428319368511E+06
    0.96573595266041019931E+06
    0.96573595471064583398E+06
    0.96573595560889679473E+06
    0.96573594962640781887E+06
    0.96573594966347434092E+06
    0.96573594966514944099E+06
    0.96573594971155025996E+06
    0.96573594974644458853E+06
    0.96573594982271397021E+06
    0.96573594982022186741E+06
    0.96573594974700000603E+06
    0.96573594971640477888E+06
    0.96573594972968078218E+06
    0.96573594968056038488E+06
    0.96573594967772881500E+06
    0.96573594966187223326E+06
    0.96573594968433189206E+06
    0.96573594973501015920E+06
    0.96573594984186638612E+06
    0.96573594986877008341E+06
    0.96573594997822539881E+06
    0.96573595006786414888E+06
    0.96573595028838817962E+06
    0.96573595028309756890E+06
    0.96573595005813357420E+06
    0.96573594996481947601E+06
    0.96573594987209257670E+06
    0.96573594984038453549E+06
    0.96573594973427150398E+06
    0.96573594987904024310E+06
    0.96573594994448439684E+06
    0.96573594962089112960E+06
    0.96573594960025092587E+06
    0.96573594963352847844E+06
    0.96573594962194666732E+06
    0.96573594963237852789E+06
    0.96573594965134444647E+06
    0.96573594965320674237E+06
    0.96573594962753716391E+06
    0.96573594961044343654E+06
    0.96573594963746040594E+06
    0.96573594960179994814E+06
    0.96573594961656350642E+06
    0.96573594957783934660E+06
    0.96573594958708493505E+06
    0.96573594967905897647E+06
    0.96573594967576663475E+06
    0.96573594972438854165E+06
    0.96573594972639158368E+06
    0.96573594974707555957E+06
    0.96573594981005392037E+06
    0.96573594982576824259E+06
    0.96573594974393188022E+06
    0.96573594970454147551E+06
    0.96573594967341981828E+06
    0.96573594966650381684E+06
    0.96573594962869514711E+06
    0.96573594965979782864E+06
    0.96573594968209706713E+06
    0.96573594999198557343E+06
    0.96573595018719579093E+06
    0.96573595020452607423E+06
    0.96573595041053881869E+06
    0.96573595065871556289E+06
    0.96573595112829026766E+06
    0.96573595134215475991E+06
    0.96573595082155056298E+06
    0.96573595069433946628E+06
    0.96573595040949829854E+06
    0.96573595026846835390E+06
    0.96573595002723636571E+06
    0.96573595034850831144E+06
    0.96573595049942762125E+06
    0.96573595033678028267E+06
    0.96573595058754750062E+06
    0.96573595047827297822E+06
    0.96573595072259474546E+06
    0.96573595117679703981E+06
    0.96573595185942866374E+06
    0.96573595245889073703E+06
    0.96573595171742991079E+06
    0.96573595176399941556E+06
    0.96573595126790367067E+06
    0.96573595089501177426E+06
    0.96573595047610451002E+06
    0.96573595091913908254E+06