# vtk DataFile Version 3.0
LAPLACIEN  2D
ASCII
DATASET UNSTRUCTURED_GRID
 POINTS        1857  float
   3.1250000000000000E-002  0.93750000000000000        0.0000000000000000     
   6.2500000000000000E-002  0.93750000000000000        0.0000000000000000     
   6.2500000000000000E-002  0.96875000000000000        0.0000000000000000     
   1.8749999999999999E-002  0.95625000000000004        0.0000000000000000     
   4.0625000000000001E-002  0.95937499999999998        0.0000000000000000     
   4.3749999999999997E-002  0.98124999999999996        0.0000000000000000     
   2.1874999999999999E-002  0.97812500000000002        0.0000000000000000     
   9.3750000000000000E-002  0.93750000000000000        0.0000000000000000     
  0.12500000000000000       0.93750000000000000        0.0000000000000000     
  0.12500000000000000       0.96875000000000000        0.0000000000000000     
   8.1250000000000003E-002  0.95625000000000004        0.0000000000000000     
  0.10312499999999999       0.95937499999999998        0.0000000000000000     
  0.10625000000000000       0.98124999999999996        0.0000000000000000     
   8.4375000000000006E-002  0.97812500000000002        0.0000000000000000     
   3.1250000000000000E-002  0.87500000000000000        0.0000000000000000     
   6.2500000000000000E-002  0.87500000000000000        0.0000000000000000     
   6.2500000000000000E-002  0.90625000000000000        0.0000000000000000     
   1.8749999999999999E-002  0.89375000000000004        0.0000000000000000     
   4.0625000000000001E-002  0.89687499999999998        0.0000000000000000     
   4.3749999999999997E-002  0.91874999999999996        0.0000000000000000     
   2.1874999999999999E-002  0.91562500000000002        0.0000000000000000     
   9.3750000000000000E-002  0.87500000000000000        0.0000000000000000     
  0.12500000000000000       0.87500000000000000        0.0000000000000000     
  0.12500000000000000       0.90625000000000000        0.0000000000000000     
   8.1250000000000003E-002  0.89375000000000004        0.0000000000000000     
  0.10312499999999999       0.89687499999999998        0.0000000000000000     
  0.10625000000000000       0.91874999999999996        0.0000000000000000     
   8.4375000000000006E-002  0.91562500000000002        0.0000000000000000     
  0.15625000000000000       0.93750000000000000        0.0000000000000000     
  0.18750000000000000       0.93750000000000000        0.0000000000000000     
  0.18750000000000000       0.96875000000000000        0.0000000000000000     
  0.14374999999999999       0.95625000000000004        0.0000000000000000     
  0.16562499999999999       0.95937499999999998        0.0000000000000000     
  0.16875000000000001       0.98124999999999996        0.0000000000000000     
  0.14687500000000001       0.97812500000000002        0.0000000000000000     
  0.21875000000000000       0.93750000000000000        0.0000000000000000     
  0.25000000000000000       0.93750000000000000        0.0000000000000000     
  0.25000000000000000       0.96875000000000000        0.0000000000000000     
  0.20624999999999999       0.95625000000000004        0.0000000000000000     
  0.22812499999999999       0.95937499999999998        0.0000000000000000     
  0.23125000000000001       0.98124999999999996        0.0000000000000000     
  0.20937500000000001       0.97812500000000002        0.0000000000000000     
  0.15625000000000000       0.87500000000000000        0.0000000000000000     
  0.18750000000000000       0.87500000000000000        0.0000000000000000     
  0.18750000000000000       0.90625000000000000        0.0000000000000000     
  0.14374999999999999       0.89375000000000004        0.0000000000000000     
  0.16562499999999999       0.89687499999999998        0.0000000000000000     
  0.16875000000000001       0.91874999999999996        0.0000000000000000     
  0.14687500000000001       0.91562500000000002        0.0000000000000000     
  0.21875000000000000       0.87500000000000000        0.0000000000000000     
  0.25000000000000000       0.87500000000000000        0.0000000000000000     
  0.25000000000000000       0.90625000000000000        0.0000000000000000     
  0.20624999999999999       0.89375000000000004        0.0000000000000000     
  0.22812499999999999       0.89687499999999998        0.0000000000000000     
  0.23125000000000001       0.91874999999999996        0.0000000000000000     
  0.20937500000000001       0.91562500000000002        0.0000000000000000     
   3.1250000000000000E-002  0.81250000000000000        0.0000000000000000     
   6.2500000000000000E-002  0.81250000000000000        0.0000000000000000     
   6.2500000000000000E-002  0.84375000000000000        0.0000000000000000     
   1.8749999999999999E-002  0.83125000000000004        0.0000000000000000     
   4.0625000000000001E-002  0.83437499999999998        0.0000000000000000     
   4.3749999999999997E-002  0.85624999999999996        0.0000000000000000     
   2.1874999999999999E-002  0.85312500000000002        0.0000000000000000     
   9.3750000000000000E-002  0.81250000000000000        0.0000000000000000     
  0.12500000000000000       0.81250000000000000        0.0000000000000000     
  0.12500000000000000       0.84375000000000000        0.0000000000000000     
   8.1250000000000003E-002  0.83125000000000004        0.0000000000000000     
  0.10312499999999999       0.83437499999999998        0.0000000000000000     
  0.10625000000000000       0.85624999999999996        0.0000000000000000     
   8.4375000000000006E-002  0.85312500000000002        0.0000000000000000     
   3.1250000000000000E-002  0.75000000000000000        0.0000000000000000     
   6.2500000000000000E-002  0.75000000000000000        0.0000000000000000     
   6.2500000000000000E-002  0.78125000000000000        0.0000000000000000     
   1.8749999999999999E-002  0.76875000000000004        0.0000000000000000     
   4.0625000000000001E-002  0.77187499999999998        0.0000000000000000     
   4.3749999999999997E-002  0.79374999999999996        0.0000000000000000     
   2.1874999999999999E-002  0.79062500000000002        0.0000000000000000     
   9.3750000000000000E-002  0.75000000000000000        0.0000000000000000     
  0.12500000000000000       0.75000000000000000        0.0000000000000000     
  0.12500000000000000       0.78125000000000000        0.0000000000000000     
   8.1250000000000003E-002  0.76875000000000004        0.0000000000000000     
  0.10312499999999999       0.77187499999999998        0.0000000000000000     
  0.10625000000000000       0.79374999999999996        0.0000000000000000     
   8.4375000000000006E-002  0.79062500000000002        0.0000000000000000     
  0.15625000000000000       0.81250000000000000        0.0000000000000000     
  0.18750000000000000       0.81250000000000000        0.0000000000000000     
  0.18750000000000000       0.84375000000000000        0.0000000000000000     
  0.14374999999999999       0.83125000000000004        0.0000000000000000     
  0.16562499999999999       0.83437499999999998        0.0000000000000000     
  0.16875000000000001       0.85624999999999996        0.0000000000000000     
  0.14687500000000001       0.85312500000000002        0.0000000000000000     
  0.21875000000000000       0.81250000000000000        0.0000000000000000     
  0.25000000000000000       0.81250000000000000        0.0000000000000000     
  0.25000000000000000       0.84375000000000000        0.0000000000000000     
  0.20624999999999999       0.83125000000000004        0.0000000000000000     
  0.22812499999999999       0.83437499999999998        0.0000000000000000     
  0.23125000000000001       0.85624999999999996        0.0000000000000000     
  0.20937500000000001       0.85312500000000002        0.0000000000000000     
  0.15625000000000000       0.75000000000000000        0.0000000000000000     
  0.18750000000000000       0.75000000000000000        0.0000000000000000     
  0.18750000000000000       0.78125000000000000        0.0000000000000000     
  0.14374999999999999       0.76875000000000004        0.0000000000000000     
  0.16562499999999999       0.77187499999999998        0.0000000000000000     
  0.16875000000000001       0.79374999999999996        0.0000000000000000     
  0.14687500000000001       0.79062500000000002        0.0000000000000000     
  0.21875000000000000       0.75000000000000000        0.0000000000000000     
  0.25000000000000000       0.75000000000000000        0.0000000000000000     
  0.25000000000000000       0.78125000000000000        0.0000000000000000     
  0.20624999999999999       0.76875000000000004        0.0000000000000000     
  0.22812499999999999       0.77187499999999998        0.0000000000000000     
  0.23125000000000001       0.79374999999999996        0.0000000000000000     
  0.20937500000000001       0.79062500000000002        0.0000000000000000     
  0.28125000000000000       0.93750000000000000        0.0000000000000000     
  0.31250000000000000       0.93750000000000000        0.0000000000000000     
  0.31250000000000000       0.96875000000000000        0.0000000000000000     
  0.26874999999999999       0.95625000000000004        0.0000000000000000     
  0.29062500000000002       0.95937499999999998        0.0000000000000000     
  0.29375000000000001       0.98124999999999996        0.0000000000000000     
  0.27187499999999998       0.97812500000000002        0.0000000000000000     
  0.34375000000000000       0.93750000000000000        0.0000000000000000     
  0.37500000000000000       0.93750000000000000        0.0000000000000000     
  0.37500000000000000       0.96875000000000000        0.0000000000000000     
  0.33124999999999999       0.95625000000000004        0.0000000000000000     
  0.35312500000000002       0.95937499999999998        0.0000000000000000     
  0.35625000000000001       0.98124999999999996        0.0000000000000000     
[...]
 CELL_DATA        3584
 SCALARS Cells_density float
 LOOKUP_TABLE default
    0.82503393405682642517E-35
    0.48818642479799142852E-35
    0.14088605433630679607E-33
    0.14594728596835371586E-34
    0.46956685743579460329E-36
    0.55563434030431228231E-37
    0.19604264138381000513E-38
    0.91109339973497745138E-39
    0.49267556346593229730E-40
    0.42784695411723145331E-39
    0.13888117477158317742E-37
    0.30207180656453013121E-36
    0.15886287790429352376E-36
    0.26668069564399144477E-37
    0.26211423160264338169E-32
    0.67639611875783547305E-32
    0.19118677250435454904E-30
    0.10049479330174792300E-29
    0.36933055314122550120E-31
    0.26111460012117486040E-31
    0.10407568324288185707E-32
    0.79213656963662646414E-34
    0.26586852083548505806E-35
    0.57859202799746524380E-36
    0.14572438445105146566E-34
    0.94542837185638959212E-34
    0.33639124280359087350E-33
    0.13126177405670892240E-32
    0.85053503153612119507E-29
    0.71431735894812125031E-29
    0.18072565743632379149E-27
    0.23105765179160874595E-28
    0.85363360509505866602E-30
    0.47442133262773509748E-31
    0.18062801246738180257E-32
    0.20056310626179721676E-32
    0.10501306927402360493E-33
    0.76446419472834565296E-33
    0.21739315535108552909E-31
    0.35850858176058615533E-30
    0.26599831830284721620E-30
    0.53159821349687591205E-31
    0.33976066248424371285E-26
    0.14536876221192572054E-26
    0.33107576990849090885E-25
    0.38269870159055143215E-26
    0.15019919271439232972E-27
    0.41131139055275970952E-28
    0.16258678315006779770E-29
    0.46902647458679057425E-30
    0.29840562959471842614E-31
    0.24921799729622730038E-30
    0.71806458573788831214E-29
    0.14112621113313417835E-27
    0.57139542859973252014E-28
    0.10758723948019575092E-28
    0.28759883525346032262E-27
    0.30785036768583020294E-26
    0.75586135366730133042E-25
    0.26356437386165290009E-24
    0.11173136059291695937E-25
    0.46611292172741274765E-26
    0.21499889119345749017E-27
    0.26620722632789239653E-28
    0.10310491700841199542E-29
    0.29842761719866785383E-30
    0.69283487897775305791E-29
    0.11789965433256436757E-28
    0.16272217868771182156E-27
    0.46110745676405838789E-27
    0.55975036495410049834E-22
    0.35936857558086063204E-21
    0.74480990153422557579E-20
    0.11194867974751168577E-19
    0.55277555263317012413E-21
    0.12228210987642000121E-21
    0.65399758326747879600E-23
    0.15775060986216856149E-23
    0.72395827186929652966E-25
    0.44483658364104816111E-25
    0.10046399874359363839E-23
    0.26594903048534656805E-23
    0.19202942715118104128E-22
    0.27508019879970061213E-22
    0.42922982832623625119E-24
    0.23982923239943753130E-23
    0.54657332539018775232E-22
    0.31649130310901583897E-21
    0.14796589646798325324E-22
    0.13427642764807707680E-22
    0.61441000917449926046E-24
    0.52338553961007762018E-25
    0.19971746388689222007E-26
    0.40735644505008281667E-27
    0.77292375152958850334E-26
    0.19000181996455961827E-25
    0.16408964983064899976E-24
    0.64937079795003858683E-24
    0.57246676900191815950E-19
    0.56882634001264839806E-18
    0.10736673838189927736E-16
    0.37587738997313882528E-16
    0.21084722475279083490E-17
    0.10945271774233183925E-17
    0.59480147946331894518E-19
    0.86436782785373518400E-20
    0.39035992012498013183E-21
    0.12402006951690073690E-21
    0.22347208641289815915E-20
    0.29911201990407531840E-20
    0.41183004233723240446E-19
    0.11207115112313005911E-18
    0.25572873287894621956E-23
    0.34435649133407161918E-23
    0.74906833987074133031E-22
    0.14282109697086500922E-22
    0.61925534323699901395E-24
    0.46082140797961580552E-25
    0.20197325414880451733E-26
    0.17891233999345360226E-26
    0.93750544680068174620E-28
    0.46585610226555039856E-27
    0.11372516538687358332E-25
    0.12645094075078577330E-24
    0.15005329879181552071E-24
    0.40323396925014488318E-25
    0.18389122119548686724E-20
    0.11006136417761626234E-20
    0.21282818910243151791E-19
    0.26919568528912847167E-20
    0.12505212309041136122E-21
    0.73527709807108676058E-23
    0.35015091073245314427E-24
    0.50633835575440282339E-24
    0.35726125862372828984E-25
    0.24548385808945647378E-24
    0.60794280622350685126E-23
    0.89857577027798581492E-22
    0.51062850332290422228E-22
    0.10850420302757247781E-22
    0.14267050721382314423E-18
    0.36653571981852170329E-18
    0.67104528976338564328E-17
    0.23705393010029882400E-17
    0.12383805389469485092E-18
    0.13879066934794914594E-19
    0.71375939179635087654E-21
    0.44686380156387863252E-21
    0.23694110629636318456E-22
    0.67241338769348056057E-22
    0.13743461103750374089E-20
    0.83932364895232344654E-20
    0.19278219506859419936E-19
    0.82529580652874228820E-20
    0.25688047936295124180E-15
    0.24754361268127581404E-15
    0.39392263375504218044E-14
    0.73175298238507841182E-15
    0.41843848853667998339E-16
    0.33317348707859700229E-17
    0.18999605037992470228E-18
    0.22729841202955932365E-18
    0.16232087298831030886E-19
    0.75137875275222731854E-19
    0.15559268335843967921E-17
    0.15176333296303362795E-16
    0.14059071490760220346E-16
    0.39776254233951536574E-17
    0.19433606983675180126E-18
    0.51590808737515579730E-19
    0.83643651436402119954E-18
    0.14342008402192178292E-18
    0.72902634612128617496E-20
    0.64528673744891605086E-20
    0.31892085276039934403E-21
    0.42754605950363137213E-22
    0.34714931036295639993E-23
    0.24896136143775468616E-22
    0.57552939812129405617E-21
    0.10250894952325703794E-19
    0.25487236250580528670E-20
    0.61767499132789017509E-21
    0.11925335764054445932E-16
    0.12171925508518758029E-15
    0.21014069854129687955E-14
    0.12362468549720214073E-13
    0.79942907004207944350E-15
    0.10409250646944872234E-14
    0.62475848844124937728E-16
    0.57908602770774690423E-17
    0.28276743092085085007E-18
    0.55223735640814827508E-19
    0.71551944725893529234E-18
    0.68875554127097551771E-18
    0.12315987861056156397E-16
    0.45849385494430061704E-16
    0.44198010153428544581E-13
    0.16073559940790168075E-13
    0.21006429921783012347E-12
    0.27731280797107457198E-13
    0.17122434412195085177E-14
    0.11077248286187738761E-15
    0.70206703766644444642E-17
    0.13842767605829343248E-16
    0.16262648492867355673E-17
    0.11358851241707575828E-16
    0.21670793280317790994E-15
    0.28840665178330103143E-14
    0.97999534739242757302E-15
    0.22855937818383188941E-15
    0.72936933241461968289E-12
    0.11549371391254634581E-12
    0.10690632637000312193E-11
    0.54112210510867536040E-12
    0.41629129355798035139E-13
    0.11107878484954817314E-12
    0.73685919644628627684E-14
    0.62301446966295732867E-15
    0.50341182940548110031E-16
    0.20231952881163186648E-15
    0.35109528651149179663E-14
    0.52581585004520444612E-13
    0.76297430870091776880E-14
    0.35358438477387834430E-14
    0.16933142963212585505E-17
    0.49586035054670654669E-17
    0.86190854678612885579E-16
    0.34002184634084975930E-16
    0.18710302359174540355E-17
    0.22499981842163128314E-18
    0.13445218497478573333E-19
    0.73983580474537382393E-20
    0.43431547076825241568E-21
    0.91090880385582645744E-21
    0.19413184047777813841E-19
    0.94111976574068926194E-19
    0.27533226588457727915E-18
    0.12855189111136332046E-18
    0.33925861716328096153E-14
    0.33824448419552585217E-14
    0.50717133330567046641E-13
    0.99263428844654013530E-14
    0.60043338956355339307E-15
    0.50167325484320466848E-16
    0.33700524412538638493E-17
    0.36344750242484495369E-17
    0.29952767791553157232E-18
    0.11816980894704819308E-17
    0.23266878160812816672E-16
    0.21140356302366666835E-15
    0.20282235447202952685E-15
    0.60057799361831086891E-16
    0.46259995521020160373E-14
    0.26477972719179098825E-13
    0.39732293440014923393E-12
    0.57721005930803851284E-12
    0.39714000069935650670E-13
    0.99097947260061530210E-14
    0.64393958649694870856E-15
    0.20927460897897023537E-15
    0.11621450066855859153E-16
    0.80996528847497127938E-17
    0.13889252518683116791E-15
    0.29268279699671107552E-15
    0.19702680726584631420E-14
    0.27138006066550395762E-14
    0.44831708158992481542E-10
    0.98128181449917537244E-10
    0.11442302772587884807E-08
    0.43980131314968417170E-09
    0.35051658115372132472E-10
    0.46381190183346039424E-11
    0.34846852529586013451E-12
    0.29677315446508354319E-12
    0.22751924809107274369E-13
    0.52944462507448804118E-13
    0.82817714603568196601E-12
    0.35105574036081037226E-11
    0.77677983312542390245E-11
    0.37377513966380438551E-11
    0.53692903824940863591E-12
    0.19080706171619052324E-12
    0.23026152084712311650E-11
    0.31474492787121231157E-12
    0.20663083294558706371E-13
    0.13821019834518673296E-14
    0.10501030498768124548E-15
    0.19128857714838029700E-15
    0.26924826611904742299E-16
    0.16265844006110541152E-15
    0.29385696743367249635E-14
    0.37183291166854323827E-13
    0.12329491187090180532E-13
    0.29768915898811118096E-14
    0.68686728908704311180E-11
    0.97138687277893440622E-12
    0.75050786038034145892E-11
    0.92292509077685396189E-12
    0.62183187956241103211E-13
    0.38343205863569025309E-14
    0.31693085641308382635E-15
    0.87786695649667676560E-15
    0.28488351826853414311E-15
    0.22403912343928775401E-14
    0.36877306079001884671E-13
    0.53201606361894458001E-12
    0.65500794164400273191E-13
    0.13304000019536036222E-13
    0.18620351209300488026E-07
    0.10780143768018971504E-07
    0.97319658300211747514E-07
    0.19702301917302036241E-07
    0.17642797667840332832E-08
    0.16682615520755858028E-09
    0.14686026949330473664E-10
    0.26317768344051704135E-10
    0.33876216262210043996E-11
    0.15192814636919853581E-10
    0.21267329442764247871E-09
    0.17151917191692870770E-08
    0.93981898430873663333E-09
    0.30857825117606977558E-09
    0.31504030417846162143E-06
    0.63070971124394924574E-07
    0.35350986962124418701E-06
    0.60810020120987823422E-07
    0.56494137563167541923E-08
    0.47625364341184040524E-09
    0.46871909091909775202E-10
    0.13652098038378348072E-09
    0.41292788916642038224E-10
    0.27045334850962698449E-09
    0.33546596331660452512E-08
    0.33894553102427247275E-07
    0.58075718036823266286E-08
    0.15496289503663794173E-08
    0.12284241016209800386E-11
    0.10918311857178220860E-10
    0.14468439991566052754E-09
    0.50389372947379212844E-09
    0.41825635698283254724E-10
    0.29867428913065267555E-10
    0.22677966228078701608E-11
    0.37377176072719997036E-12
    0.22823260948612301224E-13
    0.73589709336977669305E-14
    0.91301079667592828206E-13
    0.88824917748727270893E-13
    0.12250364058035391032E-11
    0.31172951067362851211E-11
    0.29214333897520699793E-07
    0.14052084545606256154E-06
    0.13134932563382309464E-05
    0.18137044636720296784E-05
    0.20423779910548590086E-06
    0.60382066254449311626E-07
    0.59471645013878268330E-08
    0.26499116570853120188E-08
    0.21705848221292320498E-09
    0.15809993915840229472E-09
    0.18185555764266526819E-08
    0.27747354391412858451E-08
    0.16998411134889133005E-07
    0.22172184966467644160E-07
    0.35149098261727046923E-10
    0.38994662513198580931E-09
    0.46363925991501599679E-08
    0.25574850859192082921E-07
    0.27311877189040462096E-08
    0.59021299847867090003E-08
    0.51534110940150885655E-09
    0.55478993690330487428E-10
    0.37695423102849927122E-11
    0.73375567474250380784E-12
    0.54267614799845271965E-11
    0.29406410399829664542E-11
    0.67499887183824275385E-10
    0.22370062715894962464E-09
    0.10879137821428821895E-05
    0.79331987245936148206E-05
    0.62300088655202723016E-04
    0.19984665385751587121E-03
    0.31591603122548265103E-04
    0.36294819987201886022E-04
    0.45737411269868690213E-05
    0.93166745308814902745E-06
    0.87906330315624949645E-07
    0.29179558489804086190E-07
    0.20336520689270533540E-06
    0.12803085173133216974E-06
    0.17409021340646695263E-05
    0.38800015929514068547E-05
    0.51952730367659235113E-04
    0.71530482164265072080E-04
    0.43315107138723054573E-03
    0.16552446163885527176E-03
    0.23065429623245040542E-04
    0.36634099796050888211E-05
    0.45773304376068295145E-06
    0.63958964306453014677E-06
    0.85994258204081092630E-07
    0.20016754978996788890E-06
    0.19849408010452230151E-05
    0.68719659196774545736E-05
    0.96815148497871006509E-05
    0.50086267185420235132E-05
    0.16854255711286451891E-02
    0.56390504161024646024E-03
    0.19866843430384351771E-02
    0.55776176586730451343E-03
    0.82852047965935828240E-04
    0.10925938625371791246E-04
    0.16191887311244634295E-05
    0.42156405935252731906E-05
    0.13725671820271020464E-05
    0.59129527519644242936E-05
    0.49358685409830350282E-04
    0.29171637274060983154E-03
    0.82169758908899555088E-04
    0.31686721605549037991E-04
    0.35138443105337657107E-02
    0.11729881010303483055E-01
    0.47353092363770409035E-01
    0.58432680687148727539E-01
    0.16203459956119773550E-01
    0.65459380554753737042E-02
    0.13136006554256721233E-02
    0.97975580020386921799E-03
    0.15137539813292596666E-03
    0.11799337798015202658E-03
    0.70781029873667625305E-03
    0.66466747396152722240E-03
    0.33641869162817799634E-02
    0.40067942625352931385E-02
    0.26927452820028935365E+00
    0.21312246129995118804E+00
    0.36420907710376271282E+00
    0.22590976660254646902E+00
    0.75779815333625821783E-01
    0.20903886295754191965E-01
    0.58216130312139574218E-02
    0.12184557854231857499E-01
    0.46086568957922936784E-02
    0.10260804416937146372E-01
    0.45299737824903811567E-01
    0.99944384787515549995E-01
    0.71444702109512356336E-01
    0.46815280510899434652E-01
    0.86340873211383078809E-15
    0.40417345469965283362E-14
    0.62675219118054082294E-13
    0.62674811629396558683E-13
    0.40415649781344473342E-14
    0.86029782956087100519E-15
    0.52961178643515184474E-16
    0.19226950686583009611E-16
    0.10532237500565214870E-17
    0.11797905015947713835E-17
    0.19575062130597201679E-16
    0.59897723491781013764E-16
    0.27181609711644010963E-15
    0.27179322714761409369E-15
    0.53407490325099918454E-11
    0.10325461219725582394E-10
    0.12975315386542563980E-09
    0.44707312154289320121E-10
    0.33072699829286100691E-11
    0.40558046825998383188E-12
    0.28619219683433246212E-13
    0.24808948114941164876E-13
    0.18260503547047645624E-14
    0.47115169899668041787E-14
    0.78581081135843557273E-13
    0.39138447129983336131E-12
    0.75766687557666338536E-12
    0.33543088950096900900E-12
    0.40640068256044539043E-12
    0.33074438780624440703E-11
    0.44709359927960102576E-10
    0.12975759973090050165E-09
    0.10325756150795100724E-10
    0.53408128261779820884E-11
    0.39138836396808092383E-12
    0.78583536907273040698E-13
    0.47335597421299611211E-14
    0.20744315232394772148E-14
    0.25046626036443284553E-13
    0.32707485335757368945E-13
    0.33545496758215707824E-12
    0.75768705783919267365E-12
    0.80099088876158019344E-08
    0.32308689475910886184E-07
    0.31769990099068460052E-06
    0.31768725665320007830E-06
    0.32307605371905363511E-07
    0.80095273322045071039E-08
    0.72834499925306927720E-09
    0.36017202217202022117E-09
    0.28372980800215250926E-10
    0.28373310232699877095E-10
    0.36017944229468228367E-09
    0.72837380129754788257E-09
    0.33944708119017120655E-08
    0.33944189613990981155E-08
    0.21426325515487348717E-08
    0.12325660508847323207E-08
    0.12272288596747638316E-07
    0.23592601280733709721E-08
    0.19452099617178690239E-09
    0.17450521236722061829E-10
    0.14216393846082301338E-11
    0.24651487761894028735E-11
    0.29580001764226043597E-12
    0.13955961772216839812E-11
    0.20925253761828040630E-10
    0.18244436500546693842E-09
    0.99348360904946247929E-10
    0.31088150941562292371E-10
    0.46369685693338269543E-07
    0.98952548394956942222E-08
    0.66100977395098875638E-07
    0.10634478268749117847E-07
    0.92324844579897643390E-09
    0.74166799916964509984E-10
    0.67389094393942267277E-11
    0.18196780240939826208E-10
    0.46503486468011284873E-11
    0.31295049805890511377E-10
    0.42091466999948959545E-09
    0.45306815312771493960E-08
    0.84528803531286888453E-09
    0.22051173735319863564E-09
    0.10594931111634909505E-04
    0.13022283805040430832E-04
    0.89802748679276768896E-04
    0.31075201274332239754E-04
    0.38256472657564208432E-05
    0.55581702348526418027E-06
    0.62507313488732176294E-07
    0.85657976014319413667E-07
    0.10728704526503214000E-07
    0.27676404124289742359E-07
    0.30275373146744134173E-06
    0.12587474914799673247E-05
    0.15590975476599878764E-05
    0.74638993663814772181E-06
    0.40201409421458108662E-03
    0.13695069497362066606E-03
    0.59116788957318039052E-03
    0.15061630504088297042E-03
    0.20176517074449990241E-04
    0.24256554362691900793E-05
    0.32288714055176975857E-06
    0.79583482082011303696E-06
    0.21867829504118809460E-06
    0.98492561539478378686E-06
    0.92206874111940389903E-05
    0.60341870507513095873E-04
    0.17800422638053588415E-04
    0.65799985406611438343E-05
    0.17478025486089773595E-10
    0.19454841797906821479E-09
    0.23595585418185968785E-08
    0.12274407901791304865E-07
    0.12327297431206162248E-08
    0.21428215019252172897E-08
    0.18245839714126107885E-09
    0.20927135322872496871E-10
    0.13998141640498356149E-11
    0.33837033255537005979E-12
    0.24809652070853594608E-11
    0.16404591539199370025E-11
    0.31092187780637326089E-10
    0.99360296503286562872E-10
    0.55593522056075318729E-06
    0.38265215244107223170E-05
    0.31080622219185721734E-04
    0.89819078541954598823E-04
    0.13024526210307218405E-04
    0.10595700829422467404E-04
    0.12588350606065215831E-05
    0.30277910490664574402E-06
    0.27678541300435328864E-07
    0.10729673291570749189E-07
    0.85671913079411936001E-07
    0.62518665727273349003E-07
    0.74649620463327260432E-06
    0.15593672314832654173E-05
    0.73155613857348823344E-10
    0.92370480537944369753E-09
    0.10639767597308089606E-07
    0.66152664162912661410E-07
    0.98983718232994491909E-08
    0.46383319986088233522E-07
    0.45318790613882661337E-08
    0.42104228899077088484E-09
    0.31375886333226015750E-10
    0.53512174451426908686E-11
    0.18309026756096975155E-10
    0.77155575204187365926E-11
    0.22059029702224885255E-09
    0.84555208119540554470E-09
    0.24281988165675809405E-05
    0.20192662427197739832E-04
    0.15067827719530710946E-03
    0.59174530884885010677E-03
    0.13698842237044910530E-03
    0.40220750971213672193E-03
    0.60369795829820843626E-04
    0.92239770393479775923E-05
    0.98524397791601051989E-06
    0.21872899550809801507E-06
    0.79630609008329252751E-06
    0.32314269219350360966E-06
    0.65827785981833271235E-05
    0.17807985310750769218E-04
    0.17770937500755259845E-02
    0.53797843850263583204E-02
    0.23819280382583032929E-01
    0.23816027678718505040E-01
    0.53788011164661482522E-02
    0.17768135856129276418E-02
    0.30738895480422300920E-03
    0.24672933823691731766E-03
    0.35199838799631179634E-04
    0.35201658561847393300E-04
    0.24676360005479501883E-03
    0.30743603581409492372E-03
    0.12207119282009769919E-02
    0.12206790549576750343E-02
    0.14896398789673323537E+00
    0.10614770866968561980E+00
    0.22419950074770184090E+00
    0.12176424836878391167E+00
    0.33989026544581836531E-01
    0.80729131338160824843E-02
    0.19047874118973489276E-02
    0.38642527599947662162E-02
    0.12353839413275348545E-02
    0.30193495558862941917E-02
    0.16113652248034841807E-01
    0.44203210824166644377E-01