# vtk DataFile Version 3.0
LAPLACIEN  2D
ASCII
DATASET UNSTRUCTURED_GRID
 POINTS        1857  float
   3.1250000000000000E-002  0.93750000000000000        0.0000000000000000     
   6.2500000000000000E-002  0.93750000000000000        0.0000000000000000     
   6.2500000000000000E-002  0.96875000000000000        0.0000000000000000     
   1.8749999999999999E-002  0.95625000000000004        0.0000000000000000     
   4.0625000000000001E-002  0.95937499999999998        0.0000000000000000     
   4.3749999999999997E-002  0.98124999999999996        0.0000000000000000     
   2.1874999999999999E-002  0.97812500000000002        0.0000000000000000     
   9.3750000000000000E-002  0.93750000000000000        0.0000000000000000     
  0.12500000000000000       0.93750000000000000        0.0000000000000000     
  0.12500000000000000       0.96875000000000000        0.0000000000000000     
   8.1250000000000003E-002  0.95625000000000004        0.0000000000000000     
  0.10312499999999999       0.95937499999999998        0.0000000000000000     
  0.10625000000000000       0.98124999999999996        0.0000000000000000     
   8.4375000000000006E-002  0.97812500000000002        0.0000000000000000     
   3.1250000000000000E-002  0.87500000000000000        0.0000000000000000     
   6.2500000000000000E-002  0.87500000000000000        0.0000000000000000     
   6.2500000000000000E-002  0.90625000000000000        0.0000000000000000     
   1.8749999999999999E-002  0.89375000000000004        0.0000000000000000     
   4.0625000000000001E-002  0.89687499999999998        0.0000000000000000     
   4.3749999999999997E-002  0.91874999999999996        0.0000000000000000     
   2.1874999999999999E-002  0.91562500000000002        0.0000000000000000     
   9.3750000000000000E-002  0.87500000000000000        0.0000000000000000     
  0.12500000000000000       0.87500000000000000        0.0000000000000000     
  0.12500000000000000       0.90625000000000000        0.0000000000000000     
   8.1250000000000003E-002  0.89375000000000004        0.0000000000000000     
  0.10312499999999999       0.89687499999999998        0.0000000000000000     
  0.10625000000000000       0.91874999999999996        0.0000000000000000     
   8.4375000000000006E-002  0.91562500000000002        0.0000000000000000     
  0.15625000000000000       0.93750000000000000        0.0000000000000000     
  0.18750000000000000       0.93750000000000000        0.0000000000000000     
  0.18750000000000000       0.96875000000000000        0.0000000000000000     
  0.14374999999999999       0.95625000000000004        0.0000000000000000     
  0.16562499999999999       0.95937499999999998        0.0000000000000000     
  0.16875000000000001       0.98124999999999996        0.0000000000000000     
  0.14687500000000001       0.97812500000000002        0.0000000000000000     
  0.21875000000000000       0.93750000000000000        0.0000000000000000     
  0.25000000000000000       0.93750000000000000        0.0000000000000000     
  0.25000000000000000       0.96875000000000000        0.0000000000000000     
  0.20624999999999999       0.95625000000000004        0.0000000000000000     
  0.22812499999999999       0.95937499999999998        0.0000000000000000     
  0.23125000000000001       0.98124999999999996        0.0000000000000000     
  0.20937500000000001       0.97812500000000002        0.0000000000000000     
  0.15625000000000000       0.87500000000000000        0.0000000000000000     
  0.18750000000000000       0.87500000000000000        0.0000000000000000     
  0.18750000000000000       0.90625000000000000        0.0000000000000000     
  0.14374999999999999       0.89375000000000004        0.0000000000000000     
  0.16562499999999999       0.89687499999999998        0.0000000000000000     
  0.16875000000000001       0.91874999999999996        0.0000000000000000     
  0.14687500000000001       0.91562500000000002        0.0000000000000000     
  0.21875000000000000       0.87500000000000000        0.0000000000000000     
  0.25000000000000000       0.87500000000000000        0.0000000000000000     
  0.25000000000000000       0.90625000000000000        0.0000000000000000     
  0.20624999999999999       0.89375000000000004        0.0000000000000000     
  0.22812499999999999       0.89687499999999998        0.0000000000000000     
  0.23125000000000001       0.91874999999999996        0.0000000000000000     
  0.20937500000000001       0.91562500000000002        0.0000000000000000     
   3.1250000000000000E-002  0.81250000000000000        0.0000000000000000     
   6.2500000000000000E-002  0.81250000000000000        0.0000000000000000     
   6.2500000000000000E-002  0.84375000000000000        0.0000000000000000     
   1.8749999999999999E-002  0.83125000000000004        0.0000000000000000     
   4.0625000000000001E-002  0.83437499999999998        0.0000000000000000     
   4.3749999999999997E-002  0.85624999999999996        0.0000000000000000     
   2.1874999999999999E-002  0.85312500000000002        0.0000000000000000     
   9.3750000000000000E-002  0.81250000000000000        0.0000000000000000     
  0.12500000000000000       0.81250000000000000        0.0000000000000000     
  0.12500000000000000       0.84375000000000000        0.0000000000000000     
   8.1250000000000003E-002  0.83125000000000004        0.0000000000000000     
  0.10312499999999999       0.83437499999999998        0.0000000000000000     
  0.10625000000000000       0.85624999999999996        0.0000000000000000     
   8.4375000000000006E-002  0.85312500000000002        0.0000000000000000     
   3.1250000000000000E-002  0.75000000000000000        0.0000000000000000     
   6.2500000000000000E-002  0.75000000000000000        0.0000000000000000     
   6.2500000000000000E-002  0.78125000000000000        0.0000000000000000     
   1.8749999999999999E-002  0.76875000000000004        0.0000000000000000     
   4.0625000000000001E-002  0.77187499999999998        0.0000000000000000     
   4.3749999999999997E-002  0.79374999999999996        0.0000000000000000     
   2.1874999999999999E-002  0.79062500000000002        0.0000000000000000     
   9.3750000000000000E-002  0.75000000000000000        0.0000000000000000     
  0.12500000000000000       0.75000000000000000        0.0000000000000000     
  0.12500000000000000       0.78125000000000000        0.0000000000000000     
   8.1250000000000003E-002  0.76875000000000004        0.0000000000000000     
  0.10312499999999999       0.77187499999999998        0.0000000000000000     
  0.10625000000000000       0.79374999999999996        0.0000000000000000     
   8.4375000000000006E-002  0.79062500000000002        0.0000000000000000     
  0.15625000000000000       0.81250000000000000        0.0000000000000000     
  0.18750000000000000       0.81250000000000000        0.0000000000000000     
  0.18750000000000000       0.84375000000000000        0.0000000000000000     
  0.14374999999999999       0.83125000000000004        0.0000000000000000     
  0.16562499999999999       0.83437499999999998        0.0000000000000000     
  0.16875000000000001       0.85624999999999996        0.0000000000000000     
  0.14687500000000001       0.85312500000000002        0.0000000000000000     
  0.21875000000000000       0.81250000000000000        0.0000000000000000     
  0.25000000000000000       0.81250000000000000        0.0000000000000000     
  0.25000000000000000       0.84375000000000000        0.0000000000000000     
  0.20624999999999999       0.83125000000000004        0.0000000000000000     
  0.22812499999999999       0.83437499999999998        0.0000000000000000     
  0.23125000000000001       0.85624999999999996        0.0000000000000000     
  0.20937500000000001       0.85312500000000002        0.0000000000000000     
  0.15625000000000000       0.75000000000000000        0.0000000000000000     
  0.18750000000000000       0.75000000000000000        0.0000000000000000     
  0.18750000000000000       0.78125000000000000        0.0000000000000000     
  0.14374999999999999       0.76875000000000004        0.0000000000000000     
  0.16562499999999999       0.77187499999999998        0.0000000000000000     
  0.16875000000000001       0.79374999999999996        0.0000000000000000     
  0.14687500000000001       0.79062500000000002        0.0000000000000000     
  0.21875000000000000       0.75000000000000000        0.0000000000000000     
  0.25000000000000000       0.75000000000000000        0.0000000000000000     
  0.25000000000000000       0.78125000000000000        0.0000000000000000     
  0.20624999999999999       0.76875000000000004        0.0000000000000000     
  0.22812499999999999       0.77187499999999998        0.0000000000000000     
  0.23125000000000001       0.79374999999999996        0.0000000000000000     
  0.20937500000000001       0.79062500000000002        0.0000000000000000     
  0.28125000000000000       0.93750000000000000        0.0000000000000000     
  0.31250000000000000       0.93750000000000000        0.0000000000000000     
  0.31250000000000000       0.96875000000000000        0.0000000000000000     
  0.26874999999999999       0.95625000000000004        0.0000000000000000     
  0.29062500000000002       0.95937499999999998        0.0000000000000000     
  0.29375000000000001       0.98124999999999996        0.0000000000000000     
  0.27187499999999998       0.97812500000000002        0.0000000000000000     
  0.34375000000000000       0.93750000000000000        0.0000000000000000     
  0.37500000000000000       0.93750000000000000        0.0000000000000000     
  0.37500000000000000       0.96875000000000000        0.0000000000000000     
  0.33124999999999999       0.95625000000000004        0.0000000000000000     
  0.35312500000000002       0.95937499999999998        0.0000000000000000     
  0.35625000000000001       0.98124999999999996        0.0000000000000000     
[...]
 CELL_DATA        3584
 SCALARS Endothelial_cells float
 LOOKUP_TABLE default
    0.63139018207924813414E-09
    0.46177360987667119819E-09
    0.12325930344717098895E-08
    0.88789628359903283692E-09
    0.27309560293118714917E-09
    0.17584259247655881709E-09
    0.68810859489244856715E-10
    0.47709259952721576266E-10
    0.24067036515458324636E-10
    0.31584500197423761209E-10
    0.91471854818104456614E-10
    0.23279129723404297096E-09
    0.14686502835766111434E-09
    0.11786363375239344674E-09
    0.43045948674321045411E-08
    0.47093074594176065345E-08
    0.13548159310186521895E-07
    0.13982745981688931384E-07
    0.49698114266986276553E-08
    0.48469575496025430502E-08
    0.19419974801939573692E-08
    0.97012190837602151674E-09
    0.36159498454117838894E-09
    0.28563517424614633331E-09
    0.80646826345851856342E-09
    0.13476962566068351230E-08
    0.17957723310104754941E-08
    0.18508664233973017229E-08
    0.33529641638637846010E-07
    0.26043565759433754530E-07
    0.63709321908168203375E-07
    0.45327193016385281424E-07
    0.14818835704906396114E-07
    0.73058028222848108770E-08
    0.23967860766288972374E-08
    0.26512196292566649760E-08
    0.12005307033149521597E-08
    0.20283736770590320736E-08
    0.58849741614331988951E-08
    0.13701141925127507303E-07
    0.90528309866059664013E-08
    0.71933983401001418391E-08
    0.18253948733718421275E-06
    0.15290188569723965188E-06
    0.36856784043539761674E-06
    0.28490251336808502337E-06
    0.10103956769800094235E-06
    0.67428384093771143069E-07
    0.22766973819800099472E-07
    0.19479670798851953391E-07
    0.75066541008524886052E-08
    0.99982780853341379352E-08
    0.31790682146531327634E-07
    0.62970219410786932670E-07
    0.56033611857723610573E-07
    0.47634297301381866807E-07
    0.71267545112414312300E-07
    0.10852461489805044648E-06
    0.30495941705588151822E-06
    0.34441135417694771032E-06
    0.13418294194303299029E-06
    0.12942847722377667729E-06
    0.57054518493242659734E-07
    0.30030485476267300645E-07
    0.11695840552835916538E-07
    0.83379275747138993447E-08
    0.20249750500062998954E-07
    0.23975777383171130481E-07
    0.48005270228439159821E-07
    0.52649727649152962086E-07
    0.15666040787023810367E-05
    0.22033945823184191505E-05
    0.55777223706106451306E-05
    0.57217721392196287076E-05
    0.23714393438620897625E-05
    0.20480512944354169237E-05
    0.10051157674077494191E-05
    0.61008912155750747079E-06
    0.26959973356061628977E-06
    0.20813779196871178801E-06
    0.47875571972978713849E-06
    0.57299992658191651048E-06
    0.10212388949844637414E-05
    0.10610796869854452200E-05
    0.10935459209389211110E-05
    0.12439803503583196579E-05
    0.30858798445980502712E-05
    0.33659425476738211725E-05
    0.13818396625131623470E-05
    0.12819889036132660925E-05
    0.46139759791032182694E-06
    0.29886616348986899136E-06
    0.10628299626112747098E-06
    0.10189906994420352498E-06
    0.27580938523578879837E-06
    0.40438582276476298790E-06
    0.56266937367857312610E-06
    0.58479126107311657791E-06
    0.13333495188006936588E-04
    0.19620842354894877123E-04
    0.46609330670991911099E-04
    0.52464291010271616703E-04
    0.23584040941742587033E-04
    0.20939139289827245080E-04
    0.83011615961413759987E-05
    0.58759951453744823835E-05
    0.22404485013003365384E-05
    0.20066278399707017282E-05
    0.48263398906992336675E-05
    0.53336420738582549720E-05
    0.10114609641201355227E-04
    0.10805817843337807308E-04
    0.10419285578360133331E-05
    0.90481883837123340991E-06
    0.20710081888132221503E-05
    0.16261113820746976960E-05
    0.59327617334981546556E-06
    0.32328996106415506545E-06
    0.11655969857923705793E-06
    0.12458131895668449674E-06
    0.59115041788499350970E-07
    0.91287676423605139977E-07
    0.23402119808723005208E-06
    0.47559044575418396026E-06
    0.35800743743522758545E-06
    0.30228829529513433490E-06
    0.58212284963339870877E-05
    0.50494198262119844125E-05
    0.10926771565274720965E-04
    0.80347860968129704610E-05
    0.30831689014923659883E-05
    0.16784197119565243710E-05
    0.64409366223499403312E-06
    0.71166210118780558038E-06
    0.31399012168400809930E-06
    0.42735893075334635821E-06
    0.12333460810190538880E-05
    0.22255099298344799537E-05
    0.20313276343218992137E-05
    0.16954695892315534156E-05
    0.18024215781408287366E-04
    0.17617661263388393922E-04
    0.37833355696320469374E-04
    0.33295032279442579386E-04
    0.13721097527035925885E-04
    0.87687136978026149946E-05
    0.34657258249568954408E-05
    0.34053703965550931025E-05
    0.16851857298697730118E-05
    0.23525563991675236923E-05
    0.52615318063856717946E-05
    0.92286944376661341155E-05
    0.80349163994608619642E-05
    0.72545140619669624718E-05
    0.10664712481024251484E-03
    0.10290984761449634556E-03
    0.20576388948638027758E-03
    0.16531075202741636089E-03
    0.71678234707473143178E-04
    0.42192424900684608838E-04
    0.18094037003869312005E-04
    0.19744436525663190847E-04
    0.92902644068461652326E-05
    0.11556084651558297735E-04
    0.29344081151608601536E-04
    0.45388302470833169868E-04
    0.47637434162163256983E-04
    0.41970511917986428143E-04
    0.24425221517481065972E-04
    0.20010589529147266761E-04
    0.40057493501610480155E-04
    0.33352060728965220540E-04
    0.14367751555268090612E-04
    0.11334570928904510347E-04
    0.45524473069808532469E-05
    0.38015292760532477158E-05
    0.17083268758878696677E-05
    0.21439140901704412387E-05
    0.56553309564026480615E-05
    0.10151997133777411112E-04
    0.88034414826547265949E-05
    0.77806405225099298446E-05
    0.98725052911656339819E-04
    0.11768254860193073149E-03
    0.24780943053317962179E-03
    0.28249677350215455325E-03
    0.14287307683358337214E-03
    0.14502183806405519813E-03
    0.63183466400761458068E-04
    0.42719743176052126616E-04
    0.17917428949055557368E-04
    0.16260183036588063274E-04
    0.35564846198331146322E-04
    0.44348672817914503602E-04
    0.65736655345031248321E-04
    0.70292996560593795944E-04
    0.43711245329936530054E-03
    0.36018197393718453516E-03
    0.62985840931941241595E-03
    0.47550111334928224418E-03
    0.22031016337474340410E-03
    0.13347355099559639921E-03
    0.62139674538422550462E-04
    0.71357338883742466766E-04
    0.38319206860034361298E-04
    0.51218344773437497817E-04
    0.12225777236343031147E-03
    0.20442719963595473959E-03
    0.17257732069806750569E-03
    0.14578719652575137990E-03
    0.10595861128950660734E-02
    0.87104972777809520912E-03
    0.14420245943684466879E-02
    0.13067594641068883392E-02
    0.70431004631340762834E-03
    0.65349967471923706402E-03
    0.32028016426794667397E-03
    0.25965405900493923131E-03
    0.13701150251102918671E-03
    0.15978224846387054049E-03
    0.33978349966271248700E-03
    0.54590164120840094057E-03
    0.47115660987222279148E-03
    0.43621309415276925949E-03
    0.21694619023695532490E-04
    0.25699344704416559910E-04
    0.57443638465360786192E-04
    0.52660479411094482296E-04
    0.23108829179440003765E-04
    0.17803308229488450407E-04
    0.97467938735861651321E-05
    0.68983212824153243925E-05
    0.35200604091282105439E-05
    0.30079761306654496865E-05
    0.66188038828298969963E-05
    0.86710092676693283146E-05
    0.12282001250796399414E-04
    0.11959538869477704434E-04
    0.16398670942055807668E-03
    0.16239975615660038927E-03
    0.31729632057537793558E-03
    0.26148889498873230950E-03
    0.12119423299713173920E-03
    0.83978099607355784976E-04
    0.51268268103696738890E-04
    0.42317197483971045124E-04
    0.25155151045828285907E-04
    0.23778902099447250736E-04
    0.49882154319559234761E-04
    0.71966114127478214915E-04
    0.79735430809639869080E-04
    0.72905274377565231305E-04
    0.17932917948585279269E-03
    0.23603465624708893462E-03
    0.49583366543825538233E-03
    0.50488256787757884551E-03
    0.24319112543965291039E-03
    0.19335774134975649815E-03
    0.85082825027510403299E-04
    0.71005413383188237296E-04
    0.30951405912111549243E-04
    0.30386248026873382514E-04
    0.68720018334515633844E-04
    0.78910581090101141973E-04
    0.12756109601827578942E-03
    0.12887933679633358994E-03
    0.14121252184914685930E-02
    0.15641260244046437718E-02
    0.28555586944520572855E-02
    0.26119452673597463865E-02
    0.13416798293726245328E-02
    0.95556443445943045536E-03
    0.46811769468542321730E-03
    0.46282022568358940125E-03
    0.23424131089724319391E-03
    0.25575949473247074507E-03
    0.54551757452027394013E-03
    0.68811589572940091031E-03
    0.87437532139396844863E-03
    0.83066190382491216469E-03
    0.66434960311106928347E-03
    0.55357414905117540999E-03
    0.93686679735956591812E-03
    0.70029306900904072196E-03
    0.34191300309730599883E-03
    0.21540492360985318953E-03
    0.14642713624434092233E-03
    0.14056194898657114046E-03
    0.97930174465966256725E-04
    0.10197269224318008792E-03
    0.20317539546768409106E-03
    0.32163977325291674952E-03
    0.27841420740648060213E-03
    0.23970585020792830764E-03
    0.14466317184344535101E-02
    0.10262964036555218775E-02
    0.14902666405233692265E-02
    0.10183160601300899391E-02
    0.52298815576584472241E-03
    0.30233286291771383804E-03
    0.22883053016442556071E-03
    0.25490928164875092032E-03
    0.20892431851479836553E-03
    0.23825775287161378544E-03
    0.44962499575583014366E-03
    0.77622413838131546718E-03
    0.52740916660018672193E-03
    0.42858340463026284826E-03
    0.59184222948982113249E-02
    0.55161991650979382007E-02
    0.86774623881683034254E-02
    0.71766709529709647383E-02
    0.39180490025530990625E-02
    0.25200954435468385546E-02
    0.13768648195246486598E-02
    0.16036426300792398260E-02
    0.95049506457838515983E-03
    0.11501632746192902521E-02
    0.23077261345526736518E-02
    0.32086457230579745921E-02
    0.31725706617123298862E-02
    0.28397294824368695711E-02
    0.13126727432944277144E-01
    0.10396939342254290020E-01
    0.13985664681295745596E-01
    0.10530658483418702670E-01
    0.60959533985725936414E-02
    0.35701708029260747004E-02
    0.21812404118589255250E-02
    0.29700497183456076034E-02
    0.20741952399669083551E-02
    0.27642362769142400127E-02
    0.52080634826307979288E-02
    0.79524317605567888118E-02
    0.61256130242855989440E-02
    0.51767805319706868689E-02
    0.83755055829481440694E-03
    0.11837145317649257030E-02
    0.23229478048523862464E-02
    0.26109649242542463943E-02
    0.14455304627026123281E-02
    0.13663068030260751805E-02
    0.66464934235454880239E-03
    0.50511314346042557322E-03
    0.23400964790943378836E-03
    0.20885696423515718082E-03
    0.40839307860142685849E-03
    0.41076145213826741141E-03
    0.74170248634227657191E-03
    0.79276343554011995986E-03
    0.64819068441021631191E-02
    0.80224109055415434438E-02
    0.13676484156462265923E-01
    0.13901029036181480197E-01
    0.82720829917980274321E-02
    0.69873597586909254667E-02
    0.38154650728618602976E-02
    0.34259654329332205232E-02
    0.18416690471386395513E-02
    0.18101971006932377536E-02
    0.33129055199694525807E-02
    0.35411345886945042039E-02
    0.52563887334305323118E-02
    0.53064449047441611049E-02
    0.29460554452757003671E-02
    0.36622987032023926121E-02
    0.64472298376945401041E-02
    0.75473243141012712545E-02
    0.47816413430130525267E-02
    0.52121761252294351169E-02
    0.28218227778267915631E-02
    0.20060598777652850766E-02
    0.10159219809865451759E-02
    0.88580441220100164870E-03
    0.15387170711085478621E-02
    0.16407406037952120860E-02
    0.25437429044735605961E-02
    0.27735503880052217625E-02
    0.16341630548941922518E-01
    0.22022880047887053584E-01
    0.35097842882632575290E-01
    0.39234821223321177108E-01
    0.27124609412812444864E-01
    0.27018174214303504466E-01
    0.16510555365059034760E-01
    0.13441290364748283495E-01
    0.77143502144261999129E-02
    0.68879390975075758391E-02
    0.10787880306863830912E-01
    0.10023302089183398073E-01
    0.16805175983059944533E-01
    0.17936356614059068004E-01
    0.27851656718689662279E-01
    0.29119947351821540843E-01
    0.42555145570354946383E-01
    0.39041220565611975402E-01
    0.24862418806996376686E-01
    0.18833720086194143811E-01
    0.11563879261733025008E-01
    0.12263758377893620513E-01
    0.77335340308302561244E-02
    0.84281961831708107624E-02
    0.14460938999781293782E-01
    0.17053678173105039917E-01
    0.19705627787043517030E-01
    0.18744203989703046159E-01
    0.62771565808248386276E-01
    0.55700303108397901386E-01
    0.69327605374064266153E-01
    0.57716334784161299476E-01
    0.39240306633990668095E-01
    0.26864463150514088924E-01
    0.18582787338057401433E-01
    0.23114558329112685348E-01
    0.17190485243460857517E-01
    0.20677860770069660112E-01
    0.33200971639577775418E-01
    0.43250508462143469335E-01
    0.38694299010983902731E-01
    0.34750853192885622356E-01
    0.69683688098474416694E-01
    0.81224353046341721263E-01
    0.11087983804117433617E+00
    0.11213559106322305847E+00
    0.83392350741905582612E-01
    0.74195518551219655223E-01
    0.51315568537517668168E-01
    0.49290892771111489978E-01
    0.33177217727474554720E-01
    0.32678177067283181723E-01
    0.47779281627245956399E-01
    0.48056557578618111504E-01
    0.64386718050369551314E-01
    0.64872464599415563535E-01
    0.15943032983551233550E+00
    0.15764475469792632589E+00
    0.18251191288863333195E+00
    0.16700609599513760450E+00
    0.13325073007879012499E+00
    0.10649532023794955338E+00
    0.83482475506173617341E-01
    0.94304537077627981212E-01
    0.74939949694057095275E-01
    0.81605084248252454660E-01
    0.11147134310602917207E+00
    0.12428069984875482479E+00
    0.12843495572128030280E+00
    0.12209692240200466229E+00
    0.16920025181744511688E-03
    0.18583159917484530868E-03
    0.37467091742317146447E-03
    0.36924803132867985676E-03
    0.17358016405042146942E-03
    0.13195357388920593436E-03
    0.57402328033452787871E-04
    0.51322848485939434647E-04
    0.26605606973320583813E-04
    0.33527910583877647689E-04
    0.64747892448348967685E-04
    0.97436327987101379678E-04
    0.98511587013277673408E-04
    0.94979106536416976585E-04
    0.10537603347941626019E-02
    0.11417152877927060767E-02
    0.21198340020835452699E-02
    0.18993467124057777061E-02
    0.94553240572924448538E-03
    0.65116800806897467101E-03
    0.31074059593530234955E-03
    0.31244119439660596226E-03
    0.15570699057566281297E-03
    0.17408200840461640364E-03
    0.38344951074129594339E-03
    0.50170735176032377634E-03
    0.61675726205889336122E-03
    0.57879951944753973633E-03
    0.84974547111055698159E-03
    0.10423619320380486317E-02
    0.19751007311091962199E-02
    0.21687154217238358532E-02
    0.11742159643942909255E-02
    0.10655868957822160759E-02
    0.51296084468863806759E-03
    0.41605688084805084659E-03
    0.22715737386829287195E-03
    0.25870496108495181142E-03
    0.42760827642922575806E-03
    0.55083002980801096856E-03
    0.64585429621757028864E-03
    0.66322865390519081859E-03
    0.54913755458265971904E-02
    0.66691274283505351181E-02
    0.11524750580086007279E-01
    0.11504264155275492273E-01
    0.66410717517830283180E-02
    0.54285091194605688061E-02
    0.28932981900394896639E-02
    0.26440645036653331879E-02
    0.14013454324095125144E-02
    0.14076279439707288944E-02
    0.26608401811753054807E-02
    0.29363004416157814647E-02
    0.42315346395123800208E-02
    0.42256351691726899006E-02
    0.44305341204369311225E-02
    0.40508862416323522179E-02
    0.64933321626804169774E-02
    0.52841615539243793481E-02
    0.27976112599070014977E-02
    0.17693555760742356395E-02
    0.93853868157407901399E-03
    0.10956944540066030670E-02
    0.63756989054903766452E-03
    0.78580124734494403993E-03
    0.16287707586452049042E-02
    0.23385107509039048355E-02
    0.22531363699421920986E-02
    0.19963902190590402351E-02
    0.10005893401262736658E-01
    0.79436233089656589634E-02
    0.11099516500276584291E-01
    0.86629614293526717439E-02
    0.49672165206995372994E-02
    0.34119269200439056658E-02
    0.19654925557919858924E-02
    0.22864726407806480572E-02
    0.15088255557014140177E-02
    0.19688568303365913160E-02
    0.37965192470536339962E-02
    0.58892349180903426006E-02
    0.45918111259628212328E-02
    0.39401960953512303598E-02
    0.23644656814949378820E-01
    0.24283310321900935386E-01
    0.36018393473428805818E-01
    0.32516437240714124446E-01
    0.20066248534854801144E-01
    0.14744680184472013645E-01
    0.88254627877273547631E-02
    0.94957048743035434024E-02
    0.59005965383249012884E-02
    0.65550469457230442841E-02
    0.11629066395960700395E-01
    0.14129152109331440459E-01
    0.15904070180858261713E-01
    0.14977942169013954907E-01
    0.53834097232488442586E-01
    0.47194962946045491969E-01
    0.60094829816973685532E-01
    0.49605994478800381764E-01
    0.32633020847892268979E-01
    0.22210954650453289955E-01
    0.14843571052946404054E-01
    0.18293814497064374291E-01
    0.13321824791813574249E-01
    0.16248954299500260878E-01
    0.26953023566463733124E-01
    0.36117731673602250508E-01
    0.31713549536004907725E-01
    0.28283126676700406227E-01
    0.22721413359900479410E-02
    0.30868453086674951628E-02
    0.55057935374850219129E-02
    0.66891372822940782517E-02
    0.42100580669808479808E-02
    0.45454942920029051123E-02
    0.24348458254578172685E-02
    0.17932048300329530253E-02
    0.10359677036307754407E-02
    0.10692296494977263175E-02
    0.15022141289044068767E-02
    0.16570455035801344087E-02
    0.22427121130789199298E-02
    0.24467641667710333248E-02
    0.14989516453226292905E-01
    0.20286642409582503893E-01
    0.32714372122951571042E-01
    0.36195992252631155328E-01
    0.24418597712817742551E-01
    0.23710016331199020023E-01
    0.14179053448635143414E-01
    0.11731107168993299555E-01
    0.66397105870737611888E-02
    0.60117878787562858273E-02
    0.96692232798603981042E-02
    0.90240496052754991252E-02
    0.15153659411595361839E-01
    0.16064877412919422589E-01
    0.32341530207201265971E-02
    0.48284175249788622436E-02
    0.81191071490415139128E-02
    0.10848049559032136788E-01
    0.80094206298261510363E-02
    0.10199583690106279327E-01
    0.61129037420292195795E-02
    0.41014549729400783667E-02
    0.25161727882455366644E-02
    0.23624151894483225687E-02
    0.28074756900354348559E-02
    0.26529970577228684063E-02
    0.41248342686217740957E-02
    0.47722919776447226756E-02
    0.21460438431348635713E-01
    0.32154133774169063598E-01
    0.48517127488790515177E-01
    0.59198718123410085101E-01
    0.46988350235949813416E-01
    0.53844712522925608500E-01
    0.36290886419050316647E-01
    0.27194114572020620241E-01
    0.16478547066902330537E-01
    0.13510584038143536034E-01
    0.18369369236329789047E-01
    0.14582047403421229473E-01
    0.28285196894065740142E-01
    0.31778028854553747040E-01
    0.65465692924084911697E-01
    0.75329010892831005375E-01
    0.10374832864333365101E+00
    0.10390081531625980360E+00
    0.75307648609457419897E-01
    0.65430162179854131632E-01
    0.44233962174502136633E-01
    0.43067297648874285076E-01
    0.28638114686745423654E-01
    0.28670306224776134774E-01
    0.43189942057786354090E-01
    0.44356076476619564486E-01
    0.58252731157484451130E-01
    0.58264194954181829089E-01
    0.15103304654588070588E+00
    0.14872854587016959282E+00
    0.17548175839751276039E+00
    0.16003643566312408808E+00
    0.12375039670934592784E+00
    0.96908963164227285292E-01
    0.73666677071080127748E-01
    0.83688235595750642970E-01
    0.65383512036714178106E-01
    0.72150928032034600257E-01
    0.10159845129261309282E+00
    0.11539527382749133200E+00