# vtk DataFile Version 3.0
LAPLACIEN  2D
ASCII
DATASET UNSTRUCTURED_GRID
 POINTS         481  float
   6.2500000000000000E-002  0.87500000000000000        0.0000000000000000     
  0.12500000000000000       0.87500000000000000        0.0000000000000000     
  0.12500000000000000       0.93750000000000000        0.0000000000000000     
   3.7499999999999999E-002  0.91249999999999998        0.0000000000000000     
   8.1250000000000003E-002  0.91874999999999996        0.0000000000000000     
   8.7499999999999994E-002  0.96250000000000002        0.0000000000000000     
   4.3749999999999997E-002  0.95625000000000004        0.0000000000000000     
  0.18750000000000000       0.87500000000000000        0.0000000000000000     
  0.25000000000000000       0.87500000000000000        0.0000000000000000     
  0.25000000000000000       0.93750000000000000        0.0000000000000000     
  0.16250000000000001       0.91249999999999998        0.0000000000000000     
  0.20624999999999999       0.91874999999999996        0.0000000000000000     
  0.21249999999999999       0.96250000000000002        0.0000000000000000     
  0.16875000000000001       0.95625000000000004        0.0000000000000000     
   6.2500000000000000E-002  0.75000000000000000        0.0000000000000000     
  0.12500000000000000       0.75000000000000000        0.0000000000000000     
  0.12500000000000000       0.81250000000000000        0.0000000000000000     
   3.7499999999999999E-002  0.78749999999999998        0.0000000000000000     
   8.1250000000000003E-002  0.79374999999999996        0.0000000000000000     
   8.7499999999999994E-002  0.83750000000000002        0.0000000000000000     
   4.3749999999999997E-002  0.83125000000000004        0.0000000000000000     
  0.18750000000000000       0.75000000000000000        0.0000000000000000     
  0.25000000000000000       0.75000000000000000        0.0000000000000000     
  0.25000000000000000       0.81250000000000000        0.0000000000000000     
  0.16250000000000001       0.78749999999999998        0.0000000000000000     
  0.20624999999999999       0.79374999999999996        0.0000000000000000     
  0.21249999999999999       0.83750000000000002        0.0000000000000000     
  0.16875000000000001       0.83125000000000004        0.0000000000000000     
  0.31250000000000000       0.87500000000000000        0.0000000000000000     
  0.37500000000000000       0.87500000000000000        0.0000000000000000     
  0.37500000000000000       0.93750000000000000        0.0000000000000000     
  0.28749999999999998       0.91249999999999998        0.0000000000000000     
  0.33124999999999999       0.91874999999999996        0.0000000000000000     
  0.33750000000000002       0.96250000000000002        0.0000000000000000     
  0.29375000000000001       0.95625000000000004        0.0000000000000000     
  0.43750000000000000       0.87500000000000000        0.0000000000000000     
  0.50000000000000000       0.87500000000000000        0.0000000000000000     
  0.50000000000000000       0.93750000000000000        0.0000000000000000     
  0.41249999999999998       0.91249999999999998        0.0000000000000000     
  0.45624999999999999       0.91874999999999996        0.0000000000000000     
  0.46250000000000002       0.96250000000000002        0.0000000000000000     
  0.41875000000000001       0.95625000000000004        0.0000000000000000     
  0.31250000000000000       0.75000000000000000        0.0000000000000000     
  0.37500000000000000       0.75000000000000000        0.0000000000000000     
  0.37500000000000000       0.81250000000000000        0.0000000000000000     
  0.28749999999999998       0.78749999999999998        0.0000000000000000     
  0.33124999999999999       0.79374999999999996        0.0000000000000000     
  0.33750000000000002       0.83750000000000002        0.0000000000000000     
  0.29375000000000001       0.83125000000000004        0.0000000000000000     
  0.43750000000000000       0.75000000000000000        0.0000000000000000     
  0.50000000000000000       0.75000000000000000        0.0000000000000000     
  0.50000000000000000       0.81250000000000000        0.0000000000000000     
  0.41249999999999998       0.78749999999999998        0.0000000000000000     
  0.45624999999999999       0.79374999999999996        0.0000000000000000     
  0.46250000000000002       0.83750000000000002        0.0000000000000000     
  0.41875000000000001       0.83125000000000004        0.0000000000000000     
   6.2500000000000000E-002  0.62500000000000000        0.0000000000000000     
  0.12500000000000000       0.62500000000000000        0.0000000000000000     
  0.12500000000000000       0.68750000000000000        0.0000000000000000     
   3.7499999999999999E-002  0.66249999999999998        0.0000000000000000     
   8.1250000000000003E-002  0.66874999999999996        0.0000000000000000     
   8.7499999999999994E-002  0.71250000000000002        0.0000000000000000     
   4.3749999999999997E-002  0.70625000000000004        0.0000000000000000     
  0.18750000000000000       0.62500000000000000        0.0000000000000000     
  0.25000000000000000       0.62500000000000000        0.0000000000000000     
  0.25000000000000000       0.68750000000000000        0.0000000000000000     
  0.16250000000000001       0.66249999999999998        0.0000000000000000     
  0.20624999999999999       0.66874999999999996        0.0000000000000000     
  0.21249999999999999       0.71250000000000002        0.0000000000000000     
  0.16875000000000001       0.70625000000000004        0.0000000000000000     
   6.2500000000000000E-002  0.50000000000000000        0.0000000000000000     
  0.12500000000000000       0.50000000000000000        0.0000000000000000     
  0.12500000000000000       0.56250000000000000        0.0000000000000000     
   3.7499999999999999E-002  0.53749999999999998        0.0000000000000000     
   8.1250000000000003E-002  0.54374999999999996        0.0000000000000000     
   8.7499999999999994E-002  0.58750000000000002        0.0000000000000000     
   4.3749999999999997E-002  0.58125000000000004        0.0000000000000000     
  0.18750000000000000       0.50000000000000000        0.0000000000000000     
  0.25000000000000000       0.50000000000000000        0.0000000000000000     
  0.25000000000000000       0.56250000000000000        0.0000000000000000     
  0.16250000000000001       0.53749999999999998        0.0000000000000000     
  0.20624999999999999       0.54374999999999996        0.0000000000000000     
  0.21249999999999999       0.58750000000000002        0.0000000000000000     
  0.16875000000000001       0.58125000000000004        0.0000000000000000     
  0.31250000000000000       0.62500000000000000        0.0000000000000000     
  0.37500000000000000       0.62500000000000000        0.0000000000000000     
  0.37500000000000000       0.68750000000000000        0.0000000000000000     
  0.28749999999999998       0.66249999999999998        0.0000000000000000     
  0.33124999999999999       0.66874999999999996        0.0000000000000000     
  0.33750000000000002       0.71250000000000002        0.0000000000000000     
  0.29375000000000001       0.70625000000000004        0.0000000000000000     
  0.43750000000000000       0.62500000000000000        0.0000000000000000     
  0.50000000000000000       0.62500000000000000        0.0000000000000000     
  0.50000000000000000       0.68750000000000000        0.0000000000000000     
  0.41249999999999998       0.66249999999999998        0.0000000000000000     
  0.45624999999999999       0.66874999999999996        0.0000000000000000     
  0.46250000000000002       0.71250000000000002        0.0000000000000000     
  0.41875000000000001       0.70625000000000004        0.0000000000000000     
  0.31250000000000000       0.50000000000000000        0.0000000000000000     
  0.37500000000000000       0.50000000000000000        0.0000000000000000     
  0.37500000000000000       0.56250000000000000        0.0000000000000000     
  0.28749999999999998       0.53749999999999998        0.0000000000000000     
  0.33124999999999999       0.54374999999999996        0.0000000000000000     
  0.33750000000000002       0.58750000000000002        0.0000000000000000     
  0.29375000000000001       0.58125000000000004        0.0000000000000000     
  0.43750000000000000       0.50000000000000000        0.0000000000000000     
  0.50000000000000000       0.50000000000000000        0.0000000000000000     
  0.50000000000000000       0.56250000000000000        0.0000000000000000     
  0.41249999999999998       0.53749999999999998        0.0000000000000000     
  0.45624999999999999       0.54374999999999996        0.0000000000000000     
  0.46250000000000002       0.58750000000000002        0.0000000000000000     
  0.41875000000000001       0.58125000000000004        0.0000000000000000     
  0.56250000000000000       0.87500000000000000        0.0000000000000000     
  0.62500000000000000       0.87500000000000000        0.0000000000000000     
  0.62500000000000000       0.93750000000000000        0.0000000000000000     
  0.53749999999999998       0.91249999999999998        0.0000000000000000     
  0.58125000000000004       0.91874999999999996        0.0000000000000000     
  0.58750000000000002       0.96250000000000002        0.0000000000000000     
  0.54374999999999996       0.95625000000000004        0.0000000000000000     
  0.68750000000000000       0.87500000000000000        0.0000000000000000     
  0.75000000000000000       0.87500000000000000        0.0000000000000000     
  0.75000000000000000       0.93750000000000000        0.0000000000000000     
  0.66249999999999998       0.91249999999999998        0.0000000000000000     
  0.70625000000000004       0.91874999999999996        0.0000000000000000     
  0.71250000000000002       0.96250000000000002        0.0000000000000000     
[...]
 CELL_DATA         896
 SCALARS Migratory_cells float
 LOOKUP_TABLE default
    0.67352580724832678667E-12
    0.19959364291495866632E-12
   -0.44428109158558284781E-12
    0.57380433014164659596E-11
    0.22274794581353679763E-11
   -0.54631476661489356814E-11
   -0.33380593889743858943E-12
   -0.17707106024198014966E-12
    0.31319743517569038726E-11
   -0.19203478364199520867E-11
   -0.43632480810592386560E-11
   -0.39129719207670429000E-11
    0.37160070268934002006E-11
   -0.27889606327874258601E-11
    0.17967492537475641452E-11
   -0.67225108727643383050E-11
    0.21231307394353983456E-11
    0.48877643575069232121E-11
    0.19908705838710309341E-11
    0.12902521934895840495E-11
   -0.23358840401719305490E-12
    0.56713308860021079201E-11
   -0.31930890485566751828E-11
   -0.58827459740336206516E-11
   -0.16916546886394294255E-11
    0.22432772552755549255E-11
   -0.30042462473788477085E-11
   -0.21707813198917010149E-11
   -0.43024511746878560255E-11
   -0.63667939139074722606E-12
    0.12493672899995007103E-11
    0.24398490995294475593E-11
    0.45552542717407941304E-11
   -0.37812703985449270328E-12
   -0.18925492459923164145E-11
   -0.39342396131711361851E-12
   -0.21213390960026703003E-12
   -0.84637427288077003731E-12
   -0.28607806113600653502E-11
    0.10653033289480280661E-11
    0.20334595309281924438E-11
   -0.15978272807925369246E-11
   -0.38395896215989752055E-12
    0.11525463549489219279E-11
    0.25572913642794208771E-11
    0.67710258658151275589E-12
    0.11629817117616915607E-11
    0.12644357020634341012E-11
    0.25946441005553603823E-11
    0.23233382172202094845E-11
    0.32967010137751797512E-11
   -0.40623676706563938816E-12
   -0.21741650986482477496E-11
    0.99394286861181493858E-13
   -0.17965339672117113279E-11
    0.13647021123215996377E-11
   -0.80042284210953652197E-12
    0.21804412487910220804E-11
   -0.63715067815480079610E-13
   -0.17322313768281012304E-11
   -0.17560971042403359293E-11
    0.32082573648271034162E-11
   -0.23319624708379877428E-11
    0.24716772427201431232E-12
   -0.31349582463495126147E-11
    0.54789193653407339912E-11
   -0.12282244617971874286E-11
    0.20725301801216333124E-11
    0.96972201995431013228E-12
   -0.45901484100988789368E-11
    0.69757301193978955478E-12
    0.46959698875468891531E-12
    0.46902245815804622905E-12
    0.24126387214312075808E-12
    0.16997948318418450343E-12
    0.21470644787604681282E-12
    0.25956846660809993370E-11
   -0.21996675611693534267E-11
   -0.22470095240374778801E-11
    0.19479055341271946558E-11
    0.23841164550404606193E-12
   -0.55043195093556508810E-13
    0.54223892415609241133E-12
   -0.43103755062827108810E-12
    0.13771450157085950161E-11
    0.86740559417802206096E-12
    0.40264691914001777353E-12
    0.34450094180902809988E-12
    0.62260269237566307321E-12
   -0.20619005486936614804E-12
    0.64105876720079810733E-14
    0.15961664015869181314E-11
    0.32001968940612659436E-11
   -0.18303494782427664800E-12
   -0.23557572197364946300E-12
    0.13562513313347585102E-11
    0.16062180920781371509E-13
    0.82927714399615392897E-12
    0.14385765135430820948E-12
    0.41200414099929559572E-13
    0.36481677990599410016E-13
    0.84516683394924721317E-13
    0.16940578209834469825E-12
    0.40027703590714735090E-12
    0.39757871797299106800E-12
    0.13155960626485895546E-12
    0.16484792442065942845E-12
   -0.28165675060633477425E-12
   -0.15023616535276733975E-12
    0.18467790989285699952E-12
   -0.41340858892540724169E-13
    0.65987122002250568602E-13
   -0.83024483072348292123E-13
   -0.60542032862327347358E-12
    0.44382817895023039342E-12
   -0.39374034780726298877E-12
   -0.12687083481754586927E-11
   -0.23024854026799355206E-11
   -0.85002114044086991783E-12
   -0.18353278925660153149E-12
   -0.21745449678393242108E-11
    0.25507457786397734151E-11
    0.62763275685894104223E-12
    0.60120167106131818218E-12
   -0.20602236013495545228E-13
   -0.18556329758937213366E-11
   -0.74131890668849977242E-13
   -0.69635697046842048227E-13
   -0.14879847009285285885E-12
   -0.37314583939300342571E-13
   -0.31164072986637729256E-12
    0.84006132593217430289E-12
    0.12302764697713819262E-11
   -0.53484911518947929228E-12
   -0.85107670766570413045E-12
   -0.10728682521540120921E-11
   -0.72676472970963877326E-12
   -0.11117878670778901698E-12
   -0.29018352778596444409E-12
   -0.11104852911081100854E-11
    0.64972456130629879892E-12
   -0.73322353228047314620E-13
    0.69716865515413740592E-13
   -0.35200093320892801036E-13
    0.12030453023218610638E-12
   -0.53314029636549291204E-13
    0.23513722307212765750E-12
    0.32989066277460871590E-12
    0.27040502047584732892E-12
   -0.15124953562780540774E-11
    0.35226049613411212664E-13
    0.10145629349552640677E-12
   -0.13164886215620240071E-12
    0.31074478448288843615E-12
   -0.22501542393173269075E-13
   -0.18527687805445327680E-13
   -0.52709391598570453327E-11
    0.29435807748131351124E-05
   -0.15515272948100568517E-13
   -0.23594358462982476157E-13
   -0.94096809396017512640E-13
   -0.15152205888458612427E-13
    0.58558531627189111396E-13
    0.10388403800848242266E-13
   -0.16558798959048096711E-13
   -0.35905125150467804596E-13
   -0.10425622435075444631E-13
    0.26249023689624448593E-14
    0.13927340354027507774E-12
    0.35844039128949291550E-12
    0.20730172459076708004E-12
    0.27720271558692399162E-13
   -0.13495219500852990667E-12
   -0.26484523738056566217E-13
    0.18316670178551870782E-12
    0.12961722544455313019E-12
    0.34660634364289190857E-12
    0.37299906081143698713E-12
   -0.15023379618062443280E-13
    0.77698071376054827468E-13
    0.59547268511551175495E-12
   -0.50624806919577258446E-12
    0.27110509135232904927E-04
    0.16517487267222452359E-04
    0.92549246421916601859E-03
    0.61380686400915589196E-01
    0.11878457980273792946E-01
    0.14401433104179229422E-01
    0.47533757012907491023E-07
    0.32505159818116208701E-13
    0.47457655471179846951E-13
   -0.70937625562599394639E-13
   -0.15597211863074365816E-13
    0.11782325784838524778E-13
    0.26099810173679422834E-05
    0.16106064525972143319E-05
    0.15780708931272081214E-01
    0.26009857272456157187E-03
    0.60072889344639393387E-03
    0.10138075988444057371E-02
    0.64685862183325781440E-05
    0.12458066868018165342E-04
    0.25415361849984520321E-13
    0.23528250373627308265E-13
    0.10937216978634520833E-12
    0.72341046795986312148E-13
    0.47239422240070627274E-06
    0.24716990774779576558E-04
    0.15780368066705981766E-05
    0.22513828877738895588E-05
    0.42304777480032017614E-02
    0.22130313666456714883E-01
    0.13847286407266498620E+00
    0.13177108059702280496E+00
    0.16751277731335539184E-01
    0.41693192705031046144E-02
    0.18353320027406899023E-02
    0.15424999039017151057E-02
    0.69001730356753427308E-04
    0.14966217874729293206E-03
    0.84054926177128878699E-03
    0.16898924164657361593E-02
    0.61247074975469949915E-02
    0.42626379828953437842E-02
   -0.35777922796051704857E-12
   -0.22894281080684528632E-12
   -0.17992726738260164390E-12
   -0.63860839031720421801E-12
   -0.81133491492195468842E-12
   -0.44522292093818960842E-11
    0.11814371767101594116E-11
    0.96642768793225077257E-12
    0.23242014158426208404E-11
    0.15035831549256900446E-11
   -0.11941728364780954691E-11
   -0.57788609575757940416E-12
    0.55861128824464652958E-13
   -0.40713439664875157896E-12
    0.80531817648111929468E-12
    0.20198717157023801978E-11
    0.10105717717483722166E-11
   -0.78943178589600613922E-12
   -0.14263921671857772113E-11
    0.16957700332361571526E-11
   -0.90613918482921156679E-12
   -0.10488600191873435232E-11
    0.12649443920217316936E-11
    0.85002084644531423640E-12
    0.32561600576191527057E-12
   -0.24463359269735076649E-12
    0.46365704425771004588E-12
    0.16328949761713989871E-11
    0.11028120760989542859E-13
    0.18805581415704565129E-13
    0.10537121786202364438E-13
    0.45967487714406550031E-13
   -0.44901411827201244296E-13
   -0.14812839988336703501E-12
   -0.84113776015856690513E-14
   -0.51332688361442153901E-13
   -0.31487765707292826334E-12
   -0.11691439863382288209E-13
   -0.14001334136952334413E-14
   -0.62375904016006835605E-14
    0.23312032720512637098E-13
    0.39581389245939008132E-13
    0.17540040974849819774E-12
    0.57494240307467147765E-12
    0.29869717850964389850E-12
    0.42557338758087615030E-12
    0.19643385934460021227E-11
    0.22733422671612093798E-11
    0.15732198289053033794E-11
    0.58172433270608339215E-12
    0.31537722106774490509E-12
    0.40723607128123557326E-12
    0.28843660568618128538E-12
    0.17558162582255690221E-12
    0.89465920418396949545E-12
    0.92726010308809311149E-12
   -0.43770633166492108811E-11
   -0.46531777952428581572E-11
   -0.34473405988689711427E-11
   -0.18028906523630901965E-11
   -0.57303031617484839332E-11
    0.10861161943525253654E-12
   -0.11816693749834466893E-12
    0.31084792362440074862E-11
    0.84926148575050735857E-12
    0.78624308032705339180E-12
    0.56472601129801452011E-11
   -0.17608795838565260068E-12
   -0.28588951505081965574E-11
   -0.62125207037486281141E-12
    0.35022076751429917285E-11
   -0.38719506172579620946E-11
   -0.25008830837072239232E-12
    0.26144062136142944772E-11
    0.20250397076335391973E-11
   -0.21805862717785882926E-11
   -0.10181863242190470155E-11
    0.28623586418107002547E-11
    0.20360866128795685901E-11
   -0.72837281409349662862E-11
   -0.10186181188009635750E-11
   -0.34587134002475473847E-11
   -0.20732319165293364469E-11
   -0.12141191600413390178E-12
   -0.14976138579699553974E-11
   -0.80516498805807097687E-12
    0.18064376717151088694E-11
    0.36499770808068034483E-12
    0.28427037014197510226E-11
    0.28610737402936096402E-11
   -0.73452819995565139838E-12
   -0.15943516297496785958E-12
    0.15659614842360743218E-11
    0.20366302382263515291E-11
   -0.10387899117730033687E-11
    0.44212718585457291858E-12
   -0.22484691331020098468E-11
   -0.21357739414344136465E-11
   -0.98200713140582593668E-12
    0.38928242849690991661E-11
    0.52680163595080860319E-11
   -0.24482974844511396330E-11
   -0.17615895602547104360E-11
   -0.30331103577252586402E-11
   -0.12496934042301718078E-11
    0.24900247525556484579E-12
    0.30585856086219301921E-11
    0.41507487509502939507E-11
   -0.51698323520471025190E-11
   -0.94447194007095774055E-12
    0.46255283588974794403E-12
   -0.41232149707806758952E-11
    0.10313104884308327974E-02
    0.18485300454705066595E-09
    0.23163192762501434920E-09
    0.98208883309702220265E-13
    0.17670801012389369485E-13
   -0.12469019788684394798E-12
   -0.19055583178909841289E-13
   -0.25880358845462884797E-13
    0.44047665229902146603E-07
    0.12764119315890859463E-01
    0.10409588616096684954E-01
    0.88859424141368215100E-01
    0.20555711404911867519E-08
    0.53089145788843563069E-14
   -0.32008042892913917705E-13
   -0.18743442976593311775E-12
   -0.51268798453949996011E-13
    0.97424657564320146824E-13
    0.46132200633124206512E-12
    0.65570632898405295669E-12
   -0.29601478465513932851E-12
   -0.25198867255622868327E-12
   -0.21828158558574673208E-12
   -0.11251960473951951583E-12
    0.20753327228196722778E-12
    0.14818223138291665702E-12
    0.99591859431105360995E-13
    0.75182836473531058344E-13
    0.13536686187794300107E+00
    0.21425111892029783528E-01
    0.39966230021731864730E-02
    0.16984703510061675922E-02
    0.89107227981198090373E-08
    0.14040058976164636896E-08
    0.72302208952225021081E-09
    0.12368660721505447472E-02
    0.17336219319970804995E-02
    0.39542330326590574563E-02
    0.16170801829206417344E-01
    0.12970463814415772452E+00
    0.74601991764384791017E-02
    0.25895313263790305236E-02
    0.64781763080568315494E-03
    0.29057714370937012122E-03
    0.22163242258455208289E-01
    0.49618032341643537792E-06
    0.77240658625481288543E-13
    0.98030792641444283517E-14
    0.68912218931001701508E-14
    0.23713294217113142260E-13
   -0.34951165142005013446E-13
    0.23192283860552121343E-09
    0.20476487946661318918E-03
    0.11104786825375417055E-02
    0.12001262500628144579E-03
    0.20817983277708600884E-12
   -0.91156251647338614634E-13
    0.17330096722218184094E-12
   -0.38787929747575394993E-13
    0.28018700960522634746E-12
    0.81145088330906690736E-13
    0.18713148489773072580E-13
    0.20325765968903977198E-11
    0.23800187494541048971E-12
   -0.64809798620104117057E-12
   -0.11883527191189528804E-12
    0.57183624165271477552E-13
   -0.14865706666702986347E-12
    0.16024619834590850354E-12
    0.70080156994003502000E-13
    0.30798077868718162182E-12
   -0.79150202886328151122E-13
    0.62858353988336508727E-12
    0.12780334737231129786E-11
   -0.10964852775339555279E-11
    0.47220652174915007981E-13
   -0.15271056746700095325E-12
    0.64870681158255890436E-12
    0.39938750958134864901E-12
    0.20548507470253558290E-11
    0.14330729498716647839E-11
    0.10017389582175019308E-11
   -0.94913774291717744700E-13
   -0.49391345404188026889E-12
    0.66758696382504918216E-12
   -0.67199123490623791970E-14
   -0.13967887371676266650E-15
    0.35666931073140789479E-13
    0.74248831669821710798E-14
    0.44400156254020933617E-14
   -0.74184444362671014129E-13
    0.18580801657787969933E-13
   -0.80451084530559566751E-13
   -0.59614784180941815896E-13
   -0.23933937861243354980E-13
   -0.37106260659042077508E-11
    0.39156506270677333335E-14
    0.21637417000290573182E-13
    0.31465789910588287972E-12
    0.10691545304903118867E-11
    0.11550518010876488417E-11
    0.17187512845369447946E-11
   -0.32662974932110918245E-13
   -0.78614240246641468398E-12
    0.35722666131846243822E-12
    0.50203615251594692527E-12
    0.37167628999740626225E-12
    0.17242206545226613642E-12
   -0.34884986303360383733E-12
    0.80320080543108130970E-13
   -0.34283279994978004448E-12
   -0.18666416853965322348E-12
   -0.20722302577953247374E-11
   -0.87351475626107495076E-12
   -0.70932959944886672247E-13
   -0.33016972070570642908E-12
   -0.50954309718357879679E-12
   -0.11767236073222775703E-12
    0.35003193768237780691E-12
    0.70913835504818351812E-12
    0.51084811367082166076E-12
    0.11482809825167937274E-12
    0.29940608923989848263E-12
    0.57332011005880643011E-12
   -0.34706591561563698530E-13
   -0.33830629629601853734E-12
    0.27848309095246886707E-12
    0.12922253541137037137E-12
    0.16929943663598006178E-12
    0.11513088614981479815E-12
    0.42439665549680182009E-13
    0.28116022895830055350E-11
   -0.40315157227182123114E-11
    0.42315958736324537348E-15
    0.34597362028201079044E-15
   -0.10666258496038860162E-14
   -0.16614675825290473637E-12
   -0.23049626659178470079E-12
   -0.11105764366700486747E-13
   -0.13850102737433808134E-13
    0.28104717616076684600E-11
   -0.79228252066626655207E-12
    0.24283864548012659488E-11
    0.13982678036241609920E-11
   -0.43442212624051484386E-12
   -0.60065889750555414822E-13
   -0.27414703005645816553E-13
    0.99427926548667924609E-12
   -0.86249893661758973640E-12
    0.10586276920199012468E-11
   -0.48131498823332746760E-12
   -0.18842680666830201468E-11
   -0.21297591675088927658E-11
   -0.31537185970907869188E-12
   -0.12109117874216758904E-11
   -0.41039973226100912880E-12
   -0.50219182787793053045E-12
    0.15037528507392355803E-12
    0.88483370421074543195E-13
    0.37310887419284041908E-12
    0.20871187808457667198E-12
    0.25113124631222453408E-12
    0.22301557521557363578E-12
   -0.15085180644159582656E-12
   -0.11391802206611013698E-11
   -0.87907896288965905150E-12
   -0.28718693284930116406E-12
    0.27788106687924595817E-12
    0.14444950911751612865E-12
    0.43552198452291541478E-07
    0.87307170954464144479E-07
    0.76614746859882609190E-04
    0.29933720028854914367E-03
    0.16474933364156549732E-02
    0.90868439623857254119E-03
    0.40998662296996130332E-03
    0.28033109855815037392E-01
    0.13267467665737036342E-05
    0.93286502106700439491E-08
    0.99652244822434266829E-13
    0.25766449975551844936E-07
    0.17911902092067905220E-03
    0.28887978114926972084E-08
    0.19974266051724648741E-07
    0.13492792003945324516E-02
    0.39130111490198894036E-02
    0.36960661955310121496E-01
    0.14261768020455503625E+00
    0.13887525287545174346E+00
    0.25129380971816158569E-01
    0.59086734354861130195E-02
    0.24333390088773694006E-02
    0.17099558447692569160E-02
    0.14527523659548126486E-03
    0.32992652485022218485E-02
    0.11203810747228639885E-01
   -0.13956881395025042163E-12
    0.15892234067013988973E-12
    0.20058419033274390774E-12
    0.12245378722105162845E-12
   -0.46664512116995156180E-12
   -0.35210427569943742849E-12
   -0.39364322841811518850E-12
    0.25186428460128186353E-14
    0.23861343229878761163E-12
    0.31491773169743911656E-12
   -0.10168259254151550180E-12
    0.17775586437285360924E-12
    0.29046592492152007170E-12
    0.12695996718745966331E-12
    0.72543036313573820925E-13
    0.11449244300011415229E-04
    0.37949331735537767459E-04
    0.91503186394448752551E-04
    0.18172489637766417589E-03
    0.38150463887457440344E-03
    0.77000964761638726781E-03
    0.17932202623070924341E-03
    0.22245292864743904940E-09
    0.15298325499253806479E-10
    0.57815968487625815469E-11
    0.18787477636483631391E-12
    0.26100510961786649316E-04
    0.99324488028369750398E-04
   -0.29012854832585250530E-11
   -0.77387405213016283276E-11
   -0.13982680796597571484E-11
   -0.20912014611142057521E-11
    0.77145239908864303829E-13
    0.28666826679575526777E-11
   -0.13338595685351037746E-11
   -0.22817560719228242241E-11
   -0.29611382543036190228E-11
   -0.82303479302475416947E-12
   -0.31843097738010655792E-11
    0.63965660965488581382E-11
    0.24087987100646026216E-11
   -0.30252020373121201801E-11
    0.45427681777209764912E-11
    0.32788351596084054123E-11
    0.36534962507543325656E-11
   -0.11622953458149420391E-11
    0.75830489221906380851E-13
    0.51751801024531887119E-12
   -0.15500114122294977868E-11
   -0.52249431885047871261E-12
   -0.14602370818073228102E-11
   -0.13601704553467249406E-11
    0.49093020679728178469E-12
    0.41836046850672480308E-11
   -0.14886290948916998553E-11
    0.62005224151026536178E-12
   -0.87930791996548407873E-12
    0.43343750577384377294E-11
    0.20285070711100278052E-11
    0.98196820531752898868E-11
    0.23935226235299501899E-11
   -0.24758723756117810330E-11
   -0.30095992219857594789E-11
   -0.12178422906862082941E-10
   -0.32073329730641303173E-11
    0.40648405834014410426E-11
   -0.26577549050944035057E-11
    0.33152167231668338826E-11
    0.32842498930680715810E-11
   -0.10571432954257842740E-11
   -0.12406094970971170423E-12
    0.56815818621580229915E-11
    0.36835558796950203583E-11
   -0.41757186829458393537E-12
   -0.23701015260385246938E-11
   -0.21563401709499540121E-12
    0.33644015425577550230E-12
   -0.40652671751209809089E-11
    0.35828351799112986049E-11
    0.15876031636225453103E-11
    0.16649815319950721480E-11
   -0.17932398194102981731E-11
    0.13720323957587201990E-11
    0.19658129785634062134E-11
    0.11674516634669325235E-11
    0.11258089337297293662E-11
    0.22600011080543679305E-12
    0.30088280548702440356E-13
   -0.41819839668675497666E-12
   -0.19659010542402937047E-12
   -0.21878853590404657513E-12
   -0.22151531481776378150E-12
    0.51743677855577310792E-12
    0.55712626851011271180E-12
   -0.75343831071276441101E-12
   -0.70870346921559018185E-12
   -0.34624503917713371014E-12
   -0.47294582618015048717E-12
    0.11988024635260187557E-12
    0.89586995440200015406E-13
    0.46611777625646535323E-13
    0.57244581365811430576E-11
    0.58657236398477549971E-10
    0.14443862905040042929E-02
    0.61600423630832682170E-03
    0.53132370972483098081E-12
   -0.17509131384929135381E-13
   -0.13791579025416103281E-12
    0.21298227505120167405E-14
    0.77176287737303479397E-13