# vtk DataFile Version 3.0
LAPLACIEN  2D
ASCII
DATASET UNSTRUCTURED_GRID
 POINTS         481  float
   6.2500000000000000E-002  0.87500000000000000        0.0000000000000000     
  0.12500000000000000       0.87500000000000000        0.0000000000000000     
  0.12500000000000000       0.93750000000000000        0.0000000000000000     
   3.7499999999999999E-002  0.91249999999999998        0.0000000000000000     
   8.1250000000000003E-002  0.91874999999999996        0.0000000000000000     
   8.7499999999999994E-002  0.96250000000000002        0.0000000000000000     
   4.3749999999999997E-002  0.95625000000000004        0.0000000000000000     
  0.18750000000000000       0.87500000000000000        0.0000000000000000     
  0.25000000000000000       0.87500000000000000        0.0000000000000000     
  0.25000000000000000       0.93750000000000000        0.0000000000000000     
  0.16250000000000001       0.91249999999999998        0.0000000000000000     
  0.20624999999999999       0.91874999999999996        0.0000000000000000     
  0.21249999999999999       0.96250000000000002        0.0000000000000000     
  0.16875000000000001       0.95625000000000004        0.0000000000000000     
   6.2500000000000000E-002  0.75000000000000000        0.0000000000000000     
  0.12500000000000000       0.75000000000000000        0.0000000000000000     
  0.12500000000000000       0.81250000000000000        0.0000000000000000     
   3.7499999999999999E-002  0.78749999999999998        0.0000000000000000     
   8.1250000000000003E-002  0.79374999999999996        0.0000000000000000     
   8.7499999999999994E-002  0.83750000000000002        0.0000000000000000     
   4.3749999999999997E-002  0.83125000000000004        0.0000000000000000     
  0.18750000000000000       0.75000000000000000        0.0000000000000000     
  0.25000000000000000       0.75000000000000000        0.0000000000000000     
  0.25000000000000000       0.81250000000000000        0.0000000000000000     
  0.16250000000000001       0.78749999999999998        0.0000000000000000     
  0.20624999999999999       0.79374999999999996        0.0000000000000000     
  0.21249999999999999       0.83750000000000002        0.0000000000000000     
  0.16875000000000001       0.83125000000000004        0.0000000000000000     
  0.31250000000000000       0.87500000000000000        0.0000000000000000     
  0.37500000000000000       0.87500000000000000        0.0000000000000000     
  0.37500000000000000       0.93750000000000000        0.0000000000000000     
  0.28749999999999998       0.91249999999999998        0.0000000000000000     
  0.33124999999999999       0.91874999999999996        0.0000000000000000     
  0.33750000000000002       0.96250000000000002        0.0000000000000000     
  0.29375000000000001       0.95625000000000004        0.0000000000000000     
  0.43750000000000000       0.87500000000000000        0.0000000000000000     
  0.50000000000000000       0.87500000000000000        0.0000000000000000     
  0.50000000000000000       0.93750000000000000        0.0000000000000000     
  0.41249999999999998       0.91249999999999998        0.0000000000000000     
  0.45624999999999999       0.91874999999999996        0.0000000000000000     
  0.46250000000000002       0.96250000000000002        0.0000000000000000     
  0.41875000000000001       0.95625000000000004        0.0000000000000000     
  0.31250000000000000       0.75000000000000000        0.0000000000000000     
  0.37500000000000000       0.75000000000000000        0.0000000000000000     
  0.37500000000000000       0.81250000000000000        0.0000000000000000     
  0.28749999999999998       0.78749999999999998        0.0000000000000000     
  0.33124999999999999       0.79374999999999996        0.0000000000000000     
  0.33750000000000002       0.83750000000000002        0.0000000000000000     
  0.29375000000000001       0.83125000000000004        0.0000000000000000     
  0.43750000000000000       0.75000000000000000        0.0000000000000000     
  0.50000000000000000       0.75000000000000000        0.0000000000000000     
  0.50000000000000000       0.81250000000000000        0.0000000000000000     
  0.41249999999999998       0.78749999999999998        0.0000000000000000     
  0.45624999999999999       0.79374999999999996        0.0000000000000000     
  0.46250000000000002       0.83750000000000002        0.0000000000000000     
  0.41875000000000001       0.83125000000000004        0.0000000000000000     
   6.2500000000000000E-002  0.62500000000000000        0.0000000000000000     
  0.12500000000000000       0.62500000000000000        0.0000000000000000     
  0.12500000000000000       0.68750000000000000        0.0000000000000000     
   3.7499999999999999E-002  0.66249999999999998        0.0000000000000000     
   8.1250000000000003E-002  0.66874999999999996        0.0000000000000000     
   8.7499999999999994E-002  0.71250000000000002        0.0000000000000000     
   4.3749999999999997E-002  0.70625000000000004        0.0000000000000000     
  0.18750000000000000       0.62500000000000000        0.0000000000000000     
  0.25000000000000000       0.62500000000000000        0.0000000000000000     
  0.25000000000000000       0.68750000000000000        0.0000000000000000     
  0.16250000000000001       0.66249999999999998        0.0000000000000000     
  0.20624999999999999       0.66874999999999996        0.0000000000000000     
  0.21249999999999999       0.71250000000000002        0.0000000000000000     
  0.16875000000000001       0.70625000000000004        0.0000000000000000     
   6.2500000000000000E-002  0.50000000000000000        0.0000000000000000     
  0.12500000000000000       0.50000000000000000        0.0000000000000000     
  0.12500000000000000       0.56250000000000000        0.0000000000000000     
   3.7499999999999999E-002  0.53749999999999998        0.0000000000000000     
   8.1250000000000003E-002  0.54374999999999996        0.0000000000000000     
   8.7499999999999994E-002  0.58750000000000002        0.0000000000000000     
   4.3749999999999997E-002  0.58125000000000004        0.0000000000000000     
  0.18750000000000000       0.50000000000000000        0.0000000000000000     
  0.25000000000000000       0.50000000000000000        0.0000000000000000     
  0.25000000000000000       0.56250000000000000        0.0000000000000000     
  0.16250000000000001       0.53749999999999998        0.0000000000000000     
  0.20624999999999999       0.54374999999999996        0.0000000000000000     
  0.21249999999999999       0.58750000000000002        0.0000000000000000     
  0.16875000000000001       0.58125000000000004        0.0000000000000000     
  0.31250000000000000       0.62500000000000000        0.0000000000000000     
  0.37500000000000000       0.62500000000000000        0.0000000000000000     
  0.37500000000000000       0.68750000000000000        0.0000000000000000     
  0.28749999999999998       0.66249999999999998        0.0000000000000000     
  0.33124999999999999       0.66874999999999996        0.0000000000000000     
  0.33750000000000002       0.71250000000000002        0.0000000000000000     
  0.29375000000000001       0.70625000000000004        0.0000000000000000     
  0.43750000000000000       0.62500000000000000        0.0000000000000000     
  0.50000000000000000       0.62500000000000000        0.0000000000000000     
  0.50000000000000000       0.68750000000000000        0.0000000000000000     
  0.41249999999999998       0.66249999999999998        0.0000000000000000     
  0.45624999999999999       0.66874999999999996        0.0000000000000000     
  0.46250000000000002       0.71250000000000002        0.0000000000000000     
  0.41875000000000001       0.70625000000000004        0.0000000000000000     
  0.31250000000000000       0.50000000000000000        0.0000000000000000     
  0.37500000000000000       0.50000000000000000        0.0000000000000000     
  0.37500000000000000       0.56250000000000000        0.0000000000000000     
  0.28749999999999998       0.53749999999999998        0.0000000000000000     
  0.33124999999999999       0.54374999999999996        0.0000000000000000     
  0.33750000000000002       0.58750000000000002        0.0000000000000000     
  0.29375000000000001       0.58125000000000004        0.0000000000000000     
  0.43750000000000000       0.50000000000000000        0.0000000000000000     
  0.50000000000000000       0.50000000000000000        0.0000000000000000     
  0.50000000000000000       0.56250000000000000        0.0000000000000000     
  0.41249999999999998       0.53749999999999998        0.0000000000000000     
  0.45624999999999999       0.54374999999999996        0.0000000000000000     
  0.46250000000000002       0.58750000000000002        0.0000000000000000     
  0.41875000000000001       0.58125000000000004        0.0000000000000000     
  0.56250000000000000       0.87500000000000000        0.0000000000000000     
  0.62500000000000000       0.87500000000000000        0.0000000000000000     
  0.62500000000000000       0.93750000000000000        0.0000000000000000     
  0.53749999999999998       0.91249999999999998        0.0000000000000000     
  0.58125000000000004       0.91874999999999996        0.0000000000000000     
  0.58750000000000002       0.96250000000000002        0.0000000000000000     
  0.54374999999999996       0.95625000000000004        0.0000000000000000     
  0.68750000000000000       0.87500000000000000        0.0000000000000000     
  0.75000000000000000       0.87500000000000000        0.0000000000000000     
  0.75000000000000000       0.93750000000000000        0.0000000000000000     
  0.66249999999999998       0.91249999999999998        0.0000000000000000     
  0.70625000000000004       0.91874999999999996        0.0000000000000000     
  0.71250000000000002       0.96250000000000002        0.0000000000000000     
[...]
 CELL_DATA         896
 SCALARS Migratory_cells float
 LOOKUP_TABLE default
    0.70232374727966317493E-13
    0.26805744807167247746E-14
   -0.52088133821286802841E-13
    0.58047927076815595358E-12
    0.26903311974450914163E-12
   -0.56528532078244974251E-12
   -0.39330274667487153757E-13
   -0.31060488916762088232E-13
    0.31173098568524978705E-12
   -0.20464554200505681173E-12
   -0.45615280769596980565E-12
   -0.39909424091203434153E-12
    0.49011618219284690992E-12
   -0.29514080510773900529E-12
    0.17134424801778781379E-12
   -0.73717365989786293542E-12
    0.31708537532007519625E-12
    0.52303809640353408447E-12
    0.21854702604018957830E-12
    0.13231640880998198179E-12
   -0.38973811943684190443E-13
    0.58592229950813935027E-12
   -0.33331422226507107758E-12
   -0.66650853286827275943E-12
   -0.17939519325036642622E-12
    0.23186996547565964987E-12
   -0.31873366358035532403E-12
   -0.24416406369658487747E-12
   -0.72678989836470605424E-12
    0.60987065248904919541E-13
    0.34304486152177238473E-14
    0.28831464491918179437E-12
    0.52391884417789834183E-12
   -0.37446957307497532321E-13
   -0.20427751075063696730E-12
   -0.45385168480916853714E-13
   -0.30169980474705805695E-13
   -0.95663603550122850111E-13
   -0.30977631469087576111E-12
    0.10969699003693550385E-12
    0.22413510272876078917E-12
   -0.17935849213057745619E-12
   -0.11932170326188699558E-12
    0.73071256446226957866E-13
    0.64118402769106531493E-12
    0.79040769663298903062E-13
    0.63429930391178642561E-12
    0.21244630844975618532E-12
    0.23080374007600403498E-13
    0.37810184608989713251E-12
    0.36811238377618545281E-12
    0.49257251976696139190E-13
   -0.27427754514742967189E-12
   -0.20512781152112840742E-12
   -0.53704106654607309522E-12
   -0.10292964013504070430E-12
   -0.17348797639149395818E-12
    0.27824441009454172058E-12
   -0.29694213469407357699E-12
   -0.17410186993866217901E-12
   -0.12228182853398174817E-12
    0.67102924882200260873E-12
   -0.27997805787061077510E-12
    0.10212223652683218473E-12
   -0.69762764911844092937E-12
    0.59516557926889470967E-12
   -0.33910506970202979030E-12
    0.20170027286007577438E-12
    0.45678133812978947715E-13
   -0.42094219121695271523E-12
   -0.24932500768853459046E-12
    0.10172816538725878069E-12
    0.33604417558669686973E-12
    0.11621744203015523896E-12
    0.31447380616277510493E-12
   -0.31475908200515946831E-13
    0.31782711979255980684E-12
   -0.39598129844084793811E-12
   -0.27415097460552663892E-12
    0.10073919476515774447E-12
    0.40429419641693395445E-13
    0.97072839471976726036E-13
    0.25613794418643453827E-12
    0.31117733698634026018E-13
    0.30389179563562520884E-12
    0.52784737316293678869E-12
    0.24506918757610815945E-12
    0.29898563934981301510E-12
    0.37863791878817682918E-12
    0.12613319840749581282E-12
    0.12403641148947732762E-12
    0.43284225337515743815E-13
    0.55762020006828320949E-12
    0.13415575491089398952E-13
   -0.24351064734032176903E-12
    0.20542428232524795318E-12
   -0.16602803113310293059E-12
    0.16113844842779316979E-12
    0.81019491293495903361E-13
    0.29659953049022756481E-13
    0.24797455841234314483E-13
    0.20391283836717191231E-13
    0.34071219072569032873E-13
    0.10455184050794220112E-12
    0.24810118161858257142E-12
   -0.95091248594329577287E-13
   -0.31119308222228428961E-12
   -0.15661338657331687810E-12
   -0.61466997791111904086E-13
    0.99988276538048316696E-13
    0.23141947130763583638E-13
   -0.19412477071412714179E-13
    0.23165396347534100214E-12
   -0.16212349795488201173E-12
    0.15157796233798326793E-13
   -0.14839531093798194786E-12
    0.22708587857990936449E-12
   -0.36790928984892145752E-12
   -0.28815644907557793140E-12
    0.12936310535717821290E-13
   -0.34688897171624994584E-12
    0.35542326661366892784E-12
   -0.16807479532585381339E-12
    0.23274180656213214965E-12
   -0.24835399344572275414E-13
    0.11451003182617254626E-13
    0.17165423742726700254E-12
   -0.22172996648489288015E-12
   -0.49008808534912043555E-13
    0.21743380337523965452E-13
   -0.20474003275176022231E-12
    0.24896728416589490648E-12
   -0.42251056552163028717E-13
   -0.14991495925051885951E-12
    0.13917569525914721167E-12
    0.26445250515295485446E-14
    0.11321392738401155106E-13
    0.18860400551677697680E-12
   -0.12857333782404425325E-12
   -0.91389193330240414120E-13
    0.29617573894147305603E-12
   -0.87267420436823295681E-13
    0.14536689674975175033E-12
   -0.22456424645349101435E-13
   -0.51235066497120082961E-13
   -0.12005295279665949784E-12
    0.24337983891145141495E-12
    0.19592799893992269326E-12
    0.48858088928379226583E-13
   -0.24897792854978130755E-12
    0.23543925340759610582E-12
    0.12189248116285704592E-13
   -0.16434238083897642835E-12
   -0.16741749668338487982E-12
   -0.45547727837122517306E-13
   -0.19095409989858503602E-13
   -0.10603104857212426361E-11
    0.53121534100535746219E-09
    0.24205342658887577643E-13
    0.10494410482253233641E-13
   -0.30921875460183421891E-13
    0.99342608533239635520E-13
    0.18010831047877310364E-12
    0.62322412388932572683E-13
   -0.28512940878328609294E-13
   -0.56326379369920569712E-13
   -0.12061593381718315568E-13
    0.58658899048042401098E-13
    0.60173442242253374306E-13
    0.25504946095160049163E-12
    0.15439516480053626444E-12
    0.29716278297311489135E-13
   -0.86261967839605925093E-13
    0.24723660889458563481E-13
    0.29479632710584494079E-12
    0.17669711568139302347E-12
   -0.36616078551549506076E-13
    0.41748047031701565252E-13
   -0.17270473075391081948E-14
   -0.34827109838911799171E-13
    0.51380838679570184039E-12
   -0.33565570547469841550E-12
    0.45919986808719164600E-06
    0.24145358314736298924E-06
    0.11373952534315095585E-03
    0.20397681772587384665E-02
    0.20829898343582991280E-03
    0.45807392667318064413E-04
    0.60029729047341140585E-12
    0.18025248487108242860E-13
    0.29316167603270488425E-13
   -0.45655337219338721341E-13
   -0.32704543598299283405E-13
   -0.21721082656253079757E-13
    0.34114209663233587924E-07
    0.19550252400886794611E-07
    0.11683188282767521479E-03
    0.10873141843881322093E-04
    0.26208386221704717403E-04
    0.50313086778553395826E-04
    0.77049325742347951713E-07
    0.21388439421365832811E-06
    0.74618370939453093668E-13
    0.11900807256634162980E-12
    0.18677629412060906860E-13
   -0.13122421859853471858E-13
    0.39933784023327266934E-08
    0.29852518406194651096E-07
    0.14307936071350024712E-07
    0.22930720174420632821E-07
    0.29091882267659810446E-03
    0.22553312676815442071E-02
    0.41929260708735163754E-01
    0.41732192439311338594E-01
    0.16455639125006198305E-02
    0.57170097781266229243E-03
    0.23163939730102260260E-03
    0.10827772340965720332E-03
    0.15464977610532423358E-05
    0.51349251571077005019E-05
    0.55463666098732541411E-04
    0.10196484541730457764E-03
    0.61427912707644183581E-03
    0.28534260394943761381E-03
   -0.11676271580967993803E-12
   -0.50876231859126522760E-13
    0.38450241931431121712E-13
   -0.24825399672343734063E-12
    0.11636188450778099008E-12
   -0.65557080935641213008E-12
    0.13624305625183516090E-12
   -0.98558393705862493018E-13
    0.28282171164394089824E-12
   -0.11088867840466488739E-12
   -0.69957677307617609756E-12
    0.51923465839319934427E-13
    0.33386127301845092132E-13
   -0.42541638929445438048E-13
   -0.99877818796743305445E-13
    0.17040327283017154650E-12
    0.16739189957548039100E-12
   -0.99748527706314056272E-13
   -0.20674365227674430476E-12
    0.21416080829195996981E-12
   -0.19489874144243473469E-13
   -0.12954121195944270979E-12
    0.12819189679982101702E-12
    0.17827735388609885581E-13
    0.29118685260906072928E-12
   -0.41983581937885477451E-13
   -0.34591652671078547207E-12
    0.20564957510618746250E-12
    0.14377571461902609024E-13
   -0.11703884719289285546E-14
    0.32691720279227392979E-13
    0.48100776759035422307E-13
    0.26207040992739125213E-14
   -0.14234333232920294792E-12
    0.34363785900876594947E-12
    0.68722672241013510856E-13
   -0.95540673366780727512E-13
    0.71012147251876764886E-13
    0.63231502440832570144E-13
    0.26834774840854765027E-13
    0.12847284957199737722E-13
    0.33526823390960740415E-13
    0.21740278493077238516E-13
    0.26764789211909919166E-12
    0.16380821512906068368E-12
   -0.14140063531904369992E-12
    0.25359037880165211741E-12
    0.53565175959632650156E-12
    0.22152286260829895055E-12
   -0.16092587190878984522E-12
   -0.57640724978770727388E-13
   -0.18210806862251191061E-15
   -0.28280413639468931045E-13
    0.15298742952445152515E-13
    0.19868172580580039061E-12
    0.45458393967157753053E-13
   -0.49890770266470895499E-12
   -0.65342410079477910439E-12
   -0.36744791694056217528E-12
   -0.19203883941993100198E-12
   -0.60419353996673184708E-12
    0.58195239763034029455E-14
   -0.16048361471257054638E-13
    0.31444651689289177605E-12
   -0.31031822648632954293E-13
    0.73326456012453206609E-13
    0.62741151322491446606E-12
   -0.10779911258025937514E-12
   -0.31078795878673167052E-12
   -0.11816444918285260504E-12
    0.36201138455722094272E-12
   -0.40787807630087754998E-12
   -0.44884649052639390862E-13
    0.25967212838050077328E-12
    0.20065127792694887292E-12
   -0.22987431499314909855E-12
   -0.11157435539847926838E-12
    0.28664326506580944242E-12
    0.19819728052940941399E-12
   -0.75595557751422285525E-12
   -0.10876222344808276889E-12
   -0.37111840379379120147E-12
   -0.22341658331023734687E-12
    0.33693652873539758803E-12
   -0.44840220152361685303E-12
    0.89854628804204253007E-13
    0.18765891994117546035E-12
   -0.18171468315647740049E-12
    0.30539555170694722033E-12
    0.28864064809744959505E-12
   -0.84827156857366972224E-13
    0.20288103413262795837E-12
    0.50100890435113892552E-12
    0.12411005955326559810E-12
   -0.29462532511804994719E-12
    0.19594801631252562931E-12
   -0.98912275760310103196E-13
   -0.49867297582802923549E-12
   -0.29644197522900253541E-12
    0.53578655010866026044E-12
    0.88563653327840657044E-12
   -0.27342148373116076813E-12
   -0.20314223158078940212E-12
   -0.32038903796423619696E-12
   -0.14116278946518892591E-12
    0.24353555514088054390E-13
    0.34872804884078821572E-12
    0.12344925416428210313E-12
   -0.79574209061599087549E-12
   -0.90871439467995071952E-13
   -0.28691448045219424331E-12
   -0.45341269787408077536E-12
    0.12119447673341002410E-03
    0.23512802817462946876E-13
   -0.40156615638474879156E-13
    0.92587152013915173242E-13
    0.39859949311871788350E-13
   -0.20087226299104949238E-13
    0.35284497200003490175E-13
    0.13121141284668630124E-13
    0.39384178191710781964E-12
    0.31917294868163150173E-04
    0.16172191839098517380E-03
    0.21563299302887637895E-02
    0.17126596477979111228E-13
    0.11341354116471973853E-13
   -0.14399891691962078303E-12
   -0.24453184866091199778E-12
   -0.21684098888784720875E-12
   -0.15497788516413520415E-12
   -0.33685580351463117800E-13
    0.29513282187326343450E-12
   -0.27372291201011510870E-13
   -0.84898997320600576100E-14
   -0.14296133519270778559E-12
    0.41632518108975513686E-13
    0.21584554569691362296E-12
    0.28654892138184905460E-12
    0.96809707383843499482E-13
    0.64931437146524407405E-13
    0.41781648342895091885E-01
    0.20996522082910857969E-02
    0.28552934078187442281E-03
    0.10132894868571478667E-03
    0.10701113481131337164E-11
   -0.56441651935509992706E-13
   -0.23110424536374428127E-13
    0.79799765643448665269E-04
    0.20951760994118842412E-03
    0.51448318369969590381E-03
    0.14920413068010894651E-02
    0.41585850814098525297E-01
    0.57580162570340881565E-03
    0.19643929574785922061E-03
    0.27965868438137138287E-04
    0.11809340979219492762E-04
    0.12453961918558695298E-03
   -0.22810037486828431301E-11
   -0.62270144042283179840E-13
   -0.11618885142239694122E-12
   -0.11937850212210195768E-12
   -0.66744450439505796016E-13
   -0.45906078293155816931E-13
    0.11773636897293901882E-12
    0.85326635121489840391E-05
    0.54958338614471990459E-04
    0.44537521103029571677E-05
   -0.29837489767268848031E-13
    0.18899472977614481935E-13
    0.10135840239318327659E-12
   -0.22561371886741106420E-12
   -0.21371626002728793714E-12
    0.88598284787524993472E-13
   -0.28924487142691324574E-12
    0.14377832713340450630E-12
   -0.25759825771619514069E-12
    0.39337772604396286881E-13
    0.34213113343444346588E-12
   -0.54591136480380156483E-13
   -0.12354447879246675507E-12
    0.39627521649693542409E-12
    0.80748042629853875002E-14
    0.13795361644745845321E-12
   -0.18886110315876553954E-12
   -0.13035187825204216749E-12
    0.24062665620754246499E-12
   -0.16656339119808327698E-12
   -0.91765208414589480161E-16
   -0.24409911638693238402E-12
    0.82242268372881682312E-13
   -0.74899782843743677784E-13
    0.64609109362659898271E-12
   -0.12358582232072066683E-12
    0.11631860253837390442E-12
    0.63930927472373294886E-13
   -0.98790015579867737901E-13
   -0.28172010411171589809E-12
   -0.15488828242417405869E-13
   -0.58720743035073614103E-13
   -0.10037382178946255279E-12
   -0.38127862162906337786E-13
   -0.93959428955480533646E-13
   -0.23725036199099764231E-12
   -0.71527303378064604205E-13
   -0.69822494324696402865E-13
   -0.74012742294095616034E-13
   -0.26951185289795275695E-13
   -0.13046071441579462514E-11
    0.12243002376092031113E-13
   -0.56553612665506901372E-14
   -0.77403102690724996461E-14
    0.47291034560831440687E-12
    0.21018255845553147885E-12
    0.31085470253587996037E-12
    0.37730547054904113663E-12
   -0.14282262716565625045E-12
    0.10777364901568171907E-12
    0.20951996957037675109E-12
   -0.70361833539092012297E-13
   -0.12630149503316913145E-12
   -0.27162736635774507009E-12
   -0.10662910396756753590E-12
   -0.67739847582947742169E-13
   -0.15629840843308112487E-13
   -0.50268181754633374026E-12
    0.50630512251118852854E-13
   -0.15629391267704572684E-12
   -0.30342897549497148388E-12
   -0.22001510513738356944E-12
   -0.14268009592055810892E-12
   -0.14150629451849070011E-12
    0.46204697517588847226E-12
    0.35361487702039125312E-12
    0.21407655467550439849E-13
   -0.16640684329346511235E-13
    0.94237313697357049566E-13
   -0.52471331560455745930E-12
   -0.45995908072578667205E-12
    0.19928347214092636916E-12
    0.68908367565912509734E-13
    0.20118224700681476124E-13
    0.40280904487036927429E-14
   -0.94242176925439379246E-14
   -0.24365045318760171525E-12
   -0.15757183499490804612E-11
   -0.42481900238244189159E-13
   -0.81568636267940373289E-13
   -0.11440887493027877788E-12
   -0.19198061430802664023E-12
   -0.30344198636329137466E-12
   -0.58329272231409223574E-13
   -0.25224792748338500095E-13
    0.48598187043196896730E-12
   -0.15861659930103002552E-12
    0.49555278706886253673E-12
    0.58469241911294900908E-13
   -0.29893730740130096199E-12
    0.78543178238649414467E-13
   -0.22272209552242571371E-12
    0.39428080917508934315E-12
   -0.12012983266648123717E-13
    0.14779082402186426819E-12
   -0.13481973212253748567E-12
   -0.42355688997059677525E-12
    0.39101156581077226198E-13
   -0.75815615948248736164E-13
   -0.18578802339732595608E-12
   -0.16043111389925685113E-12
    0.10474376825735379801E-12
    0.73496769095174121621E-13
    0.32842656942302359390E-12
    0.26527078986748778756E-12
    0.17635915829826558742E-12
    0.38913512228465943844E-12
    0.27855102617557601599E-12
    0.92800207697435662586E-13
   -0.23022781416590976391E-12
   -0.40066165730282050728E-12
   -0.19807531965977755412E-12
    0.11304529565133147875E-12
    0.57154465873539518272E-13
    0.32834752995187251686E-10
    0.90340710475886226029E-10
    0.15824987351025928486E-06
    0.11247930351615346571E-04
    0.82813764249309814217E-04
    0.40309149573102259073E-04
    0.16857250475059816166E-04
    0.17719560832406272685E-03
    0.28356255904849365563E-10
    0.51946978969998802067E-11
    0.38943967528657232205E-13
    0.15570790247312855190E-10
    0.60459228198110838949E-05
    0.17257878783895870245E-12
   -0.23066946170457673969E-12
    0.14058273970869104887E-04
    0.83403673075373093186E-04
    0.28540694003214247577E-02
    0.41999124823726877165E-01
    0.41878045297868156382E-01
    0.22059040749702932792E-02
    0.50052920899778510690E-03
    0.14548769794545755711E-03
    0.14271696262154483006E-04
    0.56258526663918899879E-06
    0.53817200464565340611E-04
    0.34538173288436237489E-03
   -0.25717261057186556691E-12
    0.19233598253412832355E-12
    0.39956724759989719424E-12
    0.14834395729635766465E-12
   -0.32424496700873995819E-12
   -0.19526657824285430837E-12
   -0.17305036305619009151E-12
   -0.73501215307545228647E-13
    0.70459654397569799791E-13
    0.29500837589324600243E-12
   -0.24843559191283729251E-12
   -0.11154205103610828445E-12
    0.11708418207043059594E-12
    0.91346849610144886284E-13
    0.37880975466074010963E-13
    0.14612145703956650251E-07
    0.69705438232323722111E-07
    0.18892642505881787548E-06
    0.45166878633761643783E-06
    0.12530302449671336721E-05
    0.43333848796916767080E-05
    0.57588121399367764244E-06
    0.62305503956167197903E-14
   -0.19358159613090974767E-12
   -0.14543813601272874818E-12
    0.10057055486270644802E-12
    0.39344929697745381953E-07
    0.20922034581696565744E-06
   -0.30854239468683165687E-12
   -0.82208905515650453442E-12
   -0.43375744594086176563E-12
   -0.23023692199497044776E-12
    0.15916505355813412236E-13
    0.37448415091757776975E-12
   -0.40543113407713285579E-12
   -0.22179669968428891682E-12
   -0.34783886393874346154E-12
    0.23380347051494648751E-14
   -0.45425042477586197445E-12
    0.65561000859136054692E-12
    0.57190629519982568740E-12
   -0.36661743149344821912E-12
    0.54293483708162629914E-12
    0.32082748666874631127E-12
    0.20664865608504498393E-12
   -0.42504848460669263814E-12
   -0.14257120731450474025E-12
   -0.17034571899762730401E-12
   -0.37803590556862679001E-13
   -0.59995335526360443864E-13
   -0.12567118954509123857E-12
   -0.25437679375720116616E-12
   -0.95640416238636833401E-13
    0.47320617982682967435E-12
   -0.40608395210672651175E-12
   -0.13778934305938548422E-12
   -0.96182521054044097629E-13
    0.43447001260460201972E-12
    0.19802097740989302797E-12
    0.10040259128065010902E-11
    0.24121499446815412242E-12
   -0.27189828054225025268E-12
   -0.10692334336767355085E-12
   -0.12638719261735259879E-11
   -0.89827567398651196201E-13
    0.40824058905726849866E-12
   -0.28139892925828235225E-12
    0.32491261282075091420E-12
    0.32159596043781556402E-12
   -0.11861952223457573044E-12
   -0.20483987811676617927E-13
    0.61699617429207729355E-12
    0.51207677488943974952E-12
   -0.34795102696183322547E-13
   -0.38038812902676311988E-12
    0.91401207048953524906E-13
    0.26176667824292857645E-12
   -0.32131298108791261144E-12
    0.11248940947061305489E-12
    0.18002364672010551713E-12
    0.17737806040014523200E-12
   -0.61491739818928188118E-13
    0.27872769923811849103E-12
   -0.96710726193097392012E-13
    0.45282138673527139885E-12
    0.28727688142486936486E-12
    0.17831523950702932465E-12
   -0.13604239982543976432E-12
   -0.19864984437705137434E-12
   -0.24675823763294049883E-12
   -0.30047947136407470488E-12
   -0.25693484052302082224E-12
    0.13016418344433367548E-12
    0.24060101373670467133E-12
   -0.25033284252570618211E-12
   -0.15068742721572950360E-12
    0.19102290935642543436E-12
   -0.14821208143346026528E-12
    0.81535455806076680531E-13
    0.42244833437450324994E-13
    0.34354516166889489372E-13
    0.37656195669794488954E-12
    0.38776962828374795533E-12
    0.19396151170916065292E-06
    0.48049073397402663358E-06
   -0.67090119867756227226E-14
   -0.15059624754193181351E-13
   -0.14994612021253793334E-12
   -0.21456627160376427720E-13
   -0.19579914791118252747E-13