# vtk DataFile Version 3.0
LAPLACIEN  2D
ASCII
DATASET UNSTRUCTURED_GRID
 POINTS         481  float
   6.2500000000000000E-002  0.87500000000000000        0.0000000000000000     
  0.12500000000000000       0.87500000000000000        0.0000000000000000     
  0.12500000000000000       0.93750000000000000        0.0000000000000000     
   3.7499999999999999E-002  0.91249999999999998        0.0000000000000000     
   8.1250000000000003E-002  0.91874999999999996        0.0000000000000000     
   8.7499999999999994E-002  0.96250000000000002        0.0000000000000000     
   4.3749999999999997E-002  0.95625000000000004        0.0000000000000000     
  0.18750000000000000       0.87500000000000000        0.0000000000000000     
  0.25000000000000000       0.87500000000000000        0.0000000000000000     
  0.25000000000000000       0.93750000000000000        0.0000000000000000     
  0.16250000000000001       0.91249999999999998        0.0000000000000000     
  0.20624999999999999       0.91874999999999996        0.0000000000000000     
  0.21249999999999999       0.96250000000000002        0.0000000000000000     
  0.16875000000000001       0.95625000000000004        0.0000000000000000     
   6.2500000000000000E-002  0.75000000000000000        0.0000000000000000     
  0.12500000000000000       0.75000000000000000        0.0000000000000000     
  0.12500000000000000       0.81250000000000000        0.0000000000000000     
   3.7499999999999999E-002  0.78749999999999998        0.0000000000000000     
   8.1250000000000003E-002  0.79374999999999996        0.0000000000000000     
   8.7499999999999994E-002  0.83750000000000002        0.0000000000000000     
   4.3749999999999997E-002  0.83125000000000004        0.0000000000000000     
  0.18750000000000000       0.75000000000000000        0.0000000000000000     
  0.25000000000000000       0.75000000000000000        0.0000000000000000     
  0.25000000000000000       0.81250000000000000        0.0000000000000000     
  0.16250000000000001       0.78749999999999998        0.0000000000000000     
  0.20624999999999999       0.79374999999999996        0.0000000000000000     
  0.21249999999999999       0.83750000000000002        0.0000000000000000     
  0.16875000000000001       0.83125000000000004        0.0000000000000000     
  0.31250000000000000       0.87500000000000000        0.0000000000000000     
  0.37500000000000000       0.87500000000000000        0.0000000000000000     
  0.37500000000000000       0.93750000000000000        0.0000000000000000     
  0.28749999999999998       0.91249999999999998        0.0000000000000000     
  0.33124999999999999       0.91874999999999996        0.0000000000000000     
  0.33750000000000002       0.96250000000000002        0.0000000000000000     
  0.29375000000000001       0.95625000000000004        0.0000000000000000     
  0.43750000000000000       0.87500000000000000        0.0000000000000000     
  0.50000000000000000       0.87500000000000000        0.0000000000000000     
  0.50000000000000000       0.93750000000000000        0.0000000000000000     
  0.41249999999999998       0.91249999999999998        0.0000000000000000     
  0.45624999999999999       0.91874999999999996        0.0000000000000000     
  0.46250000000000002       0.96250000000000002        0.0000000000000000     
  0.41875000000000001       0.95625000000000004        0.0000000000000000     
  0.31250000000000000       0.75000000000000000        0.0000000000000000     
  0.37500000000000000       0.75000000000000000        0.0000000000000000     
  0.37500000000000000       0.81250000000000000        0.0000000000000000     
  0.28749999999999998       0.78749999999999998        0.0000000000000000     
  0.33124999999999999       0.79374999999999996        0.0000000000000000     
  0.33750000000000002       0.83750000000000002        0.0000000000000000     
  0.29375000000000001       0.83125000000000004        0.0000000000000000     
  0.43750000000000000       0.75000000000000000        0.0000000000000000     
  0.50000000000000000       0.75000000000000000        0.0000000000000000     
  0.50000000000000000       0.81250000000000000        0.0000000000000000     
  0.41249999999999998       0.78749999999999998        0.0000000000000000     
  0.45624999999999999       0.79374999999999996        0.0000000000000000     
  0.46250000000000002       0.83750000000000002        0.0000000000000000     
  0.41875000000000001       0.83125000000000004        0.0000000000000000     
   6.2500000000000000E-002  0.62500000000000000        0.0000000000000000     
  0.12500000000000000       0.62500000000000000        0.0000000000000000     
  0.12500000000000000       0.68750000000000000        0.0000000000000000     
   3.7499999999999999E-002  0.66249999999999998        0.0000000000000000     
   8.1250000000000003E-002  0.66874999999999996        0.0000000000000000     
   8.7499999999999994E-002  0.71250000000000002        0.0000000000000000     
   4.3749999999999997E-002  0.70625000000000004        0.0000000000000000     
  0.18750000000000000       0.62500000000000000        0.0000000000000000     
  0.25000000000000000       0.62500000000000000        0.0000000000000000     
  0.25000000000000000       0.68750000000000000        0.0000000000000000     
  0.16250000000000001       0.66249999999999998        0.0000000000000000     
  0.20624999999999999       0.66874999999999996        0.0000000000000000     
  0.21249999999999999       0.71250000000000002        0.0000000000000000     
  0.16875000000000001       0.70625000000000004        0.0000000000000000     
   6.2500000000000000E-002  0.50000000000000000        0.0000000000000000     
  0.12500000000000000       0.50000000000000000        0.0000000000000000     
  0.12500000000000000       0.56250000000000000        0.0000000000000000     
   3.7499999999999999E-002  0.53749999999999998        0.0000000000000000     
   8.1250000000000003E-002  0.54374999999999996        0.0000000000000000     
   8.7499999999999994E-002  0.58750000000000002        0.0000000000000000     
   4.3749999999999997E-002  0.58125000000000004        0.0000000000000000     
  0.18750000000000000       0.50000000000000000        0.0000000000000000     
  0.25000000000000000       0.50000000000000000        0.0000000000000000     
  0.25000000000000000       0.56250000000000000        0.0000000000000000     
  0.16250000000000001       0.53749999999999998        0.0000000000000000     
  0.20624999999999999       0.54374999999999996        0.0000000000000000     
  0.21249999999999999       0.58750000000000002        0.0000000000000000     
  0.16875000000000001       0.58125000000000004        0.0000000000000000     
  0.31250000000000000       0.62500000000000000        0.0000000000000000     
  0.37500000000000000       0.62500000000000000        0.0000000000000000     
  0.37500000000000000       0.68750000000000000        0.0000000000000000     
  0.28749999999999998       0.66249999999999998        0.0000000000000000     
  0.33124999999999999       0.66874999999999996        0.0000000000000000     
  0.33750000000000002       0.71250000000000002        0.0000000000000000     
  0.29375000000000001       0.70625000000000004        0.0000000000000000     
  0.43750000000000000       0.62500000000000000        0.0000000000000000     
  0.50000000000000000       0.62500000000000000        0.0000000000000000     
  0.50000000000000000       0.68750000000000000        0.0000000000000000     
  0.41249999999999998       0.66249999999999998        0.0000000000000000     
  0.45624999999999999       0.66874999999999996        0.0000000000000000     
  0.46250000000000002       0.71250000000000002        0.0000000000000000     
  0.41875000000000001       0.70625000000000004        0.0000000000000000     
  0.31250000000000000       0.50000000000000000        0.0000000000000000     
  0.37500000000000000       0.50000000000000000        0.0000000000000000     
  0.37500000000000000       0.56250000000000000        0.0000000000000000     
  0.28749999999999998       0.53749999999999998        0.0000000000000000     
  0.33124999999999999       0.54374999999999996        0.0000000000000000     
  0.33750000000000002       0.58750000000000002        0.0000000000000000     
  0.29375000000000001       0.58125000000000004        0.0000000000000000     
  0.43750000000000000       0.50000000000000000        0.0000000000000000     
  0.50000000000000000       0.50000000000000000        0.0000000000000000     
  0.50000000000000000       0.56250000000000000        0.0000000000000000     
  0.41249999999999998       0.53749999999999998        0.0000000000000000     
  0.45624999999999999       0.54374999999999996        0.0000000000000000     
  0.46250000000000002       0.58750000000000002        0.0000000000000000     
  0.41875000000000001       0.58125000000000004        0.0000000000000000     
  0.56250000000000000       0.87500000000000000        0.0000000000000000     
  0.62500000000000000       0.87500000000000000        0.0000000000000000     
  0.62500000000000000       0.93750000000000000        0.0000000000000000     
  0.53749999999999998       0.91249999999999998        0.0000000000000000     
  0.58125000000000004       0.91874999999999996        0.0000000000000000     
  0.58750000000000002       0.96250000000000002        0.0000000000000000     
  0.54374999999999996       0.95625000000000004        0.0000000000000000     
  0.68750000000000000       0.87500000000000000        0.0000000000000000     
  0.75000000000000000       0.87500000000000000        0.0000000000000000     
  0.75000000000000000       0.93750000000000000        0.0000000000000000     
  0.66249999999999998       0.91249999999999998        0.0000000000000000     
  0.70625000000000004       0.91874999999999996        0.0000000000000000     
  0.71250000000000002       0.96250000000000002        0.0000000000000000     
[...]
 CELL_DATA         896
 SCALARS Migratory_cells float
 LOOKUP_TABLE default
    0.17582771762261110218E-12
    0.31964527826874511750E-13
   -0.13498993996188781893E-12
    0.15408252276374765700E-11
    0.72847203783358046357E-12
   -0.14911361915058005033E-11
   -0.10466232205152257955E-12
   -0.69717167156410825401E-13
    0.83159574129078434206E-12
   -0.53138646868759996823E-12
   -0.11945333405217465843E-11
   -0.10627748762927048873E-11
    0.13028046402632565256E-11
   -0.77331546766868832914E-12
    0.46750058409331542737E-12
   -0.19076321590156535926E-11
    0.80025479162511526746E-12
    0.13532838493204663470E-11
    0.56293541882604346835E-12
    0.35266089431145348029E-12
   -0.85283093915176426783E-13
    0.15547448340316299373E-11
   -0.86926529712576053172E-12
   -0.17525556225499102664E-11
   -0.46886940875693115395E-12
    0.62025837858862513810E-12
   -0.83743952590773786895E-12
   -0.62795661076354791025E-12
   -0.18124875194158253278E-11
   -0.42426509417182138318E-12
    0.26814164928238719081E-14
    0.76127819760102227269E-12
    0.13376933058243121957E-11
   -0.10090251098685933199E-12
   -0.52934626181014866043E-12
   -0.12025249951233428833E-12
   -0.77891001829492378476E-13
   -0.24345069523097498438E-12
   -0.80616037344456954026E-12
    0.29830249598950974651E-12
    0.58077262617652856956E-12
   -0.46010765077375314794E-12
   -0.50436718213190386995E-12
    0.55081700550880886934E-12
    0.99938247076638839190E-12
    0.20774922335286537717E-12
    0.85769900759372158608E-12
    0.41342036604605167172E-12
    0.63961940993453196400E-12
    0.89900332172688004876E-12
    0.97311708650200753249E-12
    0.13632470463175740559E-12
   -0.67787472934348613745E-12
   -0.21609820625149321408E-12
   -0.81441934988219018017E-12
    0.25862080170840192811E-12
   -0.37205663057815683429E-12
    0.10592656150535837767E-11
   -0.53473435556883542048E-12
   -0.58662444051879646887E-12
   -0.48715423877997094124E-12
    0.14485910032183173868E-11
   -0.70731085370365780223E-12
    0.25359806729199445406E-12
   -0.11896883588286634771E-11
    0.15397202237540266434E-11
   -0.47199873414562488070E-12
    0.50190026955328311592E-12
    0.25944244201325342388E-12
   -0.13314610648512229963E-11
   -0.24161659320973184688E-12
    0.17230782815288433541E-12
    0.47089894765002839032E-12
    0.21644178527126897971E-12
    0.78665830803849957171E-13
   -0.90649420700194202541E-13
    0.78841597456690449403E-12
   -0.93461018642835086302E-12
   -0.68911862653063664412E-12
    0.51841057422673782895E-12
   -0.11225136440410366254E-12
    0.17749180671566776459E-12
    0.22438918973455903190E-12
    0.22889588479986088375E-14
    0.60198579997147119653E-12
    0.46757064076015129761E-12
    0.34489185959592323098E-12
    0.40289571425540774743E-12
    0.54777282812675757127E-12
   -0.22302652648693929174E-12
   -0.25641339378828775421E-12
    0.28824636367041167411E-12
    0.12456061054145808569E-11
   -0.49609508287629796109E-13
   -0.73752255476015891819E-13
    0.63257921808659091997E-12
   -0.12541887175120358083E-12
    0.29630339010080684900E-12
    0.15854215635376343808E-12
    0.16048432037605545220E-13
    0.19731461093487931488E-13
    0.26908370850734278535E-13
    0.18796053574374451400E-14
    0.87012009095770841935E-13
    0.23786437198055817963E-12
   -0.31256149421669413736E-12
   -0.43067878819058776443E-12
   -0.32527988970219706712E-12
   -0.14834879922425734216E-12
    0.20761358485169578099E-12
   -0.87837868136201795610E-13
   -0.14396003695046558013E-12
    0.47632693077142388421E-13
   -0.32168875959013552704E-12
    0.35977180878679923269E-12
   -0.25909450322180330810E-13
    0.20168569518153940723E-12
   -0.58612517563404998346E-12
   -0.66613055337982628217E-12
   -0.31047483391763599092E-14
   -0.64799036195528758754E-12
    0.90122151818214196269E-12
    0.75184196213260167980E-13
    0.23331665792498070904E-12
   -0.23367199442433778248E-12
   -0.49408936390147337460E-12
    0.15644774381963023018E-12
   -0.22222561234424431898E-12
   -0.68136325702437393368E-13
    0.46999168260670989275E-13
   -0.43515533649965855733E-12
    0.40421907360961131305E-12
    0.13658990333912044858E-12
   -0.87858341064182208727E-12
   -0.14449320499330308391E-12
   -0.25812361523014553836E-12
   -0.15611148542297952536E-12
   -0.42056832582111135569E-13
   -0.66993161987604896440E-12
   -0.64290275187495974184E-12
    0.43851569870933644376E-12
   -0.58406349447302291201E-13
   -0.63857476091666801917E-14
   -0.63264867909516070959E-13
    0.19524079586262119074E-13
   -0.25955178946000078763E-12
    0.28984029046459660413E-12
    0.30668715001773238091E-12
    0.41864950062987602659E-12
   -0.57009588838515061847E-12
    0.17741967045382020471E-12
    0.29586374563610047943E-13
   -0.16481254487372783283E-13
    0.30324589381445875634E-13
   -0.48965944358088826547E-13
   -0.35954095243591969555E-13
   -0.30792647274525241247E-11
    0.67044499396296538744E-07
    0.17891313973025174382E-14
    0.12586465908469704837E-13
   -0.19026215703238790071E-13
    0.47149295466166604989E-13
    0.16647729077411439048E-12
   -0.11595633111338927931E-12
   -0.45917239121764416786E-13
   -0.48620712128665715908E-13
   -0.50233651934416025744E-13
    0.39692859394936442626E-13
    0.15135031808618135588E-13
    0.24649873875387301547E-12
    0.10366066093917333167E-12
    0.75167448406404504710E-13
   -0.24088371277253491017E-12
   -0.11679543481428026920E-12
    0.23761938530637553117E-12
   -0.22980626311446344451E-13
   -0.45337113247454162667E-13
    0.11186548761291829682E-12
   -0.21542707113470995280E-12
    0.77836646044584270191E-13
    0.45751605107252811263E-12
   -0.50681911940631738092E-12
    0.56276635369527293161E-05
    0.32956233018056070832E-05
    0.35853864947459030766E-03
    0.12501671621107797797E-01
    0.21191856879155665169E-02
    0.10631238158555344087E-02
    0.12573936819110380559E-10
    0.14688589695431015427E-13
    0.50594331289023596921E-14
   -0.90865758461515059694E-13
   -0.30014406357207746362E-13
    0.14932828917471029788E-13
    0.50568793868297458505E-06
    0.30577610408879894185E-06
    0.18195189050077046310E-02
    0.69060874267176875418E-04
    0.16124012836583973495E-03
    0.28141840273120300895E-03
    0.11665823018128302235E-05
    0.25120041995399254088E-05
    0.13070944602744063811E-12
    0.69059421225409917864E-13
    0.67681690584633141234E-13
    0.27570290588408579683E-13
    0.77535524148583072641E-07
    0.15045815722419799771E-05
    0.26388913726461214851E-06
    0.38863149767158646756E-06
    0.11821489122105274371E-02
    0.76362278749912380904E-02
    0.78272409722190156023E-01
    0.77088086562541929814E-01
    0.56076826510399928674E-02
    0.15905659869298960449E-02
    0.71708600874909988587E-03
    0.48306920129611343731E-03
    0.15517596899326353496E-04
    0.38349791458324152872E-04
    0.26819130124372932361E-03
    0.49482303013464795302E-03
    0.20240930876317341468E-02
    0.11732395746491374854E-02
   -0.25670364677118816836E-12
    0.34894006062426995168E-13
   -0.23544110651877837408E-14
   -0.88158113450218448625E-13
    0.76009372357140791350E-13
   -0.15476879930935555394E-11
    0.34201064071740283968E-12
    0.68586034915086610065E-14
    0.71256964113415415989E-12
    0.27544435458425875695E-12
   -0.11748409270380902296E-11
   -0.16199517389733424842E-12
    0.49154478025513212315E-13
   -0.95861960672425460209E-13
    0.98196278999308523985E-13
    0.53639098765783474872E-12
    0.37976183722205422786E-12
   -0.25189986311488154623E-12
   -0.47448385672449866656E-12
    0.57954744951001507234E-12
   -0.50206762489443590092E-13
   -0.31872167533090944050E-12
    0.37546471011821121840E-12
    0.18891585715312292440E-12
    0.18320499238466597202E-12
   -0.12222888823579216386E-12
   -0.14640153231478106183E-12
    0.49802389549558662332E-12
    0.81950428000776698930E-14
    0.63469017041364619105E-14
   -0.52609672371089596740E-13
   -0.63191225155598869675E-13
   -0.24441935871654218603E-12
   -0.37012506091207175453E-12
    0.25977192724004353291E-12
    0.19586095238092989035E-12
   -0.16135975357215883937E-12
   -0.16871387510205134858E-13
    0.15275778129024954353E-14
    0.11149475633994483850E-13
    0.56809718422323006012E-14
    0.27211509687072561974E-13
   -0.20417353378606014984E-12
    0.30040396530208187555E-12
    0.68081521272248200843E-13
   -0.52953723713219967813E-12
    0.76522031656779760696E-12
    0.84298372417599001583E-12
    0.70134201935059267173E-12
   -0.67411581813602939981E-13
   -0.14891939543024663066E-12
   -0.26722388453153871640E-13
    0.91184688032321408774E-14
   -0.28032889290234724344E-13
    0.36675534538220368217E-12
    0.23781423878964737335E-12
   -0.15141333111825751517E-11
   -0.16859189221896321947E-11
   -0.96237387054101756076E-12
   -0.49272754409149963524E-12
   -0.15771689645019594825E-11
    0.19879323704052704940E-13
   -0.44194371983016702657E-13
    0.83405379658779064924E-12
   -0.72164986177094606665E-13
    0.20433978873091815388E-12
    0.16188174586133411496E-11
   -0.14884079680348647019E-12
   -0.80865845166454469833E-12
   -0.29721267890408163904E-12
    0.95608910349488403518E-12
   -0.10644727492121623463E-11
   -0.96086236163121762281E-13
    0.68804587028041955948E-12
    0.52949049152170203211E-12
   -0.60081924002128712158E-12
   -0.28403485071770315260E-12
    0.75512496463730732843E-12
    0.53321298294938876062E-12
   -0.19869313918524041480E-11
   -0.28035761109589172144E-12
   -0.95982688625051236375E-12
   -0.57718849152341126808E-12
    0.29987285772304074731E-12
   -0.12487649925813235233E-11
   -0.37908160814912376601E-13
    0.44276966691579878550E-12
    0.10419014868588357764E-12
    0.79921778148121559369E-12
    0.76749375794081769769E-12
   -0.21998455229394111066E-12
    0.12915759477682770272E-12
    0.72763388523393217174E-12
    0.35230699782786488386E-12
   -0.67655419156165772002E-12
    0.17583611120248947271E-12
   -0.54009122113582887260E-12
   -0.88672066294156415798E-12
   -0.69244606457349874257E-12
    0.11913817024874584109E-11
    0.19753401512440623020E-11
   -0.70068841588026540295E-12
   -0.53759173855758043049E-12
   -0.83865421045725614573E-12
   -0.35480942732392263354E-12
    0.66854389233691636132E-13
    0.92242330228684915685E-12
    0.95584539692608959057E-12
   -0.20221650733773192673E-11
   -0.18396959574011510843E-12
   -0.11307249435906710279E-12
   -0.11666227278379860894E-11
    0.39468002384786748330E-03
    0.39086554737046329806E-11
    0.27927093946573444057E-11
    0.61140200752611100074E-13
    0.30839471914772273829E-13
   -0.61249099644447341125E-13
   -0.15588560758040346534E-13
   -0.97613307366385669112E-14
    0.79371880222605006964E-11
    0.84183248365075089101E-03
    0.18493293918573666841E-02
    0.15340473196321842766E-01
    0.12188651412434048681E-10
    0.14401705210468164839E-13
   -0.32929800312695857505E-13
   -0.14739053184741889850E-12
   -0.67300117516647573439E-13
    0.77283776845851866331E-13
    0.90758586562777003465E-13
    0.55960513851457528609E-12
   -0.16142010408559099349E-12
   -0.32368033543761839009E-12
   -0.22606347764869915085E-12
   -0.21263628771495131807E-13
    0.23602577133415760736E-12
    0.19226730268444161237E-12
    0.15293330085713114661E-12
    0.11572057074631860498E-12
    0.77607240414221609348E-01
    0.71705031101939563365E-02
    0.11639789970006254784E-02
    0.50056476781380645873E-03
    0.17807779201680886481E-09
    0.18629833338006524434E-10
    0.10386547645799956372E-10
    0.38340600526474603134E-03
    0.66915299736870618476E-03
    0.14895203450426225487E-02
    0.51929386471574190409E-02
    0.76507016445944389660E-01
    0.20184845724415859634E-02
    0.83270198038164580136E-03
    0.17352704300625205005E-03
    0.76740966869528681672E-04
    0.21633308754963544336E-02
    0.20441269762215461242E-09
   -0.24079789512945194876E-13
   -0.21986384579327439759E-13
   -0.38176982375049707042E-13
   -0.54226711768424086281E-13
   -0.84095119556666492482E-13
    0.20956881097733009435E-11
    0.54799702251253148977E-04
    0.31095553658735724991E-03
    0.31177072553309236383E-04
   -0.38855177970520862757E-13
   -0.12503915949109487067E-13
    0.17022578065265143563E-12
   -0.24165518296464620000E-12
    0.27748652587182971102E-13
   -0.66634756326273392246E-13
   -0.47686857144062360034E-12
    0.66396817392039985549E-12
   -0.31453860643388925159E-12
   -0.13561413683567039902E-12
    0.40532420288907670596E-12
    0.25233622313079275221E-12
    0.64776033522866793608E-13
    0.44868844338135753898E-12
   -0.54687420696704889111E-13
    0.38526421524618094192E-12
   -0.26097328158159009441E-12
    0.23151095992761055781E-12
    0.57368998752445024008E-12
   -0.39375990927682488816E-12
    0.84253912135131746918E-14
   -0.14496662399588778972E-12
    0.19859729302552363457E-12
   -0.34230992681613707300E-13
    0.10484462708913877492E-11
    0.35207319402319039146E-12
    0.23744410117682087075E-12
    0.10869074457996178475E-12
   -0.21735155429444511039E-12
   -0.90850193607038726513E-12
    0.86665011246540676392E-14
   -0.83334045121022283867E-16
    0.57219489868868975468E-13
   -0.43265409012631683837E-13
   -0.16454244541544316404E-13
   -0.20184480332085454568E-12
   -0.10473022632886978409E-12
   -0.90998493929128771125E-13
   -0.93478911847163819349E-13
   -0.44645900916517031392E-13
   -0.32158433322975853322E-11
   -0.74117517969226333529E-14
   -0.27281227637065303124E-13
    0.40670915709784307166E-12
    0.89271708446462195979E-12
    0.40452086629048833235E-12
    0.69122385292197376923E-12
    0.27760834477590405875E-12
   -0.31079109560228958852E-12
    0.96085965136128597016E-14
    0.28956779651235040563E-12
    0.19831482942287523484E-12
    0.16888204008757418887E-13
   -0.10574234000571483106E-13
    0.19483005649351635917E-12
   -0.70112640619519159297E-13
   -0.82361259615767590069E-13
   -0.73302819516305957946E-12
   -0.19400119009809807884E-12
   -0.25592645794119264857E-12
   -0.25781194037059909659E-12
   -0.44528862040636679908E-12
   -0.71125127216721038734E-13
    0.80366460015918805174E-13
    0.62797377640491594202E-12
    0.67798912809534844623E-12
    0.38254625227695898049E-13
    0.65119590673313408912E-13
    0.20615051656688859137E-12
   -0.18877721446693478576E-12
   -0.54268324339851974997E-12
    0.36534216516718125350E-12
    0.19580978116020657651E-12
    0.32221382366362567246E-14
    0.96233391565637684894E-14
    0.10059619189933821775E-13
    0.26802744188967272950E-12
   -0.34514381558584572369E-11
   -0.37326543090899073775E-13
   -0.68301111469714647086E-13
   -0.83103156259408761676E-13
   -0.20695452521320583178E-12
   -0.24762785977174372321E-12
   -0.32538419488841997152E-14
   -0.14673000205873635799E-13
    0.11852098960505232710E-11
   -0.43740507619264165477E-12
    0.75788262230395110349E-12
    0.42128457386239786409E-12
   -0.44206449697593366219E-12
    0.15935943711815486937E-13
   -0.22664087485962643711E-12
    0.69817695195751182867E-12
   -0.37736530599393100754E-12
    0.35180465402142304699E-12
   -0.24810259860325445230E-12
   -0.10488601694232472002E-11
   -0.47559545268530898852E-12
    0.19021946234754501434E-13
   -0.43457064410182807943E-12
    0.11544907078940392540E-12
    0.19276878594944002342E-12
    0.15328780500906420744E-12
   -0.35332802824270016011E-12
    0.64322533590659289441E-13
    0.10764678574389990311E-12
    0.20281781850783259257E-12
    0.31525593957678302648E-12
    0.18728524996621126949E-12
   -0.69830183990833162152E-12
   -0.81116135550610212098E-12
   -0.23116939961563689733E-12
   -0.14965259265482870307E-12
    0.14204724445010911557E-12
    0.20885851515550100366E-08
    0.46540299004514911789E-08
    0.53184227013305739352E-05
    0.69950004926709518564E-04
    0.44448507790806053401E-03
    0.23775823448294783856E-03
    0.10409827916029621645E-03
    0.28380175872763048137E-02
    0.59704025929974106886E-08
    0.40630568036737821132E-09
    0.62039382493949172480E-13
    0.11515441776015605987E-08
    0.40738140252673158651E-04
    0.25639233054030586713E-11
    0.32407677593377305780E-10
    0.15081785533308590978E-03
    0.55820471743983071308E-03
    0.11049503916536604006E-01
    0.78925353051969376894E-01
    0.78217558294483083281E-01
    0.78066179572387336613E-02
    0.18779496857068804505E-02
    0.68782877599797066261E-03
    0.20435317441883674118E-03
    0.12790851723125636275E-04
    0.50943868431231674292E-03
    0.19868979695877161604E-02
   -0.17601773098851224352E-12
    0.29112681965339661591E-12
    0.33403539791745676692E-12
    0.36658627762140848059E-13
   -0.46834240950705393125E-12
   -0.28763486100561182697E-12
   -0.16311518808833348736E-12
   -0.10018682111679276117E-12
    0.27448532125327496663E-12
    0.34168112871103732881E-12
   -0.32981810261856166663E-12
   -0.56257350072073313154E-13
    0.21195432444472920802E-12
   -0.10855103113504396174E-12
    0.25334223514682870288E-13
    0.61140609918911575322E-06
    0.22973116425679428930E-05
    0.57546723526894837748E-05
    0.12103837734686526061E-04
    0.27890334064390417311E-04
    0.68223960103498671164E-04
    0.12958920706582406374E-04
    0.21552267428919136948E-12
   -0.23389246996553720210E-12
   -0.20724474781538358854E-12
    0.12985864798854280390E-13
    0.14656906345641039460E-05
    0.62172251348631124557E-05
   -0.80509629987529722885E-12
   -0.21405943478320569100E-11
   -0.81206830430203360527E-12
   -0.59813462966567391634E-12
    0.41968144435485648422E-13
    0.94309544567104001913E-12
   -0.98906467804365599834E-12
   -0.57778972688632586017E-12
   -0.88065886569357910623E-12
    0.51506998570195989765E-14
   -0.11661208237050711216E-11
    0.17362129194996845318E-11
    0.11391433707989682380E-11
   -0.91809040238565452732E-12
    0.14059215381712035610E-11
    0.98660097153299203010E-12
    0.10456882092593233923E-11
   -0.80758756838807243937E-12
    0.40015804372492105410E-13
   -0.35755300165175562764E-12
   -0.93977966587977975107E-13
   -0.21408614596507860371E-12
   -0.33972119645287371351E-12
   -0.63389077915910883240E-12
   -0.19198920975731392354E-12
    0.12105870139692237107E-11
   -0.59184742005364802694E-12
    0.13442458815274336690E-12
   -0.25192711830523105386E-12
    0.11548657896456940864E-11
    0.52692063026786620534E-12
    0.26551031365769872615E-11
    0.63920092312310171579E-12
   -0.70548992598674328118E-12
   -0.45516476302668178325E-12
   -0.33237896970816475729E-11
   -0.43672094933156225786E-12
    0.10779306592702801756E-11
   -0.73586457697507069220E-12
    0.88302824046857352111E-12
    0.87264639108130053222E-12
   -0.30850078641420351803E-12
   -0.44587405169830787130E-13
    0.16102581601443992342E-11
    0.13379319864614550220E-11
   -0.82402686087424661238E-14
   -0.93519382648715741128E-12
    0.27413043877961929101E-12
    0.44383106233283938514E-12
   -0.12028648653054046215E-11
    0.66729595107102711462E-12
    0.46770493737733315321E-12
    0.46107885532288405086E-12
   -0.14338119948491540702E-12
    0.74255653356164380214E-12
    0.10440276505049765244E-12
    0.86831015809231232353E-12
    0.63298343832014246884E-12
    0.26057342231182878609E-12
    0.10135758746592453352E-12
   -0.41121531840158329905E-12
   -0.28579359353567716151E-12
   -0.36059119397748412347E-12
   -0.46552571443044233231E-12
    0.23710403965112188401E-12
    0.23810616209062308268E-12
   -0.40632242010967218668E-12
   -0.38728437267127876358E-12
   -0.52767101505954042861E-14
   -0.22260676995772638148E-12
    0.15086663990549036546E-12
    0.10838144565627922357E-12
    0.86151118402305283340E-13
    0.27944960914941284464E-11
    0.66418682376255497432E-12
    0.25748879990372567988E-04
    0.26764179230477122388E-04
   -0.41711316171118580526E-13
   -0.60275653856761662555E-13
   -0.16897947783073297556E-12
   -0.47002886902714801108E-14
    0.76325423731468584658E-13