# vtk DataFile Version 3.0
LAPLACIEN  2D
ASCII
DATASET UNSTRUCTURED_GRID
 POINTS         481  float
   6.2500000000000000E-002  0.87500000000000000        0.0000000000000000     
  0.12500000000000000       0.87500000000000000        0.0000000000000000     
  0.12500000000000000       0.93750000000000000        0.0000000000000000     
   3.7499999999999999E-002  0.91249999999999998        0.0000000000000000     
   8.1250000000000003E-002  0.91874999999999996        0.0000000000000000     
   8.7499999999999994E-002  0.96250000000000002        0.0000000000000000     
   4.3749999999999997E-002  0.95625000000000004        0.0000000000000000     
  0.18750000000000000       0.87500000000000000        0.0000000000000000     
  0.25000000000000000       0.87500000000000000        0.0000000000000000     
  0.25000000000000000       0.93750000000000000        0.0000000000000000     
  0.16250000000000001       0.91249999999999998        0.0000000000000000     
  0.20624999999999999       0.91874999999999996        0.0000000000000000     
  0.21249999999999999       0.96250000000000002        0.0000000000000000     
  0.16875000000000001       0.95625000000000004        0.0000000000000000     
   6.2500000000000000E-002  0.75000000000000000        0.0000000000000000     
  0.12500000000000000       0.75000000000000000        0.0000000000000000     
  0.12500000000000000       0.81250000000000000        0.0000000000000000     
   3.7499999999999999E-002  0.78749999999999998        0.0000000000000000     
   8.1250000000000003E-002  0.79374999999999996        0.0000000000000000     
   8.7499999999999994E-002  0.83750000000000002        0.0000000000000000     
   4.3749999999999997E-002  0.83125000000000004        0.0000000000000000     
  0.18750000000000000       0.75000000000000000        0.0000000000000000     
  0.25000000000000000       0.75000000000000000        0.0000000000000000     
  0.25000000000000000       0.81250000000000000        0.0000000000000000     
  0.16250000000000001       0.78749999999999998        0.0000000000000000     
  0.20624999999999999       0.79374999999999996        0.0000000000000000     
  0.21249999999999999       0.83750000000000002        0.0000000000000000     
  0.16875000000000001       0.83125000000000004        0.0000000000000000     
  0.31250000000000000       0.87500000000000000        0.0000000000000000     
  0.37500000000000000       0.87500000000000000        0.0000000000000000     
  0.37500000000000000       0.93750000000000000        0.0000000000000000     
  0.28749999999999998       0.91249999999999998        0.0000000000000000     
  0.33124999999999999       0.91874999999999996        0.0000000000000000     
  0.33750000000000002       0.96250000000000002        0.0000000000000000     
  0.29375000000000001       0.95625000000000004        0.0000000000000000     
  0.43750000000000000       0.87500000000000000        0.0000000000000000     
  0.50000000000000000       0.87500000000000000        0.0000000000000000     
  0.50000000000000000       0.93750000000000000        0.0000000000000000     
  0.41249999999999998       0.91249999999999998        0.0000000000000000     
  0.45624999999999999       0.91874999999999996        0.0000000000000000     
  0.46250000000000002       0.96250000000000002        0.0000000000000000     
  0.41875000000000001       0.95625000000000004        0.0000000000000000     
  0.31250000000000000       0.75000000000000000        0.0000000000000000     
  0.37500000000000000       0.75000000000000000        0.0000000000000000     
  0.37500000000000000       0.81250000000000000        0.0000000000000000     
  0.28749999999999998       0.78749999999999998        0.0000000000000000     
  0.33124999999999999       0.79374999999999996        0.0000000000000000     
  0.33750000000000002       0.83750000000000002        0.0000000000000000     
  0.29375000000000001       0.83125000000000004        0.0000000000000000     
  0.43750000000000000       0.75000000000000000        0.0000000000000000     
  0.50000000000000000       0.75000000000000000        0.0000000000000000     
  0.50000000000000000       0.81250000000000000        0.0000000000000000     
  0.41249999999999998       0.78749999999999998        0.0000000000000000     
  0.45624999999999999       0.79374999999999996        0.0000000000000000     
  0.46250000000000002       0.83750000000000002        0.0000000000000000     
  0.41875000000000001       0.83125000000000004        0.0000000000000000     
   6.2500000000000000E-002  0.62500000000000000        0.0000000000000000     
  0.12500000000000000       0.62500000000000000        0.0000000000000000     
  0.12500000000000000       0.68750000000000000        0.0000000000000000     
   3.7499999999999999E-002  0.66249999999999998        0.0000000000000000     
   8.1250000000000003E-002  0.66874999999999996        0.0000000000000000     
   8.7499999999999994E-002  0.71250000000000002        0.0000000000000000     
   4.3749999999999997E-002  0.70625000000000004        0.0000000000000000     
  0.18750000000000000       0.62500000000000000        0.0000000000000000     
  0.25000000000000000       0.62500000000000000        0.0000000000000000     
  0.25000000000000000       0.68750000000000000        0.0000000000000000     
  0.16250000000000001       0.66249999999999998        0.0000000000000000     
  0.20624999999999999       0.66874999999999996        0.0000000000000000     
  0.21249999999999999       0.71250000000000002        0.0000000000000000     
  0.16875000000000001       0.70625000000000004        0.0000000000000000     
   6.2500000000000000E-002  0.50000000000000000        0.0000000000000000     
  0.12500000000000000       0.50000000000000000        0.0000000000000000     
  0.12500000000000000       0.56250000000000000        0.0000000000000000     
   3.7499999999999999E-002  0.53749999999999998        0.0000000000000000     
   8.1250000000000003E-002  0.54374999999999996        0.0000000000000000     
   8.7499999999999994E-002  0.58750000000000002        0.0000000000000000     
   4.3749999999999997E-002  0.58125000000000004        0.0000000000000000     
  0.18750000000000000       0.50000000000000000        0.0000000000000000     
  0.25000000000000000       0.50000000000000000        0.0000000000000000     
  0.25000000000000000       0.56250000000000000        0.0000000000000000     
  0.16250000000000001       0.53749999999999998        0.0000000000000000     
  0.20624999999999999       0.54374999999999996        0.0000000000000000     
  0.21249999999999999       0.58750000000000002        0.0000000000000000     
  0.16875000000000001       0.58125000000000004        0.0000000000000000     
  0.31250000000000000       0.62500000000000000        0.0000000000000000     
  0.37500000000000000       0.62500000000000000        0.0000000000000000     
  0.37500000000000000       0.68750000000000000        0.0000000000000000     
  0.28749999999999998       0.66249999999999998        0.0000000000000000     
  0.33124999999999999       0.66874999999999996        0.0000000000000000     
  0.33750000000000002       0.71250000000000002        0.0000000000000000     
  0.29375000000000001       0.70625000000000004        0.0000000000000000     
  0.43750000000000000       0.62500000000000000        0.0000000000000000     
  0.50000000000000000       0.62500000000000000        0.0000000000000000     
  0.50000000000000000       0.68750000000000000        0.0000000000000000     
  0.41249999999999998       0.66249999999999998        0.0000000000000000     
  0.45624999999999999       0.66874999999999996        0.0000000000000000     
  0.46250000000000002       0.71250000000000002        0.0000000000000000     
  0.41875000000000001       0.70625000000000004        0.0000000000000000     
  0.31250000000000000       0.50000000000000000        0.0000000000000000     
  0.37500000000000000       0.50000000000000000        0.0000000000000000     
  0.37500000000000000       0.56250000000000000        0.0000000000000000     
  0.28749999999999998       0.53749999999999998        0.0000000000000000     
  0.33124999999999999       0.54374999999999996        0.0000000000000000     
  0.33750000000000002       0.58750000000000002        0.0000000000000000     
  0.29375000000000001       0.58125000000000004        0.0000000000000000     
  0.43750000000000000       0.50000000000000000        0.0000000000000000     
  0.50000000000000000       0.50000000000000000        0.0000000000000000     
  0.50000000000000000       0.56250000000000000        0.0000000000000000     
  0.41249999999999998       0.53749999999999998        0.0000000000000000     
  0.45624999999999999       0.54374999999999996        0.0000000000000000     
  0.46250000000000002       0.58750000000000002        0.0000000000000000     
  0.41875000000000001       0.58125000000000004        0.0000000000000000     
  0.56250000000000000       0.87500000000000000        0.0000000000000000     
  0.62500000000000000       0.87500000000000000        0.0000000000000000     
  0.62500000000000000       0.93750000000000000        0.0000000000000000     
  0.53749999999999998       0.91249999999999998        0.0000000000000000     
  0.58125000000000004       0.91874999999999996        0.0000000000000000     
  0.58750000000000002       0.96250000000000002        0.0000000000000000     
  0.54374999999999996       0.95625000000000004        0.0000000000000000     
  0.68750000000000000       0.87500000000000000        0.0000000000000000     
  0.75000000000000000       0.87500000000000000        0.0000000000000000     
  0.75000000000000000       0.93750000000000000        0.0000000000000000     
  0.66249999999999998       0.91249999999999998        0.0000000000000000     
  0.70625000000000004       0.91874999999999996        0.0000000000000000     
  0.71250000000000002       0.96250000000000002        0.0000000000000000     
[...]
 CELL_DATA         896
 SCALARS Migratory_cells float
 LOOKUP_TABLE default
    0.35890340226252543351E-12
    0.86109740172906668081E-13
   -0.26161128508386946764E-12
    0.31259889992006821262E-11
    0.14812642631665037351E-11
   -0.30042722379950649313E-11
   -0.19740003740810332722E-12
   -0.11121515694493480719E-12
    0.16895089685882223219E-11
   -0.10648649688070268018E-11
   -0.23994913493207496935E-11
   -0.21451327183897126823E-11
    0.23859685758504347333E-11
   -0.15397038609490617977E-11
    0.96800941904599686826E-12
   -0.37627834298586571772E-11
    0.14183081642926017568E-11
    0.26843570183490587109E-11
    0.11120703080290406293E-11
    0.70464863918936458896E-12
   -0.15464322461053175173E-12
    0.31269670812903671458E-11
   -0.17503982199384871619E-11
   -0.35315148947873082797E-11
   -0.93195758403751386255E-12
    0.12797323126481814123E-11
   -0.16667937225733656469E-11
   -0.12293458731927434950E-11
   -0.28045586730170965695E-11
   -0.52596173805541614331E-12
    0.43657450160418129001E-12
    0.12889641063103346470E-11
    0.26006592957380507953E-11
   -0.20610170064306421045E-12
   -0.10629351283293637220E-11
   -0.22653090684236202839E-12
   -0.14007149491065567637E-12
   -0.47195225778675679455E-12
   -0.16007748092194808596E-11
    0.59114330529576651897E-12
    0.11433585564727574183E-11
   -0.90380721323100498249E-12
   -0.48732039013703160715E-12
    0.97117348823251223960E-12
    0.19251230893992579260E-11
    0.37606046068409039063E-12
    0.69131834133797301931E-12
    0.71135063661482330064E-12
    0.13882144863590898996E-11
    0.13317112062017463270E-11
    0.19418319027427502713E-11
    0.13047438182205822797E-12
   -0.12780049126379992276E-11
    0.14567943498823976082E-12
   -0.12646077803812242105E-11
    0.84186722342259579371E-12
   -0.60821569577574537319E-12
    0.14339940071543157318E-11
   -0.55655306536523261141E-12
   -0.95445275591382823844E-12
   -0.11322425619700628783E-11
    0.21832450080985444558E-11
   -0.13477007602703348999E-11
    0.44837389776907880899E-12
   -0.19546857982578744507E-11
    0.30504268548524282327E-11
   -0.87407872545742534388E-12
    0.10865929715395939295E-11
    0.56427448349411973643E-12
   -0.26597474040342494768E-11
    0.39091996003705184653E-12
    0.28970327536009522723E-12
    0.40948163987600237037E-12
    0.20821778512605783606E-12
   -0.16705293745859268797E-12
    0.71560648980294787785E-13
    0.15018056472557048795E-11
   -0.14449688821787909577E-11
   -0.13088384219136031445E-11
    0.11615545776096219999E-11
   -0.28170349881684699164E-13
    0.19592985400086897658E-12
    0.44469511208090035907E-12
   -0.12531875188177997964E-12
    0.94463789634163995843E-12
    0.41060660291385726380E-12
    0.12988210710512047754E-12
    0.13387925421949768330E-12
    0.53930340571804641002E-12
   -0.17703073054802365125E-12
   -0.55570650457018664059E-13
    0.79317683699872658066E-12
    0.21077608392745919839E-11
   -0.26076590348725433484E-12
   -0.17894890763915551329E-12
    0.93120204402432839050E-12
    0.89903343861860034333E-13
    0.46455888423947016622E-12
    0.11165807050073225650E-12
   -0.88339931620242210494E-14
    0.20754789176695811044E-13
    0.18722026773743966227E-13
    0.44043299587012736866E-13
    0.11624381095337013574E-12
    0.31083792693932664251E-12
   -0.69231730852231392075E-13
   -0.20227951497576683935E-12
   -0.41110717718983257295E-12
   -0.30760499924279519224E-12
    0.13466664758499241322E-12
   -0.11768279409679863390E-12
   -0.19917746146447026269E-13
   -0.17831371830790563803E-12
   -0.52032938503548969714E-12
    0.53644809720995898700E-12
   -0.58516788790215723731E-13
   -0.45584171499657273874E-12
   -0.13946941287630372105E-11
   -0.87479077720109458591E-12
   -0.70069663122922176444E-13
   -0.11602656751298093871E-11
    0.17284742301058709024E-11
    0.26078291869466017730E-12
    0.10558642824171063594E-12
   -0.34359815875497745978E-12
   -0.11101081883721092489E-11
    0.72191911934186927491E-13
   -0.20738063379150564838E-12
   -0.16271256061193044966E-12
   -0.13736187676055195420E-12
   -0.39118869808495437904E-12
    0.54769832486178856155E-12
    0.55046726875174252646E-12
   -0.84311207565257079796E-12
   -0.72752170385040264956E-12
   -0.55437313855481197609E-12
   -0.36881945757024253524E-12
   -0.12288085420088360641E-12
   -0.25968165982046670762E-12
   -0.98359938798969801014E-12
    0.40754809447617069744E-12
    0.10454598283708553517E-12
    0.19463710347882326121E-12
    0.11438608728603496560E-12
    0.12861997890817073032E-12
    0.81702022167513562791E-13
    0.71867242234834208036E-12
    0.32207130253153547782E-12
    0.31302432770564794198E-12
   -0.98656761881740688390E-12
    0.13795752475483466240E-12
    0.65637066609925475972E-13
    0.12858285073190865443E-12
    0.44870143926990003323E-13
   -0.15212140508413780798E-13
   -0.63563838774263928183E-14
   -0.50964461138184721134E-11
    0.69259502521718517722E-06
    0.12398654813690954300E-13
    0.21244649596231745828E-13
   -0.60583364272132998660E-13
    0.53006327810187876319E-14
    0.12266409961278950364E-12
    0.99071367024358788769E-13
    0.15384676103356969642E-13
    0.54372486247454041363E-13
   -0.10621458003098654311E-14
    0.12635964953912558619E-13
    0.80000692909867979188E-13
    0.22922339769934803260E-12
    0.76158070548279364313E-13
   -0.15483290136876231636E-12
   -0.26192719276646621834E-12
   -0.13246882468076605922E-12
    0.52519320247210550741E-13
   -0.17525931038173287851E-13
    0.67836699339762731710E-13
    0.24771535840104165612E-12
    0.18219894671182955575E-13
    0.96446065126439108915E-13
    0.29257767095619547316E-12
   -0.58183461666146689448E-12
    0.15490790232299067131E-04
    0.93374208685465196882E-05
    0.63948548250090909376E-03
    0.32273945181433998097E-01
    0.63815121476390491984E-02
    0.52926280634636359984E-02
    0.19866533024687447099E-08
   -0.59138153000910538547E-14
   -0.25112525992438985335E-13
   -0.13294635019150787927E-12
   -0.98491527366375821269E-13
   -0.13599341002511845569E-12
    0.14638636592043740868E-05
    0.89768055412655664844E-06
    0.68124270071786233866E-02
    0.15630566435320981662E-03
    0.36206658017299474207E-03
    0.61680851949747470854E-03
    0.35365608100102623121E-05
    0.70300828455561484526E-05
    0.16507533093586616692E-12
    0.15526402350394984299E-12
    0.11571840370267059549E-12
    0.56204151735418059273E-13
    0.25170054440002917509E-06
    0.87722437220147193637E-05
    0.84507264457217662410E-06
    0.12161542920609909243E-05
    0.24678634988515800973E-02
    0.14874225990252678067E-01
    0.11007774629110167464E+00
    0.10675969134511968661E+00
    0.11182743807491141858E-01
    0.27867437622224881973E-02
    0.12714748983297559370E-02
    0.97359799779035834880E-03
    0.40308586223871455752E-04
    0.90731111737432060434E-04
    0.54358034248969415349E-03
    0.10438092083046347520E-02
    0.37939815058068244655E-02
    0.24430663180678240630E-02
   -0.40642010038736731378E-12
   -0.61606959198420088764E-13
   -0.22385012261496360313E-13
   -0.33604006922900385337E-12
   -0.19500184956081887910E-12
   -0.27794313191903352971E-11
    0.66530127624010381402E-12
    0.63610212325699716398E-12
    0.13523392637966587727E-11
    0.78676412552757788504E-12
   -0.13960585258512825144E-11
   -0.39174566707151406615E-12
    0.11299736771176059270E-12
   -0.20811171504008848166E-12
    0.35394272258661404038E-12
    0.14562043020648959040E-11
    0.65281688600506265119E-12
   -0.47212112012348398156E-12
   -0.86937629883178758535E-12
    0.11772780239485541625E-11
   -0.13860058699980071400E-12
   -0.60444439495239507913E-12
    0.72263341848235999368E-12
    0.46793298588696772966E-12
    0.30456880229848197961E-12
   -0.19089033985986348918E-12
    0.13921399166280119932E-12
    0.89478370673450354391E-12
    0.36465758536543531596E-13
    0.94421192807846202792E-13
    0.87627380950861613832E-13
    0.18327318686660488170E-12
    0.65322062576791731691E-13
   -0.54043430481174970616E-13
    0.12650723858665600178E-12
    0.25658603207649171741E-12
   -0.35544883724434797776E-12
   -0.10231827032901594367E-12
    0.16941010115840471657E-13
    0.21621396523151478500E-13
    0.13383544556945523030E-12
    0.19002020504298591610E-12
   -0.10197899234509403428E-12
    0.34028733139066622460E-12
    0.37787318586749388905E-13
   -0.14036830795972153296E-12
    0.12772240259755056330E-11
    0.13668225041563738194E-11
    0.86703200873428716365E-12
    0.12787774882211042847E-12
   -0.28765927422642524368E-13
    0.23050087115774259889E-12
    0.20364464579755281493E-13
    0.20109633004849527539E-13
    0.57681032434113108210E-12
    0.51495057961579481398E-12
   -0.26211693154879680567E-11
   -0.29553407599284988806E-11
   -0.19157628447915655249E-11
   -0.99616432202781055047E-12
   -0.31619146498344835650E-11
    0.51443890760882274344E-13
   -0.79764433949619217613E-13
    0.16971264037565468471E-11
    0.72507541783148598782E-13
    0.41431674619353654784E-12
    0.31815033896312280825E-11
   -0.15043382541325217695E-12
   -0.15985289232299874150E-11
   -0.58631165736412898108E-12
    0.19224193726524309720E-11
   -0.21301452782201445178E-11
   -0.16263578099910498764E-12
    0.14061703044702738886E-11
    0.10909162935062030967E-11
   -0.12054773140808910800E-11
   -0.57234412460450873371E-12
    0.15447282766271281171E-11
    0.10922280064684551909E-11
   -0.40013490416128764622E-11
   -0.56874987290132737594E-12
   -0.19148696424586158612E-11
   -0.11490141905539721900E-11
    0.13272820505525395815E-12
   -0.13970915757419967188E-11
   -0.21066407959946248217E-12
    0.92908603092654568635E-12
    0.51349407767997258707E-12
    0.15751181872394011716E-11
    0.15552751635019712342E-11
   -0.45233630118987291033E-12
    0.18246073030970387008E-13
    0.99945090954089552207E-12
    0.11279547383650717486E-11
   -0.80091294738553659294E-12
    0.29929201486105087520E-12
   -0.14310337853567824822E-11
   -0.14160324423579464840E-11
   -0.66163737221649512770E-12
    0.24375610942493727233E-11
    0.32662893727670762743E-11
   -0.13723643382731078204E-11
   -0.10629573855270755397E-11
   -0.16735409964679429521E-11
   -0.70089634727736034373E-12
    0.13031390742434414570E-12
    0.18713777382876386686E-11
    0.23971155498288120281E-11
   -0.33403852112770345981E-11
   -0.47348018115555804859E-12
    0.20394262245827429840E-12
   -0.23092633761929533026E-11
    0.71123937335023691437E-03
    0.39671797622782118843E-10
    0.42936846153283686660E-10
    0.29968948975021657160E-13
   -0.21874378917767302435E-13
   -0.14108997835933931849E-12
    0.17567530171097263002E-15
    0.47105066050947981224E-14
    0.16322956324753528839E-08
    0.45378572243281439097E-02
    0.58356196532292677753E-02
    0.43794788846980785280E-01
    0.36459590069411785592E-09
   -0.18621884557282628536E-13
   -0.16018300588807773407E-12
   -0.10332966933074576497E-12
    0.84974152904526941367E-14
    0.13572885752492242585E-12
    0.18213753795265551779E-12
    0.67088502508865689666E-12
   -0.20879004059254735808E-12
   -0.36444939872491964888E-12
   -0.29172675218440300344E-12
   -0.14395924589653400982E-12
    0.18516968961100536738E-12
    0.16502044428224113708E-12
    0.11478958204606929574E-12
    0.29545639354506638038E-13
    0.10844086315088648231E+00
    0.14163796197680135480E-01
    0.23877947286700521891E-02
    0.10548484854070463122E-02
    0.19459063037175540003E-08
    0.26825035977561720870E-09
    0.14092280935553440479E-09
    0.78465961443304778605E-03
    0.11988921011981629270E-02
    0.26398701138338645338E-02
    0.10541372419520049150E-01
    0.10549579803912242926E+00
    0.41544806715380295029E-02
    0.16523099797076403437E-02
    0.39021064947765410477E-03
    0.17446235651325732213E-03
    0.88650759327772200857E-02
    0.23513030297042516546E-07
   -0.12789210476469651927E-13
   -0.20168737423244371224E-13
   -0.21036243844631413938E-13
   -0.38103061331431472613E-13
   -0.11807367160700766331E-12
    0.39127035492001146798E-10
    0.12382345309023962674E-03
    0.67987722231916281751E-03
    0.71981792646225729025E-04
    0.46904759712176923802E-15
    0.84802152593948502425E-13
    0.28991214033827180275E-12
   -0.13761783026284431133E-12
    0.62092817124347104408E-13
   -0.13140279650578303075E-12
   -0.76374397744870175514E-13
    0.12151285798907565440E-11
   -0.13904616940424277161E-12
   -0.58769918708195768635E-12
    0.12689914476162689951E-12
    0.23844135719172767619E-12
    0.54237364051788042276E-13
    0.21382088280518105848E-12
   -0.11228631569020022503E-12
    0.39564485370609038471E-12
   -0.19532498684440899973E-12
    0.35891033902717486043E-12
    0.10292342440675713927E-11
   -0.69247139777041965612E-12
    0.18484643691274410183E-13
   -0.29847635390249809876E-12
    0.38009969276714670321E-12
    0.14709669379522839623E-12
    0.15088928205175755706E-11
    0.97612034015785760444E-12
    0.53405679434222599308E-12
    0.11993329182776650963E-12
   -0.34644016765627692669E-12
    0.56323997587246422430E-13
    0.29342282804658340679E-13
    0.73688460684718819776E-13
    0.10842831093608620506E-12
   -0.57843176509657161401E-14
   -0.33264331466017501619E-13
   -0.11902742144278116607E-12
   -0.34573826690329070350E-13
    0.26077836904417090081E-13
   -0.71435923142164017448E-14
   -0.77603604587718520995E-14
   -0.36284308146245990487E-11
    0.92546310531735744800E-15
    0.21236386262514434398E-13
    0.36189252057777064960E-12
    0.83884477121670823799E-12
    0.70435624498288906720E-12
    0.11515253361564320750E-11
    0.13702083646018780925E-12
   -0.52407589255569768571E-12
    0.21110135125159055733E-12
    0.35541542046181074131E-12
    0.13105762088284473152E-12
    0.12876017391292962790E-12
   -0.43903971404592532740E-13
    0.21480981976332698884E-12
   -0.42658916483915961245E-12
   -0.13677772175386029433E-12
   -0.13301937517567574947E-11
   -0.46729350233180146930E-12
    0.18929536978192961298E-12
   -0.24281216794074896366E-12
   -0.51280031751752479622E-12
   -0.60325967216418026077E-13
    0.36345867053889201106E-12
    0.11071746956081005964E-11
    0.56837869889857246605E-12
    0.59512708128994795760E-13
    0.14372946789358471298E-12
    0.36674119262392510768E-12
   -0.73239486912108938959E-13
   -0.41096615174303546510E-12
    0.30372488556712451455E-12
    0.18136270945488371115E-12
    0.93726435805451180043E-13
    0.56019216669766018891E-13
    0.20096537292523541835E-13
    0.11416998683032176551E-11
   -0.45844600672524572297E-11
   -0.11199289564974825749E-13
   -0.14593141445240958401E-13
   -0.10008808348168043829E-13
   -0.16988415120957635633E-12
   -0.17247169168603249589E-12
   -0.74421440942736191720E-14
   -0.14476962827610424701E-13
    0.16991480501142165274E-11
   -0.56145780289435469812E-12
    0.14708515229384698317E-11
    0.81978952855533830422E-12
   -0.53009717113456421501E-12
   -0.32927994009754024993E-13
   -0.87212862862071315634E-13
    0.85438530550775067600E-12
   -0.61143699012337215767E-12
    0.64299395977843445615E-12
   -0.15691952990518479903E-12
   -0.14595331576447417711E-11
   -0.12085417465061421882E-11
   -0.92971930777945253907E-13
   -0.74337896476379756361E-12
    0.19969340078624495950E-13
   -0.10313848784391909304E-13
    0.14804589193714696359E-12
    0.30699247999625102534E-12
    0.16895690545368490228E-12
    0.11089965489257696572E-12
    0.22524945935924003878E-12
    0.31196671307761587285E-12
    0.49040341355337668158E-13
   -0.92204476116421811815E-12
   -0.79168053920963452260E-12
   -0.74229879909012731848E-13
    0.20877442784683243260E-12
    0.59628926855994822005E-13
    0.14270002835567896771E-07
    0.29583981412036625483E-07
    0.28380481992409410311E-04
    0.16736478827324548441E-03
    0.98126592019740009436E-03
    0.53688793398135557788E-03
    0.23927313673734074031E-03
    0.11297072828429519445E-01
    0.11986718451661519135E-06
    0.29664560070376539725E-08
    0.41742166911917604290E-13
    0.82586694141615721699E-08
    0.99348646542469408677E-04
    0.18036936120581603558E-09
    0.16233663729155619647E-08
    0.55530226947457593089E-03
    0.17156841515298725063E-02
    0.23072411775010293056E-01
    0.11210564951911639042E+00
    0.11017739442118448800E+00
    0.15896930038098087273E-01
    0.36585664939418442720E-02
    0.14689863735834497987E-02
    0.76281875691991754551E-03
    0.58302771606291852748E-04
    0.16008749047029759063E-02
    0.53689644008130107608E-02
   -0.31276224405311934079E-12
    0.49108609005255110169E-13
    0.26939278813517850202E-12
    0.34954258613131866523E-13
   -0.44690675808208126914E-12
   -0.32986367311286732425E-12
   -0.35900836965098787210E-12
    0.73840905330704513034E-13
    0.96314518694835490981E-13
    0.31137387651086955232E-12
   -0.16420631871488431446E-12
    0.25969041245083628296E-12
    0.24182514996221890697E-12
    0.13105923692205829966E-12
    0.83052113163353253586E-13
    0.36884668029274180544E-05
    0.12735051549801297140E-04
    0.31083982258155449022E-04
    0.62850199117774294155E-04
    0.13598170103476864474E-03
    0.29243062010184155608E-03
    0.63608888853314876264E-04
    0.10563025735825572414E-10
    0.39063237481139997322E-12
    0.12964739746911068087E-12
    0.39007558487346428324E-13
    0.85395546861693046254E-05
    0.33630183630998598929E-04
   -0.16028346407487615477E-11
   -0.42756219727837252916E-11
   -0.10347060416749425902E-11
   -0.11740663315499242266E-11
    0.67441345089176552414E-13
    0.18143729451042188160E-11
   -0.14411777400820713743E-11
   -0.12260261020534536035E-11
   -0.16999498590774204225E-11
   -0.73883703550497487682E-13
   -0.22076888780779992536E-11
    0.35052126546871531869E-11
    0.16424038234527446651E-11
   -0.17514371313179049620E-11
    0.28062409254658041586E-11
    0.18747343915355631243E-11
    0.23051958206818840787E-11
   -0.11032148639201514580E-11
    0.28615823044173958213E-12
    0.21414368735181208008E-13
   -0.77291199802434557699E-12
   -0.41513385753555956204E-12
   -0.89890964307539871804E-12
   -0.13591274545005869492E-11
    0.15182875456527705522E-12
    0.23660130489584064141E-11
   -0.81772878712728586278E-12
    0.47996439464543807692E-12
   -0.50069862729672381014E-12
    0.23560694961798301117E-11
    0.10885817081750538266E-11
    0.53699451614092373448E-11
    0.12964982193671134517E-11
   -0.13876674463916499777E-11
   -0.15833307763412884312E-11
   -0.66889182903584142491E-11
   -0.14925264991252259088E-11
    0.22036836867394828189E-11
   -0.14680448425456781831E-11
    0.17981484832183502803E-11
    0.17794626462827703732E-11
   -0.59723032423223215651E-12
   -0.78386682791546539954E-13
    0.31795496351710648169E-11
    0.21224036289142267325E-11
   -0.11782090721585658529E-14
   -0.16637529579303505131E-11
   -0.15511039938615563499E-12
    0.34217123524413387709E-12
   -0.24746753718683235530E-11
    0.19012977685915821002E-11
    0.92646251387095524189E-12
    0.91887051373021789805E-12
   -0.93664064118395356816E-12
    0.10880881163688937476E-11
    0.83108874612819598782E-12
    0.91154248280087033818E-12
    0.91615739085851455520E-12
    0.14180252227187100232E-12
   -0.13484541985821593942E-12
   -0.36725580278649909678E-12
   -0.22402745126736870623E-12
   -0.21030402993409643092E-12
   -0.31105010403026272770E-12
    0.35903752801265226228E-12
    0.31264532861107540498E-12
   -0.72393687738882617636E-12
   -0.62908148896072354660E-12
   -0.39582430881700713974E-12
   -0.37063833364973261476E-12
    0.71564739726648430004E-13
    0.66596632961426464293E-13
    0.77706727273994850112E-13
    0.49562133161094294983E-11
    0.14568318493289507589E-11
    0.29977892628093905135E-03
    0.18457450563629369767E-03
   -0.33095913779728025535E-14
   -0.16105618318387325633E-13
   -0.10666790308574134885E-12
   -0.41844966573999072239E-13
   -0.84959348363180165553E-13