# vtk DataFile Version 3.0
LAPLACIEN  2D
ASCII
DATASET UNSTRUCTURED_GRID
 POINTS         481  float
   6.2500000000000000E-002  0.87500000000000000        0.0000000000000000     
  0.12500000000000000       0.87500000000000000        0.0000000000000000     
  0.12500000000000000       0.93750000000000000        0.0000000000000000     
   3.7499999999999999E-002  0.91249999999999998        0.0000000000000000     
   8.1250000000000003E-002  0.91874999999999996        0.0000000000000000     
   8.7499999999999994E-002  0.96250000000000002        0.0000000000000000     
   4.3749999999999997E-002  0.95625000000000004        0.0000000000000000     
  0.18750000000000000       0.87500000000000000        0.0000000000000000     
  0.25000000000000000       0.87500000000000000        0.0000000000000000     
  0.25000000000000000       0.93750000000000000        0.0000000000000000     
  0.16250000000000001       0.91249999999999998        0.0000000000000000     
  0.20624999999999999       0.91874999999999996        0.0000000000000000     
  0.21249999999999999       0.96250000000000002        0.0000000000000000     
  0.16875000000000001       0.95625000000000004        0.0000000000000000     
   6.2500000000000000E-002  0.75000000000000000        0.0000000000000000     
  0.12500000000000000       0.75000000000000000        0.0000000000000000     
  0.12500000000000000       0.81250000000000000        0.0000000000000000     
   3.7499999999999999E-002  0.78749999999999998        0.0000000000000000     
   8.1250000000000003E-002  0.79374999999999996        0.0000000000000000     
   8.7499999999999994E-002  0.83750000000000002        0.0000000000000000     
   4.3749999999999997E-002  0.83125000000000004        0.0000000000000000     
  0.18750000000000000       0.75000000000000000        0.0000000000000000     
  0.25000000000000000       0.75000000000000000        0.0000000000000000     
  0.25000000000000000       0.81250000000000000        0.0000000000000000     
  0.16250000000000001       0.78749999999999998        0.0000000000000000     
  0.20624999999999999       0.79374999999999996        0.0000000000000000     
  0.21249999999999999       0.83750000000000002        0.0000000000000000     
  0.16875000000000001       0.83125000000000004        0.0000000000000000     
  0.31250000000000000       0.87500000000000000        0.0000000000000000     
  0.37500000000000000       0.87500000000000000        0.0000000000000000     
  0.37500000000000000       0.93750000000000000        0.0000000000000000     
  0.28749999999999998       0.91249999999999998        0.0000000000000000     
  0.33124999999999999       0.91874999999999996        0.0000000000000000     
  0.33750000000000002       0.96250000000000002        0.0000000000000000     
  0.29375000000000001       0.95625000000000004        0.0000000000000000     
  0.43750000000000000       0.87500000000000000        0.0000000000000000     
  0.50000000000000000       0.87500000000000000        0.0000000000000000     
  0.50000000000000000       0.93750000000000000        0.0000000000000000     
  0.41249999999999998       0.91249999999999998        0.0000000000000000     
  0.45624999999999999       0.91874999999999996        0.0000000000000000     
  0.46250000000000002       0.96250000000000002        0.0000000000000000     
  0.41875000000000001       0.95625000000000004        0.0000000000000000     
  0.31250000000000000       0.75000000000000000        0.0000000000000000     
  0.37500000000000000       0.75000000000000000        0.0000000000000000     
  0.37500000000000000       0.81250000000000000        0.0000000000000000     
  0.28749999999999998       0.78749999999999998        0.0000000000000000     
  0.33124999999999999       0.79374999999999996        0.0000000000000000     
  0.33750000000000002       0.83750000000000002        0.0000000000000000     
  0.29375000000000001       0.83125000000000004        0.0000000000000000     
  0.43750000000000000       0.75000000000000000        0.0000000000000000     
  0.50000000000000000       0.75000000000000000        0.0000000000000000     
  0.50000000000000000       0.81250000000000000        0.0000000000000000     
  0.41249999999999998       0.78749999999999998        0.0000000000000000     
  0.45624999999999999       0.79374999999999996        0.0000000000000000     
  0.46250000000000002       0.83750000000000002        0.0000000000000000     
  0.41875000000000001       0.83125000000000004        0.0000000000000000     
   6.2500000000000000E-002  0.62500000000000000        0.0000000000000000     
  0.12500000000000000       0.62500000000000000        0.0000000000000000     
  0.12500000000000000       0.68750000000000000        0.0000000000000000     
   3.7499999999999999E-002  0.66249999999999998        0.0000000000000000     
   8.1250000000000003E-002  0.66874999999999996        0.0000000000000000     
   8.7499999999999994E-002  0.71250000000000002        0.0000000000000000     
   4.3749999999999997E-002  0.70625000000000004        0.0000000000000000     
  0.18750000000000000       0.62500000000000000        0.0000000000000000     
  0.25000000000000000       0.62500000000000000        0.0000000000000000     
  0.25000000000000000       0.68750000000000000        0.0000000000000000     
  0.16250000000000001       0.66249999999999998        0.0000000000000000     
  0.20624999999999999       0.66874999999999996        0.0000000000000000     
  0.21249999999999999       0.71250000000000002        0.0000000000000000     
  0.16875000000000001       0.70625000000000004        0.0000000000000000     
   6.2500000000000000E-002  0.50000000000000000        0.0000000000000000     
  0.12500000000000000       0.50000000000000000        0.0000000000000000     
  0.12500000000000000       0.56250000000000000        0.0000000000000000     
   3.7499999999999999E-002  0.53749999999999998        0.0000000000000000     
   8.1250000000000003E-002  0.54374999999999996        0.0000000000000000     
   8.7499999999999994E-002  0.58750000000000002        0.0000000000000000     
   4.3749999999999997E-002  0.58125000000000004        0.0000000000000000     
  0.18750000000000000       0.50000000000000000        0.0000000000000000     
  0.25000000000000000       0.50000000000000000        0.0000000000000000     
  0.25000000000000000       0.56250000000000000        0.0000000000000000     
  0.16250000000000001       0.53749999999999998        0.0000000000000000     
  0.20624999999999999       0.54374999999999996        0.0000000000000000     
  0.21249999999999999       0.58750000000000002        0.0000000000000000     
  0.16875000000000001       0.58125000000000004        0.0000000000000000     
  0.31250000000000000       0.62500000000000000        0.0000000000000000     
  0.37500000000000000       0.62500000000000000        0.0000000000000000     
  0.37500000000000000       0.68750000000000000        0.0000000000000000     
  0.28749999999999998       0.66249999999999998        0.0000000000000000     
  0.33124999999999999       0.66874999999999996        0.0000000000000000     
  0.33750000000000002       0.71250000000000002        0.0000000000000000     
  0.29375000000000001       0.70625000000000004        0.0000000000000000     
  0.43750000000000000       0.62500000000000000        0.0000000000000000     
  0.50000000000000000       0.62500000000000000        0.0000000000000000     
  0.50000000000000000       0.68750000000000000        0.0000000000000000     
  0.41249999999999998       0.66249999999999998        0.0000000000000000     
  0.45624999999999999       0.66874999999999996        0.0000000000000000     
  0.46250000000000002       0.71250000000000002        0.0000000000000000     
  0.41875000000000001       0.70625000000000004        0.0000000000000000     
  0.31250000000000000       0.50000000000000000        0.0000000000000000     
  0.37500000000000000       0.50000000000000000        0.0000000000000000     
  0.37500000000000000       0.56250000000000000        0.0000000000000000     
  0.28749999999999998       0.53749999999999998        0.0000000000000000     
  0.33124999999999999       0.54374999999999996        0.0000000000000000     
  0.33750000000000002       0.58750000000000002        0.0000000000000000     
  0.29375000000000001       0.58125000000000004        0.0000000000000000     
  0.43750000000000000       0.50000000000000000        0.0000000000000000     
  0.50000000000000000       0.50000000000000000        0.0000000000000000     
  0.50000000000000000       0.56250000000000000        0.0000000000000000     
  0.41249999999999998       0.53749999999999998        0.0000000000000000     
  0.45624999999999999       0.54374999999999996        0.0000000000000000     
  0.46250000000000002       0.58750000000000002        0.0000000000000000     
  0.41875000000000001       0.58125000000000004        0.0000000000000000     
  0.56250000000000000       0.87500000000000000        0.0000000000000000     
  0.62500000000000000       0.87500000000000000        0.0000000000000000     
  0.62500000000000000       0.93750000000000000        0.0000000000000000     
  0.53749999999999998       0.91249999999999998        0.0000000000000000     
  0.58125000000000004       0.91874999999999996        0.0000000000000000     
  0.58750000000000002       0.96250000000000002        0.0000000000000000     
  0.54374999999999996       0.95625000000000004        0.0000000000000000     
  0.68750000000000000       0.87500000000000000        0.0000000000000000     
  0.75000000000000000       0.87500000000000000        0.0000000000000000     
  0.75000000000000000       0.93750000000000000        0.0000000000000000     
  0.66249999999999998       0.91249999999999998        0.0000000000000000     
  0.70625000000000004       0.91874999999999996        0.0000000000000000     
  0.71250000000000002       0.96250000000000002        0.0000000000000000     
[...]
 CELL_DATA         896
 SCALARS Migratory_cells float
 LOOKUP_TABLE default
    0.52302686024127333882E-14
   -0.31921522942412449790E-15
   -0.49931672076569517157E-14
    0.45578538545015244285E-13
    0.19253373451963503272E-13
   -0.44965325917405050396E-13
   -0.45602081085251917466E-14
   -0.33883892556392478717E-14
    0.25234871780213065270E-13
   -0.14215938908370594209E-13
   -0.37320048758320170880E-13
   -0.31325441621775808892E-13
    0.39348709691665488532E-13
   -0.24543119652325041688E-13
    0.11903409865169367561E-13
   -0.58444042557652860454E-13
    0.27550122555424060871E-13
    0.40993660714557655990E-13
    0.17641151447277890740E-13
    0.99663789881211741535E-14
   -0.41742526954244338350E-14
    0.46698563126830764634E-13
   -0.25956541871532131948E-13
   -0.53044549856155759429E-13
   -0.13196293133597720000E-13
    0.17173571308116686174E-13
   -0.25832268298639234555E-13
   -0.17266583734698890947E-13
   -0.65006169094056031634E-13
    0.56736041458839665452E-14
   -0.54552718467270696053E-15
    0.23924709636905931207E-13
    0.43200273764914233760E-13
   -0.31923779406583399189E-14
   -0.17650315982830977990E-13
   -0.40536815503837679609E-14
   -0.24136624526415620858E-14
   -0.77338027575137272253E-14
   -0.22478471386787864045E-13
    0.83330758222473535629E-14
    0.18757425099941551793E-13
   -0.13630025755909635809E-13
    0.15760205250274567604E-13
   -0.92613952595648180207E-14
    0.61284342594129750870E-13
   -0.26730676420266001309E-15
    0.64696821979981558831E-13
    0.17847871531830394718E-13
    0.42101126370106092425E-15
   -0.99084060327693612273E-14
    0.30005978586284732927E-13
    0.47787800575469004532E-14
   -0.22034873436927451479E-13
   -0.16860785043053037738E-13
   -0.31529859536231761361E-14
   -0.26618451236866356396E-13
   -0.16232881290050052608E-13
    0.60973607127859498617E-14
   -0.27297023086839449891E-13
   -0.20470533671254954916E-13
   -0.36991539497959001542E-13
    0.11867205741046113761E-13
   -0.23902777904293958686E-13
    0.86917182348315082636E-14
   -0.67351915638628354378E-13
    0.46286434138083969541E-13
   -0.29110606417106707258E-13
    0.44928664785447691758E-13
   -0.38745096456035394789E-13
   -0.65508253858304985955E-14
   -0.40377520819085264180E-13
   -0.18269776742905554408E-13
    0.15089210248226128064E-12
    0.16341874619598658918E-13
    0.35501677812064467386E-13
    0.44028205979377109828E-13
    0.28682772343188834553E-13
   -0.35761307198427316061E-13
   -0.23929484233386474266E-13
    0.67617550389730937645E-14
    0.22893910522159686986E-13
    0.30826847291333431383E-13
    0.26847014615599101142E-13
   -0.17687577187387429032E-13
    0.55384859760536567888E-14
    0.81113648786900914561E-13
   -0.10291522227089731225E-13
    0.96967656641518116869E-13
   -0.30406107218392935993E-13
    0.35065916260666331021E-13
    0.15451829166024693458E-13
   -0.21577947797738921031E-13
    0.50234998261392368222E-13
   -0.10814462485726133210E-14
   -0.23279640992544069690E-13
    0.19242023094182362700E-13
    0.68564153710334767510E-14
    0.37481586871035510780E-13
    0.24207238577689325771E-13
    0.28090040035227510621E-13
   -0.34985678040295204088E-15
   -0.65913836489736860100E-15
    0.27494134883832846410E-13
   -0.34985573605633179580E-13
    0.27003462177163862021E-13
    0.18412852587791940203E-13
   -0.42182341107218400351E-13
   -0.18484568540503036077E-14
    0.67373812841687779755E-13
    0.55524818028555900193E-14
    0.47088482330074776015E-13
    0.73643399980106336792E-15
    0.27132511321893445386E-13
   -0.16796691135178095001E-13
    0.76207131085036768675E-16
   -0.42620175818846845323E-13
   -0.71067145879330752362E-13
   -0.50763745422739014019E-13
   -0.23786420965105242233E-13
    0.17456087836877849086E-14
   -0.45237550068544945289E-14
    0.30215711381099579234E-13
   -0.29841942526090927041E-13
   -0.22745451133147060634E-13
   -0.17461528816844062338E-13
    0.84383330384729848280E-14
    0.53954622981130523418E-13
    0.41720758533210302784E-13
   -0.21238586383954447812E-13
   -0.64606750832640737065E-14
    0.22353421285991092529E-13
    0.25845792841569011342E-13
   -0.31978029892967971913E-13
   -0.43239505041923345158E-13
    0.13796517971001120467E-13
    0.35170250847581050093E-13
   -0.37062194717732578268E-13
    0.38501093203955587242E-13
   -0.24157608602816274017E-13
    0.28629500741244436109E-13
    0.20594521341498003251E-13
   -0.10459264732777563999E-12
    0.43991012593411103600E-13
   -0.79456816009319390089E-13
    0.19918819827345847249E-13
   -0.94151814419497773081E-13
    0.45702211180735805036E-13
    0.56886270505787636222E-13
   -0.53379133066636455193E-14
   -0.22439022462733134298E-13
    0.99922191755053181042E-14
    0.25868492163023446300E-14
   -0.10177132043255383498E-12
   -0.26938051715867546293E-13
   -0.14565542782424105576E-13
   -0.14594990395944467724E-13
    0.22778782257953952105E-14
    0.21443717843037374108E-13
    0.25616233300415431827E-14
    0.12379879025197349821E-13
   -0.13357874174458104127E-13
   -0.42729245207277249693E-14
    0.20929976198721732991E-13
    0.12921893623648650466E-13
   -0.37207258851672441587E-13
   -0.22765477580130487594E-13
   -0.31378038883282848575E-13
   -0.74665981887991428901E-14
   -0.17199651762436706749E-14
    0.39771383614375936809E-13
    0.24800813393437069491E-13
   -0.62141915015855299503E-13
    0.57242585048848929724E-13
   -0.18016399026238457216E-13
    0.44314942672162599976E-13
    0.48825719791891828233E-13
   -0.25131342159008765365E-13
    0.15605202030157875585E-14
   -0.29506917243400203445E-13
   -0.10319123982603493825E-13
    0.93837545955866054139E-13
   -0.10562915550116770430E-13
    0.73448989603345901357E-12
    0.99460862067978816070E-13
    0.30769853523874138652E-06
    0.38051226420333816453E-06
    0.32932684718876077020E-08
    0.50740089651733126686E-10
    0.20944083812434208832E-13
    0.18032196239469553081E-13
    0.24823133511780573523E-13
   -0.40404017512307696825E-13
   -0.14832620140297971683E-13
   -0.33218181852775522085E-13
    0.42520156809129148095E-14
   -0.54273553902583313790E-15
    0.13945660894232964267E-09
    0.19978909854380644694E-09
    0.88890392471924643323E-09
    0.56821486501951081786E-08
    0.67275052176813124299E-13
    0.12897471837038745252E-11
    0.50095882208353466473E-14
    0.51920188610679149624E-13
    0.53431121436733452525E-13
    0.59200805903470235016E-14
   -0.79587124602724124601E-14
   -0.87719063457954921212E-15
    0.12359682195428984240E-13
    0.37009676901719735384E-14
    0.65606375707106276505E-06
    0.32145854231729099361E-04
    0.44680577323262136644E-02
    0.44670828605053022539E-02
    0.33734349662400676907E-04
    0.51985372623600526715E-05
    0.98149700243994549629E-06
    0.20343258145580232690E-07
    0.12477738304727773340E-10
    0.25900603942292324327E-09
    0.22853360179621328853E-07
    0.47669015101780037828E-07
    0.20316735020716761184E-05
    0.18400827589495315531E-06
   -0.16092276216416556290E-13
   -0.37833533186971422066E-13
   -0.21300967918968261318E-14
   -0.28269837686125306030E-13
    0.15635922113136959707E-13
   -0.55304986492905524624E-13
    0.11355221472426200563E-13
   -0.70292292538974613465E-14
    0.23490936828178279999E-13
    0.32126951108632316489E-13
   -0.72386843522850004588E-13
   -0.52946931756606807471E-14
    0.64122695450233136477E-14
   -0.39491162895166401158E-14
   -0.11309821047439599138E-13
   -0.24017898803071759151E-13
    0.14387440323483211467E-13
   -0.88459685332491207719E-14
   -0.17877696580411760156E-13
    0.17299879372001044203E-13
   -0.58071137425719199802E-14
   -0.10656962585621490502E-13
    0.10189329287687352868E-13
   -0.47381681667333559540E-13
    0.59769619061162626053E-13
   -0.11746144445940725688E-13
   -0.28386624218490746381E-13
    0.19101813551415082773E-13
    0.72385539803269884914E-14
    0.70784417526349299052E-14
    0.35944139104793348139E-14
    0.26086773936398988173E-13
   -0.87407049779510869432E-14
    0.23759487860728997648E-13
   -0.14937150331026140500E-14
    0.56616281692162105169E-13
   -0.35413226178139506726E-13
    0.61853599210681560102E-13
    0.11087242982794813626E-13
   -0.24814662555750898092E-14
    0.54861789527635585556E-14
    0.31397898904982742346E-13
   -0.69683347084796321163E-13
   -0.50818666789810944825E-13
    0.59953218860281481933E-13
   -0.16439173774292453463E-13
    0.44894751039600415004E-13
    0.44755548496417668996E-13
   -0.12098078130364623240E-13
   -0.33979760693209144187E-13
   -0.29828482447356323031E-13
    0.56361764042424449076E-14
   -0.10545760388522687417E-12
    0.55690871448439211673E-14
    0.22681767867708103238E-13
   -0.15006720846742189908E-13
   -0.16540973697757848632E-13
   -0.53040784952220876475E-13
   -0.30330977877961541668E-13
   -0.15510781706560356280E-13
   -0.47429221036426240219E-13
    0.41866524406396587665E-15
   -0.15040377407714940273E-14
    0.24401140516117218975E-13
   -0.24995994735425186626E-14
    0.64161221158803390221E-14
    0.49181700018207119565E-13
   -0.60653091376822929959E-13
   -0.23326189924747063295E-13
   -0.89067090028592840448E-14
    0.28832176394962474390E-13
   -0.33779508813497929887E-13
   -0.59284998943822383055E-14
    0.21989624710112150078E-13
    0.16769976257208851048E-13
   -0.18713517424130990920E-13
   -0.88205098897631163563E-14
    0.21788531446545914551E-13
    0.16698291993696833191E-13
   -0.57551122332283894154E-13
   -0.75716955497904852144E-14
   -0.29345554195606008256E-13
   -0.15815947821671504510E-13
    0.25071392599720455362E-13
   -0.22495537540116105282E-13
    0.90639360984779980296E-14
    0.20036286546510606561E-13
   -0.28945157870668734699E-13
    0.25617467875561430444E-13
    0.24480032825015723386E-13
   -0.73356764018688958655E-14
    0.41138900674939802277E-13
    0.58500811963529302710E-13
    0.79272124360550320807E-14
   -0.26576440425776070242E-13
    0.19563356851937121139E-13
   -0.50834309215992574004E-13
   -0.34206917797301167707E-13
   -0.27194316982213958098E-13
    0.45839515199588740684E-13
    0.72350463936512456128E-13
   -0.21156806935909256553E-13
   -0.15595873878515435593E-13
   -0.24692721928538604291E-13
   -0.11136599166131256229E-13
    0.27825771635206117359E-14
    0.26216292689240946370E-13
    0.99451153795304181366E-14
   -0.63467398618112500084E-13
   -0.57847549259279156618E-14
   -0.21134876188244460940E-13
   -0.38494656580141338290E-13
    0.26454988059386375734E-06
   -0.18184729780539386804E-13
   -0.55979132556231987016E-13
    0.75259586098033598302E-14
   -0.39847996260632571517E-14
    0.13999741834057551269E-13
    0.12516049998322758179E-13
   -0.96234885897965693061E-14
   -0.60043977237417180264E-13
    0.25903107608657595111E-10
    0.18752368202291002115E-08
    0.28666752889776412435E-06
   -0.52610133491584905747E-14
   -0.99709448263371714808E-14
    0.57899527328012467734E-13
   -0.66876129979807614875E-14
   -0.70920838986844623719E-13
   -0.30505962054644611487E-13
   -0.95801779744336138954E-13
    0.17900629785104824608E-13
   -0.57703677163312190518E-13
   -0.48973348346374316407E-13
   -0.30988077334244986479E-13
    0.70376813730322426324E-13
    0.40554362555150744303E-13
    0.59418125678233352896E-13
    0.73909515671321399977E-14
    0.15700855181419374723E-13
    0.44667335983962844215E-02
    0.29936011591223013175E-04
    0.62414268355396602668E-06
    0.44681989404626106118E-07
   -0.35843894859392713835E-13
   -0.73052826873925554127E-13
   -0.48351703746364873406E-14
    0.11366949199717682094E-07
    0.75791375794877993292E-06
    0.43421467088840431291E-05
    0.29916985806219370097E-04
    0.44655984469088479127E-02
    0.18424446933790086542E-05
    0.11148565840600059993E-06
    0.87536012389438295178E-09
    0.18666975655967859810E-09
    0.12037414584456130768E-09
   -0.29548591438394843706E-13
   -0.98515188736738780730E-14
   -0.93277252409829576469E-14
   -0.23671856583771406995E-13
   -0.29792613968130191036E-13
   -0.79273429033249566353E-14
    0.38355004657877566770E-13
    0.23728749236366032927E-09
    0.60880718574545982285E-08
    0.38633174776980323489E-10
    0.76036073778884128157E-14
    0.19648186740105210458E-13
    0.63898680985059683072E-13
   -0.29431070316259136734E-13
    0.45336501062148410214E-13
    0.12979796929121668633E-13
   -0.59547590721961437173E-13
    0.52255563739364059752E-14
   -0.36608282923657128785E-13
    0.45069074138066290651E-13
    0.37130109161260657636E-13
   -0.73000408688858580129E-13
    0.11387950755144173651E-13
    0.73431764368145001759E-14
    0.95878048881258092953E-14
    0.14113614039876049690E-14
    0.15978212635224688959E-13
   -0.25504215809828380226E-13
    0.20016612321472563930E-13
   -0.14101366450677642226E-13
    0.48078414771031153752E-15
   -0.22518786010821179705E-13
    0.59730999677776013117E-14
    0.23869753926808033970E-13
    0.60053353852802792025E-13
   -0.44376759319263322859E-13
    0.31110625533752793202E-13
    0.65764516468280639607E-14
   -0.81329197049874299774E-14
    0.37486883370234743741E-13
   -0.94086507698785034030E-15
   -0.22494658320342117611E-13
   -0.34453092699048529045E-13
   -0.10218061377301396747E-13
   -0.76482083116854360299E-13
   -0.70891872434709480975E-13
   -0.40733438058898344552E-14
   -0.32060514826084032848E-13
   -0.30554920241672382627E-13
   -0.11731863436895262645E-13
   -0.29102282777473391658E-13
    0.22742477256215668598E-13
    0.15526926822421335015E-13
   -0.30572229317874807459E-13
    0.93596432914191918604E-13
    0.42868535006595725914E-13
    0.28373778896436303051E-13
   -0.84098263669922796444E-16
   -0.13478734680382372281E-13
    0.12987799048328370922E-13
    0.24154737561000997202E-13
    0.54845663772186638008E-13
   -0.35191133677005078231E-14
   -0.74512396873143713463E-13
    0.12941563907177842708E-13
   -0.61597115304524209778E-14
    0.49904031716956915974E-13
   -0.51323970229060929717E-13
    0.21563665576359010528E-13
    0.19308908668531195687E-13
   -0.32713331214043693109E-13
   -0.64752572516255144067E-13
   -0.10266716055202230598E-12
   -0.37905885758251286577E-13
    0.30414351937389352129E-13
    0.62595775081313046132E-13
    0.19985581297658986429E-14
    0.21353661834970019767E-14
    0.99886358462138112971E-14
   -0.77955256854526758702E-13
   -0.38127507355613016564E-13
   -0.10046853936282692202E-13
   -0.26501147109382313278E-13
   -0.17416527962449263422E-14
   -0.50879501613192122339E-14
    0.47085745718550362723E-14
    0.22448226854219838353E-13
    0.19655036448646343712E-13
   -0.21253063366092952639E-14
   -0.10146566079106362034E-13
   -0.35040039297089567743E-13
   -0.41829233029229791853E-13
   -0.10709618407035937348E-13
   -0.23783738043333164281E-13
    0.59699708665862487046E-14
    0.40057025727134263174E-13
   -0.73992923971733866767E-14
    0.48641602136653197858E-13
    0.21567201799095651784E-13
   -0.34404440418404111633E-13
    0.71194605503353682628E-14
   -0.49753126783440346773E-13
    0.43508369638735272036E-13
    0.18061635716928399427E-13
    0.12357494208824020194E-13
   -0.92062932609080555786E-14
   -0.27825508232757282574E-13
    0.47467409159418471949E-14
   -0.77497556870903937550E-14
   -0.14885504546013620951E-13
   -0.50827562406436208725E-13
    0.10625603700794700706E-13
    0.48595311917746136866E-13
   -0.97100743056018435622E-13
    0.21207491027815749084E-13
    0.16180736146763438027E-14
    0.67543020912438257641E-13
    0.32344547159573755860E-13
    0.20389348076267264254E-13
   -0.43011931263486298725E-13
   -0.27560235692757663589E-13
   -0.20553578457196304005E-13
    0.30881340710345403017E-15
   -0.62313444889051872628E-15
    0.34313225978787406381E-14
    0.53709472979548174495E-13
    0.52784091300482860525E-13
    0.36876008154431174235E-09
    0.10661103999599788883E-07
    0.15469879062263268197E-08
    0.32873435851282143270E-09
    0.21313903420694117466E-09
    0.31491022777307503124E-14
    0.85186452422942115870E-14
    0.12412206444868100525E-14
    0.26847239502021814683E-13
    0.62177621629387706755E-10
    0.86942394910160204432E-14
   -0.42912114004502844793E-13
    0.21676415597862289159E-08
    0.10449976393283794391E-06
    0.28720469321897516661E-04
    0.44677678809928343326E-02
    0.44671312723804914788E-02
    0.28300007876911932055E-04
    0.12467319616721838144E-05
    0.73818955070812513243E-07
    0.32738843577766852906E-09
    0.16074370829101456289E-11
    0.90069515019285321689E-08
    0.49137198277053462431E-06
   -0.25427096213304875215E-13
   -0.27077201481787052766E-13
    0.10563432401620839485E-12
   -0.12958985898203367536E-15
   -0.52811193650460368875E-13
   -0.25156109869417771822E-13
   -0.99405136611410501573E-13
   -0.38478381132811251068E-13
    0.45670033820252750651E-13
    0.10897509112878399156E-12
   -0.45612372772645493531E-13
    0.14697655673606505485E-13
    0.13235427810430055594E-13
   -0.84101457506281562671E-13
    0.18221075515108695441E-13
    0.26543347600940369265E-13
    0.18056557673306671925E-13
    0.37248076567278729469E-13
    0.34493850533359105370E-12
    0.41615160733557705043E-11
    0.95036989321862583250E-10
    0.18940728685935938648E-11
   -0.42855845525265349951E-14
   -0.27884749182239282956E-13
   -0.28423305909531807821E-13
   -0.84554970487324211965E-14
   -0.30837887907238766975E-14
    0.10811920534916110360E-12
   -0.24223601061582589104E-13
   -0.64479590578231665440E-13
   -0.33262360812492407056E-13
   -0.18371620166508780988E-13
    0.30970559070667337545E-14
    0.30102908430648065978E-13
   -0.32888863257756554072E-13
   -0.17423651927863490420E-13
   -0.29070989624976473357E-13
    0.32038387413554677855E-15
   -0.36547199096824205837E-13
    0.52575711823908320445E-13
    0.45754813260620362073E-13
   -0.30957744597309577638E-13
    0.42866381480244054166E-13
    0.89354431075969665201E-14
    0.17082061831604708152E-13
   -0.34597311062049606100E-13
    0.18858047108481342726E-13
   -0.17101329426282429733E-13
   -0.58884578039829593420E-14
   -0.37971423272051300881E-14
   -0.10362971754214750625E-13
   -0.22821555718511247498E-13
   -0.87445518327782451796E-14
    0.36966696503231619960E-13
   -0.60052878204137997923E-13
   -0.22932776487646490403E-13
   -0.88497430439212622482E-14
    0.35294330822057115739E-13
    0.15344719589014389164E-13
    0.78981007541795636683E-13
    0.18544624558341514165E-13
   -0.20562666745223495240E-13
   -0.88785000649730621703E-14
   -0.10018680076511550614E-12
   -0.75761207303428488103E-14
    0.32283538264528534427E-13
   -0.24500534601061246413E-13
    0.25421531127300515746E-13
    0.21766083685988258711E-13
   -0.96083358832682106978E-14
   -0.39774710033967941745E-14
    0.48713820770933121351E-13
    0.40414437846567687530E-13
   -0.48765673048123646710E-14
   -0.29209889621000925944E-13
   -0.40026437440151636531E-13
    0.21574627872760541109E-13
   -0.66408278171557500480E-14
    0.80497863212217073740E-14
    0.13752250352028969286E-13
    0.12056962899096385529E-13
   -0.54183027941544176259E-14
    0.24123547473439751615E-13
   -0.77617976145906179320E-14
    0.57022642465539116566E-13
    0.26114649346918629794E-13
    0.26966859891557700290E-13
   -0.47366927151687717866E-13
   -0.15122582107116937535E-13
   -0.34855196229472829047E-14
   -0.68696104068796920290E-13
   -0.10126199420531979054E-12
    0.57250197012665439357E-14
    0.11972991945685657557E-13
   -0.33778714586267477952E-13
    0.32165436261661803129E-13
    0.73056009008272448882E-13
   -0.24842902322489272100E-13
    0.25969328323303578872E-13
    0.30064747011341059424E-13
    0.45686105313212526802E-14
    0.40250319650034034328E-14
    0.20752458739886169550E-13
    0.50673910287112593789E-13
    0.47508560125591652587E-13
    0.57873844930164681821E-14
   -0.44051097305654179808E-14
   -0.25342699204305317986E-13
    0.95172309575176598936E-14
    0.12412725977905955300E-13