# vtk DataFile Version 3.0
LAPLACIEN  2D
ASCII
DATASET UNSTRUCTURED_GRID
 POINTS         481  float
   6.2500000000000000E-002  0.87500000000000000        0.0000000000000000     
  0.12500000000000000       0.87500000000000000        0.0000000000000000     
  0.12500000000000000       0.93750000000000000        0.0000000000000000     
   3.7499999999999999E-002  0.91249999999999998        0.0000000000000000     
   8.1250000000000003E-002  0.91874999999999996        0.0000000000000000     
   8.7499999999999994E-002  0.96250000000000002        0.0000000000000000     
   4.3749999999999997E-002  0.95625000000000004        0.0000000000000000     
  0.18750000000000000       0.87500000000000000        0.0000000000000000     
  0.25000000000000000       0.87500000000000000        0.0000000000000000     
  0.25000000000000000       0.93750000000000000        0.0000000000000000     
  0.16250000000000001       0.91249999999999998        0.0000000000000000     
  0.20624999999999999       0.91874999999999996        0.0000000000000000     
  0.21249999999999999       0.96250000000000002        0.0000000000000000     
  0.16875000000000001       0.95625000000000004        0.0000000000000000     
   6.2500000000000000E-002  0.75000000000000000        0.0000000000000000     
  0.12500000000000000       0.75000000000000000        0.0000000000000000     
  0.12500000000000000       0.81250000000000000        0.0000000000000000     
   3.7499999999999999E-002  0.78749999999999998        0.0000000000000000     
   8.1250000000000003E-002  0.79374999999999996        0.0000000000000000     
   8.7499999999999994E-002  0.83750000000000002        0.0000000000000000     
   4.3749999999999997E-002  0.83125000000000004        0.0000000000000000     
  0.18750000000000000       0.75000000000000000        0.0000000000000000     
  0.25000000000000000       0.75000000000000000        0.0000000000000000     
  0.25000000000000000       0.81250000000000000        0.0000000000000000     
  0.16250000000000001       0.78749999999999998        0.0000000000000000     
  0.20624999999999999       0.79374999999999996        0.0000000000000000     
  0.21249999999999999       0.83750000000000002        0.0000000000000000     
  0.16875000000000001       0.83125000000000004        0.0000000000000000     
  0.31250000000000000       0.87500000000000000        0.0000000000000000     
  0.37500000000000000       0.87500000000000000        0.0000000000000000     
  0.37500000000000000       0.93750000000000000        0.0000000000000000     
  0.28749999999999998       0.91249999999999998        0.0000000000000000     
  0.33124999999999999       0.91874999999999996        0.0000000000000000     
  0.33750000000000002       0.96250000000000002        0.0000000000000000     
  0.29375000000000001       0.95625000000000004        0.0000000000000000     
  0.43750000000000000       0.87500000000000000        0.0000000000000000     
  0.50000000000000000       0.87500000000000000        0.0000000000000000     
  0.50000000000000000       0.93750000000000000        0.0000000000000000     
  0.41249999999999998       0.91249999999999998        0.0000000000000000     
  0.45624999999999999       0.91874999999999996        0.0000000000000000     
  0.46250000000000002       0.96250000000000002        0.0000000000000000     
  0.41875000000000001       0.95625000000000004        0.0000000000000000     
  0.31250000000000000       0.75000000000000000        0.0000000000000000     
  0.37500000000000000       0.75000000000000000        0.0000000000000000     
  0.37500000000000000       0.81250000000000000        0.0000000000000000     
  0.28749999999999998       0.78749999999999998        0.0000000000000000     
  0.33124999999999999       0.79374999999999996        0.0000000000000000     
  0.33750000000000002       0.83750000000000002        0.0000000000000000     
  0.29375000000000001       0.83125000000000004        0.0000000000000000     
  0.43750000000000000       0.75000000000000000        0.0000000000000000     
  0.50000000000000000       0.75000000000000000        0.0000000000000000     
  0.50000000000000000       0.81250000000000000        0.0000000000000000     
  0.41249999999999998       0.78749999999999998        0.0000000000000000     
  0.45624999999999999       0.79374999999999996        0.0000000000000000     
  0.46250000000000002       0.83750000000000002        0.0000000000000000     
  0.41875000000000001       0.83125000000000004        0.0000000000000000     
   6.2500000000000000E-002  0.62500000000000000        0.0000000000000000     
  0.12500000000000000       0.62500000000000000        0.0000000000000000     
  0.12500000000000000       0.68750000000000000        0.0000000000000000     
   3.7499999999999999E-002  0.66249999999999998        0.0000000000000000     
   8.1250000000000003E-002  0.66874999999999996        0.0000000000000000     
   8.7499999999999994E-002  0.71250000000000002        0.0000000000000000     
   4.3749999999999997E-002  0.70625000000000004        0.0000000000000000     
  0.18750000000000000       0.62500000000000000        0.0000000000000000     
  0.25000000000000000       0.62500000000000000        0.0000000000000000     
  0.25000000000000000       0.68750000000000000        0.0000000000000000     
  0.16250000000000001       0.66249999999999998        0.0000000000000000     
  0.20624999999999999       0.66874999999999996        0.0000000000000000     
  0.21249999999999999       0.71250000000000002        0.0000000000000000     
  0.16875000000000001       0.70625000000000004        0.0000000000000000     
   6.2500000000000000E-002  0.50000000000000000        0.0000000000000000     
  0.12500000000000000       0.50000000000000000        0.0000000000000000     
  0.12500000000000000       0.56250000000000000        0.0000000000000000     
   3.7499999999999999E-002  0.53749999999999998        0.0000000000000000     
   8.1250000000000003E-002  0.54374999999999996        0.0000000000000000     
   8.7499999999999994E-002  0.58750000000000002        0.0000000000000000     
   4.3749999999999997E-002  0.58125000000000004        0.0000000000000000     
  0.18750000000000000       0.50000000000000000        0.0000000000000000     
  0.25000000000000000       0.50000000000000000        0.0000000000000000     
  0.25000000000000000       0.56250000000000000        0.0000000000000000     
  0.16250000000000001       0.53749999999999998        0.0000000000000000     
  0.20624999999999999       0.54374999999999996        0.0000000000000000     
  0.21249999999999999       0.58750000000000002        0.0000000000000000     
  0.16875000000000001       0.58125000000000004        0.0000000000000000     
  0.31250000000000000       0.62500000000000000        0.0000000000000000     
  0.37500000000000000       0.62500000000000000        0.0000000000000000     
  0.37500000000000000       0.68750000000000000        0.0000000000000000     
  0.28749999999999998       0.66249999999999998        0.0000000000000000     
  0.33124999999999999       0.66874999999999996        0.0000000000000000     
  0.33750000000000002       0.71250000000000002        0.0000000000000000     
  0.29375000000000001       0.70625000000000004        0.0000000000000000     
  0.43750000000000000       0.62500000000000000        0.0000000000000000     
  0.50000000000000000       0.62500000000000000        0.0000000000000000     
  0.50000000000000000       0.68750000000000000        0.0000000000000000     
  0.41249999999999998       0.66249999999999998        0.0000000000000000     
  0.45624999999999999       0.66874999999999996        0.0000000000000000     
  0.46250000000000002       0.71250000000000002        0.0000000000000000     
  0.41875000000000001       0.70625000000000004        0.0000000000000000     
  0.31250000000000000       0.50000000000000000        0.0000000000000000     
  0.37500000000000000       0.50000000000000000        0.0000000000000000     
  0.37500000000000000       0.56250000000000000        0.0000000000000000     
  0.28749999999999998       0.53749999999999998        0.0000000000000000     
  0.33124999999999999       0.54374999999999996        0.0000000000000000     
  0.33750000000000002       0.58750000000000002        0.0000000000000000     
  0.29375000000000001       0.58125000000000004        0.0000000000000000     
  0.43750000000000000       0.50000000000000000        0.0000000000000000     
  0.50000000000000000       0.50000000000000000        0.0000000000000000     
  0.50000000000000000       0.56250000000000000        0.0000000000000000     
  0.41249999999999998       0.53749999999999998        0.0000000000000000     
  0.45624999999999999       0.54374999999999996        0.0000000000000000     
  0.46250000000000002       0.58750000000000002        0.0000000000000000     
  0.41875000000000001       0.58125000000000004        0.0000000000000000     
  0.56250000000000000       0.87500000000000000        0.0000000000000000     
  0.62500000000000000       0.87500000000000000        0.0000000000000000     
  0.62500000000000000       0.93750000000000000        0.0000000000000000     
  0.53749999999999998       0.91249999999999998        0.0000000000000000     
  0.58125000000000004       0.91874999999999996        0.0000000000000000     
  0.58750000000000002       0.96250000000000002        0.0000000000000000     
  0.54374999999999996       0.95625000000000004        0.0000000000000000     
  0.68750000000000000       0.87500000000000000        0.0000000000000000     
  0.75000000000000000       0.87500000000000000        0.0000000000000000     
  0.75000000000000000       0.93750000000000000        0.0000000000000000     
  0.66249999999999998       0.91249999999999998        0.0000000000000000     
  0.70625000000000004       0.91874999999999996        0.0000000000000000     
  0.71250000000000002       0.96250000000000002        0.0000000000000000     
[...]
 CELL_DATA         896
 SCALARS Migratory_cells float
 LOOKUP_TABLE default
    0.20948537678382269013E-11
    0.87711742419273980956E-12
   -0.10832441854887314753E-11
    0.15654761202189832350E-10
    0.49738043880113811687E-11
   -0.16044501734934242388E-10
   -0.79900699062242730350E-12
   -0.31715960119568826776E-12
    0.95149122657410467051E-11
   -0.55567890164629799351E-11
   -0.12820496141865623337E-10
   -0.11504243923363659544E-10
    0.95849466587143590140E-11
   -0.80910098744800089448E-11
    0.67309313464312256258E-11
   -0.18291482780485732085E-10
    0.50942676126208884244E-11
    0.13773588382089400665E-10
    0.63950392907319996047E-11
    0.38442236138058803091E-11
   -0.43273029005689956593E-12
    0.14748840056943963156E-10
   -0.93243460959107273433E-11
   -0.15581179500069934091E-10
   -0.49368018715295653546E-11
    0.55267773276555915378E-11
   -0.78600729453412858085E-11
   -0.56313738224423323548E-11
   -0.10309020683897337651E-10
   -0.89458467023733726322E-12
    0.33045513343480259077E-11
    0.70836892267407935589E-11
    0.12294526803593743817E-10
   -0.10690822515274928135E-11
   -0.53071048959130830293E-11
   -0.97864012159318215821E-12
   -0.41363369287868582544E-12
   -0.23005257516363826314E-11
   -0.68648914872938998463E-11
    0.30510511838983593731E-11
    0.56638282488565297445E-11
   -0.44018395429627208472E-11
   -0.33111192339931614271E-12
    0.20284837419158196822E-11
    0.43068493002769055463E-11
    0.18978162328007157880E-11
    0.34485349417403043948E-11
    0.39300763891256373845E-11
    0.81115254073896309685E-11
    0.62421137912763300245E-11
    0.80719147858029226725E-11
   -0.24721346223048865632E-11
   -0.44439879283616171198E-11
    0.70484874162483755189E-12
   -0.37301040635994429428E-11
    0.43101572663404500599E-11
   -0.72189916296379256090E-12
    0.44309315913577842718E-11
    0.69211329723286754600E-12
   -0.38492749782690200624E-11
   -0.45482183828597858184E-11
    0.70068005244843674857E-11
   -0.61437576277428956794E-11
   -0.13486836672392072814E-12
   -0.80740355009901537963E-11
    0.14016897470740693885E-10
   -0.19472187226993355901E-11
    0.66347272632049093209E-11
    0.23232836751447685958E-11
   -0.10840499889452100645E-10
    0.41777948803849636602E-12
    0.60103015195733743047E-12
    0.85787033040599339907E-12
    0.61477844204289343145E-12
    0.73580910890915853900E-12
    0.15644523111238988041E-11
    0.67062993186335129572E-11
   -0.44287400352619243066E-11
   -0.57381526084785924201E-11
    0.54959556962942214462E-11
    0.20012328437741459309E-11
   -0.80151839990351995045E-12
    0.48676101815310802531E-12
   -0.14767499754538843913E-11
    0.25445416893815169615E-11
    0.10966873014846899434E-11
    0.57826723041188361533E-12
    0.79046218076661137507E-12
    0.15142045075592876929E-11
    0.41343533782507863625E-12
    0.97946828673354757781E-12
    0.43387456674061291661E-11
    0.56724431281176055578E-11
    0.20244283472721128755E-12
   -0.82123557470013366167E-13
    0.27542359635137860531E-11
   -0.41931245714360023879E-13
    0.21965693577766801942E-11
    0.37098304619886117626E-12
    0.10562188707230936658E-12
    0.96833353022704917108E-13
    0.18432608894313562352E-12
    0.29549108253956286621E-12
    0.57061238628213355683E-12
    0.65537506040927480664E-12
    0.18420172345373379613E-12
    0.27469958109449190417E-12
   -0.14284849203156840707E-12
   -0.75511638794113109616E-13
    0.49799844871681235831E-12
   -0.35681467097262554934E-13
    0.18361878006905044318E-12
    0.54998548175028218554E-12
   -0.61480410511521847665E-12
    0.27319868852916438238E-12
   -0.15807843320279467371E-11
   -0.32592077703693392621E-11
   -0.34819871871882128689E-11
   -0.30267099092627729194E-12
   -0.10324394928885922670E-11
   -0.60703080235407660383E-11
    0.58027799276320353906E-11
    0.24739873082882714822E-11
    0.22714644802594145210E-11
    0.56632186884702693535E-12
   -0.38625633408500980006E-11
   -0.76106738302103025445E-12
   -0.34444188166894569489E-12
    0.75378881972050407961E-14
    0.27851365787674405751E-12
    0.26686283368951400897E-12
    0.21579814245575836552E-11
    0.31406869063476501767E-11
   -0.71297049531712438946E-12
   -0.12214068358897335345E-11
   -0.22418808446025849304E-11
   -0.15441559997079190815E-11
   -0.86554860795568498074E-12
   -0.61812107685255500260E-12
   -0.88293320880038350804E-12
    0.10236049146239241625E-11
    0.21414902300117766887E-12
    0.33624696254578752614E-12
    0.15178125917566904166E-12
    0.11485623700651333244E-12
    0.22030199870621414346E-12
    0.20156480024678893244E-12
    0.47089701121489205382E-12
    0.30016804384623770225E-12
   -0.30476843794054103569E-11
   -0.11684672103737239298E-11
    0.31502767868435185329E-12
   -0.62954154707080425907E-12
    0.91342361262376806005E-13
    0.36541414640341342328E-13
    0.50692037137715426241E-13
   -0.40530793742507152998E-11
    0.18045574527933881876E-04
   -0.33904647877123190339E-13
   -0.38121521558128184494E-14
    0.29891271716000807278E-13
   -0.21016266478161791017E-12
   -0.37640421321272994601E-12
    0.22589778734371212635E-12
    0.13547536183307906078E-12
    0.81783364998808743950E-13
    0.10880163694558538727E-12
   -0.98221191577359297769E-13
    0.22430850773661988842E-12
    0.26411730223973206038E-12
    0.23828593847994519537E-12
    0.92457595224020191667E-13
    0.13794497179960893770E-12
    0.24922225490691936242E-12
    0.60613773372077847619E-12
    0.85780772176862777887E-12
    0.12547932814509394816E-11
    0.10200772729939681411E-11
    0.42963373250582389056E-12
    0.33328228233178257808E-12
    0.25466917347172090398E-12
    0.11433791034754114671E-12
    0.53540237097722015610E-04
    0.32828259198818243161E-04
    0.14592557982205805762E-02
    0.15905604582552460013E+00
    0.17405189372867935910E-01
    0.44752935871798925349E-01
    0.16230515291281620201E-05
    0.10869146465830576665E-12
    0.14486121645116793797E-12
    0.13826616642964795156E-12
    0.11987219986806330985E-12
    0.10743642117226370886E-12
    0.52115546497285740397E-05
    0.32289411164700471489E-05
    0.47237062585813713311E-01
    0.49848404113599152458E-03
    0.11483874536769920864E-02
    0.19217533079454902911E-02
    0.13162706372357441996E-04
    0.24855546108234227742E-04
    0.10651058195018784011E-12
    0.12044944519585151872E-12
    0.19939211813418542319E-12
    0.12263052370313547043E-12
    0.97655739546380710889E-06
    0.88251574713432462578E-04
    0.32521288357467512882E-05
    0.46152398350116704829E-05
    0.99481325956503104807E-02
    0.32675278809460903129E-01
    0.18839568700140790769E+00
    0.17067568924343612391E+00
    0.25156961162846155217E-01
    0.79633212607134185035E-02
    0.29074264033160375324E-02
    0.28171144792950523345E-02
    0.13449132341755126838E-03
    0.28535733192908553472E-03
    0.15810450270486010958E-02
    0.31852138106492956272E-02
    0.13440899742374627993E-01
    0.10391621603865423135E-01
   -0.30033303715504516677E-12
    0.16346468409371689090E-13
   -0.72168649982897811280E-12
   -0.13799394966156632140E-11
   -0.38362171855295499373E-11
   -0.98295704590860272516E-11
    0.32780782919100083457E-11
    0.23765109448701599458E-11
    0.60107009389244437498E-11
    0.42549477861269255151E-11
    0.75622905750140719754E-12
    0.10735404478986414286E-12
    0.32037944728647558128E-12
   -0.16193130929337626803E-12
    0.20315955311315887642E-11
    0.43418382464749005567E-11
    0.18982671882455689665E-11
   -0.32873448767925916607E-11
   -0.33801319820448932953E-11
    0.33015904245652839871E-11
   -0.34897992570334956495E-11
   -0.26248872808129202502E-11
    0.34547768404440942681E-11
    0.19032964318923052791E-11
    0.95319892671052045055E-12
   -0.67054086016636140969E-13
    0.21825588627218488825E-11
    0.38124799371382521601E-11
    0.50724412415197157413E-13
    0.12473220422357908061E-12
    0.30768923392888377152E-12
    0.46972058363352949174E-12
    0.63767212901658111126E-12
    0.91290890082052355116E-12
   -0.74036260726237286935E-13
   -0.19984790100770596658E-12
   -0.27990311358231108155E-12
   -0.37554308008170935082E-13
    0.15931726225939430123E-14
    0.32863129629252423021E-13
    0.77605464628233406946E-13
    0.11076769725586810336E-12
    0.50843320060184883352E-12
    0.12365102253305794983E-11
    0.10560633423080805637E-11
    0.11448587577745729517E-11
    0.47175308184285456803E-11
    0.57338335087502214774E-11
    0.36066266584967689964E-11
    0.21406009361624454384E-11
    0.15693990275371119765E-11
    0.13169597119730759636E-11
    0.10808908956239994505E-11
    0.62090645149501818576E-12
    0.21916391437053858137E-11
    0.26773602962144963652E-11
   -0.12108280624046717296E-10
   -0.11663046137701004343E-10
   -0.79641084114796973234E-11
   -0.41568972843749441973E-11
   -0.16628203426348360266E-10
    0.37919076348055916275E-12
   -0.17988218431685290942E-12
    0.92679159369126937191E-11
    0.42388252765211206464E-11
    0.25572407875247259218E-11
    0.14974419698725049469E-10
    0.39389478792694534306E-12
   -0.79902157234699281266E-11
    0.35583577482514567822E-14
    0.88196898939893747742E-11
   -0.11306727252516779666E-10
   -0.48393146960443918090E-12
    0.79457205758259589484E-11
    0.61803418835785368231E-11
   -0.63189805729880884699E-11
   -0.28802470091052263936E-11
    0.86922762932628337114E-11
    0.62535696022498821430E-11
   -0.20532051468900982455E-10
   -0.26982412220592835824E-11
   -0.99946385910278464556E-11
   -0.55264304332556479852E-11
   -0.11153997437180098870E-11
   -0.18365638698258190823E-11
   -0.10916321147191134085E-11
    0.39740622965969396272E-11
   -0.24806576005617843596E-12
    0.81730448844197390114E-11
    0.81045610594672850200E-11
   -0.91465292266972338189E-12
    0.34991168457331705255E-13
    0.28997199645843494035E-11
    0.53527214219361014537E-11
   -0.18526068987159171560E-11
    0.64490891690726283715E-12
   -0.59573287747213093223E-11
   -0.46366992298547946870E-11
   -0.74985154886413568360E-12
    0.93914246416834593182E-11
    0.13346681186131806222E-10
   -0.68675714255586191430E-11
   -0.40034356061798179275E-11
   -0.87500778431333089629E-11
   -0.34820940598089690998E-11
    0.85135686764084766231E-12
    0.74547172352264282375E-11
    0.11462747132281499841E-10
   -0.13032948979248570405E-10
   -0.32337549024021361644E-11
    0.86620812643203112098E-12
   -0.11539963766381935376E-10
    0.16359585334273247376E-02
    0.77853138919596281265E-08
    0.13291327291660029039E-07
    0.13573321241680360359E-12
    0.53995942560179407753E-13
   -0.51034423310841069386E-13
    0.11185514119908423352E-12
    0.77177322059132137813E-13
    0.12860098714783300612E-05
    0.36443706156393286533E-01
    0.80996577728755479730E-02
    0.23564702458008288111E+00
    0.32370492930267602007E-08
    0.46609282542685556526E-13
   -0.45050433987352349625E-13
   -0.34418888347692600557E-13
   -0.91348194540718504162E-13
    0.81449697914835422468E-13
    0.22118401035769328370E-12
    0.50505184270184736410E-12
    0.21868952773692878146E-12
   -0.71356706596014275196E-13
   -0.33956756594082493840E-13
   -0.37690864450967454726E-13
    0.21591534494460500240E-12
    0.17864356313026494722E-12
    0.15590394617262034166E-12
    0.14859997298218332173E-12
    0.18048948242712456458E+00
    0.33310460858530933914E-01
    0.91494589847360453805E-02
    0.31846564027591980732E-02
    0.15831269421618474955E-05
    0.17184040085798431958E-06
    0.47862420203969070968E-07
    0.22529986781037354693E-02
    0.27619749700977555378E-02
    0.75513124528841799390E-02
    0.25683906985198710210E-01
    0.16754395554317857986E+00
    0.17451433323212674209E-01
    0.53934338955829346299E-02
    0.12419921805679036506E-02
    0.55869492948265619438E-03
    0.72921556142508905940E-01
    0.23644184429344083291E-04
    0.51903901176997000671E-12
   -0.64707023341910310925E-13
   -0.59610009607500498311E-13
   -0.15306027836977743258E-13
   -0.24632025276561995564E-13
    0.20676368097555386019E-07
    0.39000685135989819445E-03
    0.20932943599389066888E-02
    0.23024013622135173530E-03
    0.15170251241585249373E-11
    0.88145879260072949701E-13
    0.52725644866605472540E-12
    0.42391198204686542337E-12
    0.90270006013945767828E-12
    0.93908478371117494510E-12
    0.15637103749202716056E-11
    0.48356795894769459262E-11
    0.19352880424794414994E-11
   -0.14657829501336917811E-11
   -0.58971791305015067847E-12
   -0.29117403314783602728E-12
   -0.20439417101850573074E-12
    0.71631949093791048046E-12
    0.10274137086473155049E-11
    0.45378519985250419905E-12
    0.11776262246297761162E-13
    0.16830053989181817364E-11
    0.13858108300020381071E-11
   -0.24600376421527798096E-11
    0.32651246936071218247E-12
    0.11069126793179236973E-11
    0.19087163120751400255E-11
    0.65916199703446817595E-12
    0.34678007631545222724E-11
    0.26856969247838122257E-11
    0.21424209122374939447E-11
   -0.40829688678967733687E-12
   -0.93969832318913439248E-12
    0.42811638263300103910E-11
    0.64838578828153557424E-13
    0.12226124203040276706E-12
    0.16145187106309070346E-12
    0.43627024338859441510E-13
    0.69621001370894238937E-13
    0.25210709734068497744E-12
    0.20662430387413951667E-12
    0.12506404033390190398E-13
   -0.30020907315725402797E-15
    0.19494172740736698758E-13
   -0.29913464045320188895E-11
    0.53097506575248368796E-13
    0.69774556279694511075E-13
    0.81288908275242551154E-12
    0.16647868961362218352E-11
    0.23963864452550545362E-11
    0.33038557482424811032E-11
   -0.49926655595875051749E-12
   -0.14737569148899144270E-11
    0.92859382070010895752E-12
    0.97218312617666643077E-12
    0.44052410122771169282E-12
    0.16524972417673291548E-12
   -0.34282579689623538975E-12
    0.27152309555865237819E-12
   -0.37852465497689911127E-12
   -0.16389154797180645999E-12
   -0.33578695641401338185E-11
   -0.21534775628901126294E-11
   -0.54133008633866560895E-12
   -0.53435446699313158359E-12
   -0.36567045460970004432E-12
   -0.16590792049328128003E-12
    0.13497951310059774082E-12
    0.62626619703865487909E-12
    0.63817847312754646827E-12
    0.34971042606443667582E-12
    0.82429662503288861033E-12
    0.12347036497931305969E-11
   -0.23474647551537569768E-12
   -0.47726866280407963104E-12
    0.15079776459971868939E-12
    0.86590703717950027804E-13
   -0.12059133051423077685E-13
    0.14899977983190733269E-13
   -0.59058390806788573139E-14
    0.37441467271713346512E-11
   -0.33834890558065595155E-11
   -0.20946343031081795462E-13
   -0.54385194824130102991E-13
   -0.12176148622537135144E-12
   -0.23649197127764252621E-12
   -0.33080333796308601137E-12
   -0.39018367136997880505E-13
   -0.20553207887293484234E-13
    0.66104482736036647850E-11
   -0.89457877675484217275E-12
    0.48177225037299048274E-11
    0.38790661805232482888E-11
   -0.31802735461597573274E-13
    0.13637527883532105119E-12
    0.24845769527729868854E-13
    0.20587342409046747711E-12
   -0.93624879215511831613E-12
    0.24164939469458684284E-11
   -0.14234669233190133275E-11
   -0.36880101338989300225E-11
   -0.46049754778127326022E-11
   -0.18723780040030111269E-11
   -0.29209981912587898235E-11
   -0.12881454387934042342E-11
   -0.22424253674695447282E-11
   -0.80355697646470425225E-12
   -0.69869605163905543870E-12
   -0.52988901449085253252E-13
    0.37101257745126925471E-13
    0.12007818107484780159E-12
    0.12629644676816911974E-12
   -0.28055621094458409903E-12
   -0.10999754062204354602E-11
   -0.62019916823169556266E-12
   -0.87515149123012534443E-12
   -0.20783650434012486327E-12
    0.16648568096222314940E-12
    0.15020975023531251522E-06
    0.29260202273261974914E-06
    0.23689981386294209657E-03
    0.64040333512710651345E-03
    0.32377728438983850723E-02
    0.17976534057303288593E-02
    0.82516927888929430829E-03
    0.93176843142105683637E-01
    0.46659378295007435848E-04
    0.32992237366195498862E-07
    0.10718901019755189668E-12
    0.90531598829233930131E-07
    0.38637704015446691381E-03
    0.27046499359362097320E-06
    0.21638884166180719549E-05
    0.42676759567056186603E-02
    0.13058956702493230290E-01
    0.65938133842331630996E-01
    0.19821009452860888223E+00
    0.18949378246294773520E+00
    0.43373219976148888466E-01
    0.12793684568755367068E-01
    0.47545605959947757901E-02
    0.44746350797330372573E-02
    0.41798070517448996080E-03
    0.91001610956025578286E-02
    0.30925503051099773738E-01
   -0.32333237085016060933E-13
    0.34442277324191737108E-12
    0.43896299672323411039E-12
    0.15089951756974513120E-12
   -0.39883742750342524086E-12
   -0.25163399974251357499E-12
   -0.31083661487338820447E-12
    0.11260300289162538324E-12
    0.20078418214275489025E-12
    0.21349788630931868544E-12
    0.14384938273763587338E-12
   -0.32827265340843016584E-12
    0.41938061548518030215E-12
    0.18897234308219187467E-12
    0.40990067767157794621E-11
    0.46675438401169590632E-04
    0.14822660908074382163E-03
    0.35300451482139213804E-03
    0.68880778860442421450E-03
    0.14020531724307551142E-02
    0.26498340780232968079E-02
    0.66349379337469311605E-03
    0.20131833952856857226E-07
    0.15141541509352880186E-08
    0.62063195656334476279E-09
    0.81219248144337181938E-11
    0.10482085175520181324E-03
    0.38554250033938429303E-03
   -0.81995893783584997441E-11
   -0.21437179632133778802E-10
   -0.11360172006224815215E-11
   -0.57770732759097795369E-11
    0.64430741154442002322E-12
    0.59596408739195227283E-11
   -0.33159736137901482307E-11
   -0.64263613608128779719E-11
   -0.65538452964302448155E-11
   -0.39264678092561416355E-11
   -0.82660840100178928560E-11
    0.17896711314268848530E-10
    0.57424066083675692660E-11
   -0.74063670591957765514E-11
    0.12469507218961478797E-10
    0.95914610057734195489E-11
    0.94787774357246053092E-11
   -0.95493731326740111867E-13
    0.20033618825958356637E-12
    0.14833284614449743683E-11
   -0.25553751693399891977E-11
   -0.95241093945643857172E-12
   -0.36167607231430454045E-11
   -0.18562001135973109933E-11
    0.25664474871656744359E-11
    0.10445328435991999851E-10
   -0.26605666908190633669E-11
    0.76505119228649609937E-12
   -0.24414364666053124484E-11
    0.13035934923090423855E-10
    0.62450073866163901297E-11
    0.28674440349875689198E-10
    0.72111166598756586023E-11
   -0.67219126888155628263E-11
   -0.87885720493333109590E-11
   -0.35457150740443030920E-10
   -0.10408794070233546656E-10
    0.12268476733693545829E-10
   -0.76920586517907319964E-11
    0.10069439109746279641E-10
    0.99230343020619092707E-11
   -0.30854511012976744963E-11
   -0.25743542623334168796E-12
    0.15996192682784948791E-10
    0.10416227494192044736E-10
   -0.81962009635217747537E-12
   -0.49085120460739080134E-11
    0.22475517433719970872E-12
   -0.12687389034442372681E-12
   -0.88873267045218482201E-11
    0.96128110491323379357E-11
    0.27257319469874221975E-11
    0.58167285414063761531E-11
   -0.46209743361683974692E-11
    0.34033845064070487617E-11
    0.51758355720570215934E-11
    0.64348884347916363577E-12
    0.12293449895482782660E-11
    0.50469123946639375588E-12
    0.16986073918865740541E-12
   -0.22761765043558117345E-12
   -0.19658009717204201385E-13
    0.51971408313254031186E-13
    0.39680680299809722083E-12
    0.12274578847313217740E-11
    0.14674307844750905575E-11
   -0.51266348513494083592E-12
   -0.12755624619606500456E-11
    0.73178116336903176874E-13
   -0.99785784873521557155E-13
    0.25415315281832691283E-12
    0.18983792618036670651E-12
    0.99893216085577630839E-13
    0.81098767920717548838E-11
    0.32121298797762684419E-07
    0.10722447722175336426E-01
    0.27330340371008866700E-02
    0.48631216120267506894E-10
    0.10483382761869736524E-11
   -0.27682171280748022063E-13
    0.11469461058498168949E-12
    0.20733541836593847039E-12