# vtk DataFile Version 3.0
LAPLACIEN  2D
ASCII
DATASET UNSTRUCTURED_GRID
 POINTS         481  float
   6.2500000000000000E-002  0.87500000000000000        0.0000000000000000     
  0.12500000000000000       0.87500000000000000        0.0000000000000000     
  0.12500000000000000       0.93750000000000000        0.0000000000000000     
   3.7499999999999999E-002  0.91249999999999998        0.0000000000000000     
   8.1250000000000003E-002  0.91874999999999996        0.0000000000000000     
   8.7499999999999994E-002  0.96250000000000002        0.0000000000000000     
   4.3749999999999997E-002  0.95625000000000004        0.0000000000000000     
  0.18750000000000000       0.87500000000000000        0.0000000000000000     
  0.25000000000000000       0.87500000000000000        0.0000000000000000     
  0.25000000000000000       0.93750000000000000        0.0000000000000000     
  0.16250000000000001       0.91249999999999998        0.0000000000000000     
  0.20624999999999999       0.91874999999999996        0.0000000000000000     
  0.21249999999999999       0.96250000000000002        0.0000000000000000     
  0.16875000000000001       0.95625000000000004        0.0000000000000000     
   6.2500000000000000E-002  0.75000000000000000        0.0000000000000000     
  0.12500000000000000       0.75000000000000000        0.0000000000000000     
  0.12500000000000000       0.81250000000000000        0.0000000000000000     
   3.7499999999999999E-002  0.78749999999999998        0.0000000000000000     
   8.1250000000000003E-002  0.79374999999999996        0.0000000000000000     
   8.7499999999999994E-002  0.83750000000000002        0.0000000000000000     
   4.3749999999999997E-002  0.83125000000000004        0.0000000000000000     
  0.18750000000000000       0.75000000000000000        0.0000000000000000     
  0.25000000000000000       0.75000000000000000        0.0000000000000000     
  0.25000000000000000       0.81250000000000000        0.0000000000000000     
  0.16250000000000001       0.78749999999999998        0.0000000000000000     
  0.20624999999999999       0.79374999999999996        0.0000000000000000     
  0.21249999999999999       0.83750000000000002        0.0000000000000000     
  0.16875000000000001       0.83125000000000004        0.0000000000000000     
  0.31250000000000000       0.87500000000000000        0.0000000000000000     
  0.37500000000000000       0.87500000000000000        0.0000000000000000     
  0.37500000000000000       0.93750000000000000        0.0000000000000000     
  0.28749999999999998       0.91249999999999998        0.0000000000000000     
  0.33124999999999999       0.91874999999999996        0.0000000000000000     
  0.33750000000000002       0.96250000000000002        0.0000000000000000     
  0.29375000000000001       0.95625000000000004        0.0000000000000000     
  0.43750000000000000       0.87500000000000000        0.0000000000000000     
  0.50000000000000000       0.87500000000000000        0.0000000000000000     
  0.50000000000000000       0.93750000000000000        0.0000000000000000     
  0.41249999999999998       0.91249999999999998        0.0000000000000000     
  0.45624999999999999       0.91874999999999996        0.0000000000000000     
  0.46250000000000002       0.96250000000000002        0.0000000000000000     
  0.41875000000000001       0.95625000000000004        0.0000000000000000     
  0.31250000000000000       0.75000000000000000        0.0000000000000000     
  0.37500000000000000       0.75000000000000000        0.0000000000000000     
  0.37500000000000000       0.81250000000000000        0.0000000000000000     
  0.28749999999999998       0.78749999999999998        0.0000000000000000     
  0.33124999999999999       0.79374999999999996        0.0000000000000000     
  0.33750000000000002       0.83750000000000002        0.0000000000000000     
  0.29375000000000001       0.83125000000000004        0.0000000000000000     
  0.43750000000000000       0.75000000000000000        0.0000000000000000     
  0.50000000000000000       0.75000000000000000        0.0000000000000000     
  0.50000000000000000       0.81250000000000000        0.0000000000000000     
  0.41249999999999998       0.78749999999999998        0.0000000000000000     
  0.45624999999999999       0.79374999999999996        0.0000000000000000     
  0.46250000000000002       0.83750000000000002        0.0000000000000000     
  0.41875000000000001       0.83125000000000004        0.0000000000000000     
   6.2500000000000000E-002  0.62500000000000000        0.0000000000000000     
  0.12500000000000000       0.62500000000000000        0.0000000000000000     
  0.12500000000000000       0.68750000000000000        0.0000000000000000     
   3.7499999999999999E-002  0.66249999999999998        0.0000000000000000     
   8.1250000000000003E-002  0.66874999999999996        0.0000000000000000     
   8.7499999999999994E-002  0.71250000000000002        0.0000000000000000     
   4.3749999999999997E-002  0.70625000000000004        0.0000000000000000     
  0.18750000000000000       0.62500000000000000        0.0000000000000000     
  0.25000000000000000       0.62500000000000000        0.0000000000000000     
  0.25000000000000000       0.68750000000000000        0.0000000000000000     
  0.16250000000000001       0.66249999999999998        0.0000000000000000     
  0.20624999999999999       0.66874999999999996        0.0000000000000000     
  0.21249999999999999       0.71250000000000002        0.0000000000000000     
  0.16875000000000001       0.70625000000000004        0.0000000000000000     
   6.2500000000000000E-002  0.50000000000000000        0.0000000000000000     
  0.12500000000000000       0.50000000000000000        0.0000000000000000     
  0.12500000000000000       0.56250000000000000        0.0000000000000000     
   3.7499999999999999E-002  0.53749999999999998        0.0000000000000000     
   8.1250000000000003E-002  0.54374999999999996        0.0000000000000000     
   8.7499999999999994E-002  0.58750000000000002        0.0000000000000000     
   4.3749999999999997E-002  0.58125000000000004        0.0000000000000000     
  0.18750000000000000       0.50000000000000000        0.0000000000000000     
  0.25000000000000000       0.50000000000000000        0.0000000000000000     
  0.25000000000000000       0.56250000000000000        0.0000000000000000     
  0.16250000000000001       0.53749999999999998        0.0000000000000000     
  0.20624999999999999       0.54374999999999996        0.0000000000000000     
  0.21249999999999999       0.58750000000000002        0.0000000000000000     
  0.16875000000000001       0.58125000000000004        0.0000000000000000     
  0.31250000000000000       0.62500000000000000        0.0000000000000000     
  0.37500000000000000       0.62500000000000000        0.0000000000000000     
  0.37500000000000000       0.68750000000000000        0.0000000000000000     
  0.28749999999999998       0.66249999999999998        0.0000000000000000     
  0.33124999999999999       0.66874999999999996        0.0000000000000000     
  0.33750000000000002       0.71250000000000002        0.0000000000000000     
  0.29375000000000001       0.70625000000000004        0.0000000000000000     
  0.43750000000000000       0.62500000000000000        0.0000000000000000     
  0.50000000000000000       0.62500000000000000        0.0000000000000000     
  0.50000000000000000       0.68750000000000000        0.0000000000000000     
  0.41249999999999998       0.66249999999999998        0.0000000000000000     
  0.45624999999999999       0.66874999999999996        0.0000000000000000     
  0.46250000000000002       0.71250000000000002        0.0000000000000000     
  0.41875000000000001       0.70625000000000004        0.0000000000000000     
  0.31250000000000000       0.50000000000000000        0.0000000000000000     
  0.37500000000000000       0.50000000000000000        0.0000000000000000     
  0.37500000000000000       0.56250000000000000        0.0000000000000000     
  0.28749999999999998       0.53749999999999998        0.0000000000000000     
  0.33124999999999999       0.54374999999999996        0.0000000000000000     
  0.33750000000000002       0.58750000000000002        0.0000000000000000     
  0.29375000000000001       0.58125000000000004        0.0000000000000000     
  0.43750000000000000       0.50000000000000000        0.0000000000000000     
  0.50000000000000000       0.50000000000000000        0.0000000000000000     
  0.50000000000000000       0.56250000000000000        0.0000000000000000     
  0.41249999999999998       0.53749999999999998        0.0000000000000000     
  0.45624999999999999       0.54374999999999996        0.0000000000000000     
  0.46250000000000002       0.58750000000000002        0.0000000000000000     
  0.41875000000000001       0.58125000000000004        0.0000000000000000     
  0.56250000000000000       0.87500000000000000        0.0000000000000000     
  0.62500000000000000       0.87500000000000000        0.0000000000000000     
  0.62500000000000000       0.93750000000000000        0.0000000000000000     
  0.53749999999999998       0.91249999999999998        0.0000000000000000     
  0.58125000000000004       0.91874999999999996        0.0000000000000000     
  0.58750000000000002       0.96250000000000002        0.0000000000000000     
  0.54374999999999996       0.95625000000000004        0.0000000000000000     
  0.68750000000000000       0.87500000000000000        0.0000000000000000     
  0.75000000000000000       0.87500000000000000        0.0000000000000000     
  0.75000000000000000       0.93750000000000000        0.0000000000000000     
  0.66249999999999998       0.91249999999999998        0.0000000000000000     
  0.70625000000000004       0.91874999999999996        0.0000000000000000     
  0.71250000000000002       0.96250000000000002        0.0000000000000000     
[...]
 CELL_DATA         896
 SCALARS Migratory_cells float
 LOOKUP_TABLE default
    0.24282912672421565828E-13
    0.63034468745760025219E-15
   -0.18450786323562180368E-13
    0.19797540442913498083E-12
    0.88607750078686945939E-13
   -0.19532079840250375859E-12
   -0.13939729551298292974E-13
   -0.93349570298671876494E-14
    0.10464411895068637948E-12
   -0.70788564083165402506E-13
   -0.15666538392566042503E-12
   -0.13794138824567122164E-12
    0.16963752176129500821E-12
   -0.10031847989459859473E-12
    0.54373001836867315279E-13
   -0.25352244075978475858E-12
    0.11265431627646801478E-12
    0.17762391385723449699E-12
    0.75398273852390588609E-13
    0.45197389343463603363E-13
   -0.12181026089436252944E-13
    0.19858554545747909701E-12
   -0.11335843862703781578E-12
   -0.23008428325289568730E-12
   -0.61669470281874640936E-13
    0.79101978257984219662E-13
   -0.11118910440944330973E-12
   -0.83766046981059466411E-13
   -0.25776865349344661257E-12
    0.26290604334512973139E-13
   -0.12922290966236287441E-15
    0.99013459862609833747E-13
    0.18020815930327464023E-12
   -0.13730323599720077806E-13
   -0.70258192722510451007E-13
   -0.14772711633665545431E-13
   -0.10618465978728441311E-13
   -0.33895694983079802763E-13
   -0.10721170285102017955E-12
    0.40054123155945847732E-13
    0.77162205176177501982E-13
   -0.61760783141034696333E-13
    0.59277607431717392106E-13
   -0.33067559552422197942E-13
    0.24531094147556682153E-12
    0.40111742553097278544E-13
    0.27089515037977017481E-12
    0.74655524755694421055E-13
    0.45521445184357699046E-14
    0.46215659034967196638E-13
    0.12498778010874080425E-12
    0.16689223203796036997E-13
   -0.95033976878857164849E-13
   -0.73685456510589410332E-13
   -0.15899330210213455176E-12
   -0.11265016217079176936E-12
   -0.65485833813374479799E-13
    0.24312757912908324907E-13
   -0.12090663027349406227E-12
   -0.65490577520380411360E-13
   -0.15398673037573558888E-12
    0.18874755522757215469E-12
   -0.98042632139927210815E-13
    0.38947725992119317269E-13
   -0.27850954958087977570E-12
    0.20372405568710660548E-12
   -0.12177395935925280526E-12
    0.87835385447778274667E-13
   -0.54698674707571125836E-13
   -0.18230291044291567082E-13
   -0.12829463147766639249E-12
    0.30185619766190218398E-13
    0.28175177269965878101E-12
    0.70086884462197605796E-13
    0.13783622259865907641E-12
    0.19762954508600004387E-13
    0.11319382150577697819E-12
   -0.14354052795795365633E-12
   -0.96232351124803673897E-13
    0.27785816519118198442E-13
    0.10253882553294065827E-12
    0.32965778985824030685E-13
    0.10408715661102137335E-12
   -0.72074556219602684818E-13
    0.14866002288012628397E-12
    0.27858903273682309604E-12
    0.89101867687803524146E-13
    0.12062227891763711032E-12
    0.11279261386532870907E-12
    0.60230317270991958460E-13
   -0.29944634660804888944E-13
    0.10970460495845237139E-13
    0.20868215486529663355E-12
   -0.20049122477203991207E-15
   -0.94362149392047019203E-13
    0.78465323798939703189E-13
   -0.80568729158455573772E-13
    0.15239041646858110149E-12
    0.72051763107705285060E-13
    0.51388245594214503164E-13
    0.25031838426318266640E-13
    0.59248378841704841979E-14
    0.37718394805521371053E-13
    0.37153373245711949224E-13
    0.19339934340922048363E-12
   -0.10375633795333383591E-12
   -0.10504138121595687994E-12
   -0.52275244213613761000E-13
   -0.19836820939188479246E-14
    0.43932165489238605783E-13
    0.26649929304465131468E-13
   -0.80900281331513728792E-13
    0.11805142219021256060E-12
   -0.69261044452644677703E-13
    0.67604229669357319062E-14
   -0.10244182718109885728E-12
    0.22231837271785768953E-13
   -0.20909509340503428940E-12
   -0.10596032458533195388E-12
    0.59174234264238686851E-14
   -0.20203338878583392032E-13
    0.12766680657670988610E-12
   -0.11646203070541602271E-12
    0.82908592427826990790E-14
   -0.74359465929304853873E-13
    0.37043370123772261700E-13
    0.88269112282514081824E-13
    0.93092217197877335431E-13
    0.11167571148757295678E-12
    0.10800279329017901552E-12
   -0.18962299209563930156E-13
    0.10283952654213894302E-12
   -0.31391224534633741831E-13
   -0.57295431463011496992E-13
    0.56716520132066680326E-13
    0.14429219918439564162E-12
   -0.72864482851946950278E-14
    0.10688356627565244527E-12
   -0.70104716587815660318E-13
   -0.52506584065107580704E-14
    0.76182875305284541312E-13
   -0.14850324084758761935E-12
    0.97984118620636222040E-13
   -0.28075919365765227206E-13
   -0.14284127241484541394E-12
   -0.84983415519269803477E-13
    0.16120763387042661614E-12
    0.17774949349798712317E-12
   -0.33009531606685014276E-13
   -0.89839773472634205569E-13
    0.42894144191754818831E-13
    0.75546393214563501876E-14
   -0.35457729734864207822E-12
   -0.10991108811437115096E-12
   -0.22706887716682518516E-13
   -0.93846969508911432154E-14
   -0.30366199603284338160E-12
    0.42674017145827162317E-12
    0.14089783657445621931E-13
    0.44320730819685899357E-13
    0.53609756239470325198E-13
   -0.36499255315045641760E-13
    0.86164296323153933915E-13
    0.20338987757875185005E-13
   -0.18985676663242428456E-13
   -0.18153776981265536690E-13
   -0.39163262807192827400E-14
   -0.38178346789586782637E-14
   -0.53989881899704872594E-14
    0.14068123388500127574E-12
    0.82256559865162374059E-13
   -0.50966335885917832299E-13
    0.45361190293042536081E-13
   -0.12429857188353605586E-13
    0.15415909280758238785E-12
    0.77886468829665159969E-13
   -0.59798459272908373514E-14
    0.83264125665336093742E-14
   -0.21501430705119137197E-13
   -0.23083023359005741325E-13
    0.29760305034279094408E-12
   -0.21137035054656295938E-12
    0.43847336228047378580E-08
    0.16907668262374873896E-08
    0.18292089684927080964E-04
    0.11887298122610780822E-03
    0.48427087336763766079E-05
    0.36147375464247150512E-06
    0.30298632368129159619E-12
    0.15167655153426127943E-13
    0.16846310529368872330E-13
   -0.54855882453150515433E-13
   -0.16439064138725265645E-13
   -0.76509530074967979144E-13
    0.18517102295115516057E-09
    0.88775606804135760671E-10
    0.10906564718242369186E-05
    0.32040221921573260768E-06
    0.86659465767093912381E-06
    0.22476581371771588097E-05
    0.58241505153717228827E-09
    0.28235947977737278020E-08
    0.75724469665955784354E-13
    0.56128609582854064857E-13
    0.35730961380438982216E-13
    0.13311219510533599982E-13
    0.14558762781963103041E-10
    0.34796946621990545220E-10
    0.61591181137928664892E-10
    0.12692207605211082364E-09
    0.31187127264473012589E-04
    0.43875255604517571359E-03
    0.17496186034407414794E-01
    0.17475360220055528165E-01
    0.36591040981645686419E-03
    0.12093516838335827525E-03
    0.39639411499415398298E-04
    0.64297782482958979551E-05
    0.24012270129780330407E-07
    0.14837506966641022776E-06
    0.34873301697957147260E-05
    0.67799404822031263118E-05
    0.82547242627689120030E-04
    0.23182334983396974174E-04
   -0.64955336663298030537E-13
   -0.13737290883354683951E-12
    0.92974650627768251861E-15
   -0.10834107797175498408E-12
    0.56500059368101735025E-13
   -0.23533588843621778354E-12
    0.47673687641607836420E-13
   -0.35809188893622619869E-13
    0.98811298866224661905E-13
   -0.96166940002635550237E-14
   -0.28183161480632570144E-12
    0.82456807660591488016E-13
    0.13070651623888561251E-13
   -0.17664428594487697189E-13
   -0.46184825215515462212E-13
   -0.16667938746649619632E-13
    0.64168976193664772429E-13
   -0.37532325784457177514E-13
   -0.76195209925168689891E-13
    0.73793268915009620475E-13
   -0.10919978902776258498E-13
   -0.45359473774000642171E-13
    0.40451236071518242173E-13
   -0.51864178307284021027E-13
    0.14117583439372854619E-12
    0.16832914449573939388E-14
   -0.12829902126401032521E-12
    0.71996213243540965737E-13
    0.22671556288436208114E-13
    0.29437391981682695252E-13
   -0.10690528314346768046E-13
   -0.29440549124388901085E-13
    0.12454520826875962324E-12
    0.72935026518731936505E-13
    0.25857516188413656378E-14
    0.53074165451878549960E-13
    0.54392420034803339761E-13
    0.73306695145220811509E-13
    0.89593961328994061793E-13
    0.39414470845394820078E-13
    0.61138265022158442054E-13
    0.12460386290289080520E-12
   -0.50353047329908656332E-13
    0.27612122215830399538E-12
    0.11540468502159979556E-12
   -0.63343255076606862179E-13
    0.30390475504324822601E-13
    0.19392315475141999732E-12
   -0.52265312221484802731E-13
   -0.13429131597321704051E-12
   -0.87965221384523128195E-13
    0.49482016693417278346E-14
   -0.18998636604601542206E-12
   -0.35128010903763679910E-13
    0.94372601873973883306E-13
   -0.26932758013775275898E-13
   -0.73010579087131554414E-13
   -0.22506087153072287584E-12
   -0.12583278123462710281E-12
   -0.65577739946106486804E-13
   -0.20692898119158945728E-12
   -0.13718431254576957677E-14
   -0.77727424072980911715E-14
    0.11094504188754495560E-12
   -0.94845879888461269689E-14
    0.24806608688157170869E-13
    0.21613662850185965331E-12
   -0.79884252206610333265E-13
   -0.10634556091220127714E-12
   -0.43844019909356134551E-13
    0.12351605697670824140E-12
   -0.14097853808350090840E-12
   -0.20066375110844770016E-13
    0.91048321082093327745E-13
    0.66729637575128047708E-13
   -0.78862991988475255357E-13
   -0.37604077515642701463E-13
    0.96412815972263146260E-13
    0.70908302827384883882E-13
   -0.25880478420815862273E-12
   -0.33187103318487570055E-13
   -0.12782778773609756861E-12
   -0.77125264124959154461E-13
    0.11193773494029072502E-12
   -0.88229272262743994281E-13
    0.34679877592118112273E-13
    0.74695485990090245639E-13
   -0.11419639553283132197E-12
    0.10484953607811424152E-12
    0.99332301780943266398E-13
   -0.30268998399565473808E-13
    0.17342458270876040076E-12
    0.24454604714408552169E-12
    0.39205668789050113396E-13
   -0.10922403419729751404E-12
    0.80832384254465987173E-13
   -0.62305199679947639805E-13
   -0.26346812927455564376E-12
   -0.10790222023250688546E-12
    0.19943599179948907290E-12
    0.30619376832191286425E-12
   -0.96661270371896054098E-13
   -0.67329198072410281998E-13
   -0.10962892617887918311E-12
   -0.47569185404799437073E-13
    0.69989316911242167274E-14
    0.11685034764991954967E-12
    0.44616707193616016606E-13
   -0.27600275664727556319E-12
   -0.28361044264593697855E-13
   -0.98208743032567205313E-13
   -0.15764144841098238472E-12
    0.18427361911778657443E-04
   -0.38786276767251612761E-13
   -0.48090407654935158823E-13
    0.51808317601481930968E-13
    0.23949658293045058174E-13
   -0.25070066016119862869E-13
    0.90310649862493950962E-14
    0.20177282046033330474E-13
    0.12655209246921275285E-12
    0.22030100400280338435E-06
    0.33061263262066256264E-05
    0.10881200458462358894E-03
   -0.16384137195947604311E-14
    0.15163003977009965268E-13
    0.10467328282194348451E-12
   -0.36899698862888144267E-14
   -0.76011808738138384808E-13
   -0.16522324236308105584E-12
   -0.94946510261961634214E-13
    0.11219858432661314738E-12
   -0.33868681989802296453E-13
   -0.21436346877380210747E-12
   -0.13453274084662957527E-12
    0.25450387113836712877E-13
   -0.14872366565129612750E-13
    0.20162436472948593241E-12
    0.49719515066375722801E-13
    0.24934294540175474914E-13
    0.17474338775045207550E-01
    0.40804051959061752360E-03
    0.30081290505649865759E-04
    0.65354486227163447807E-05
   -0.82133766869135949247E-13
   -0.22397604847897733374E-12
   -0.10193886786881808063E-12
    0.41373481431614919272E-05
    0.34222020862954462956E-04
    0.10343999762631950960E-03
    0.32286688194221884905E-03
    0.17451803187109406201E-01
    0.75564012823056944169E-04
    0.14877809316669496118E-04
    0.90148578247873926953E-06
    0.32814434989184858582E-06
    0.10457477922305803029E-05
   -0.59103103666051169324E-12
   -0.49911664320875000354E-13
   -0.10771408374818980493E-12
   -0.64220155997661475672E-13
   -0.46150840443397400914E-13
    0.16279052060492585016E-13
    0.74924648286521633299E-13
    0.25824792735320392189E-06
    0.24211730199615088814E-05
    0.10149239059380762198E-06
   -0.45241184565189328608E-14
   -0.23738600565834428983E-13
    0.13192871777384709927E-12
   -0.90612524373833803884E-13
   -0.90470524778696488036E-13
    0.74880603754675716338E-13
   -0.12565635304959527945E-12
    0.24832613270563269986E-13
   -0.14127430949929469279E-12
    0.28242679637888621778E-13
    0.16244498343099692506E-12
   -0.29987482886892236337E-12
   -0.19967512975080287316E-12
    0.20920284637907435975E-12
    0.24875732364771913089E-13
    0.16832904240207360246E-13
   -0.54317917945073487992E-13
   -0.98948701334946021495E-13
    0.90004447850159369415E-13
   -0.61095054015447468244E-13
   -0.50565448599127918552E-15
   -0.93771473007162548448E-13
    0.29777691629028723894E-13
    0.95765289512073608682E-13
    0.24756449358456491386E-12
   -0.13540571904972087560E-12
    0.75189387559661202447E-13
    0.26872416010066222173E-13
   -0.37883647719562603256E-13
    0.63864285465741705444E-14
   -0.93232382364080850964E-14
   -0.43378617321477659641E-13
   -0.66996867172682012775E-13
   -0.88220980566556483629E-13
   -0.15355509902282868454E-12
   -0.24140948815376452865E-13
   -0.86948927394954570557E-14
   -0.81954679370516005418E-13
   -0.79811541353566646586E-13
   -0.21434466256771170695E-13
   -0.37785710020453743024E-12
    0.10931987944227515401E-14
   -0.23343297597382058716E-13
   -0.11193697284640765498E-12
    0.13249256968672993340E-12
    0.13486450810148425602E-12
    0.11709606449454190238E-12
    0.14643966349210145070E-12
   -0.57878974117735758085E-13
    0.47366147439868225928E-13
    0.80803731534263606007E-13
    0.18217228939747929865E-12
   -0.14760567375401456870E-14
   -0.23777960171071885566E-12
   -0.35200622399349239465E-13
   -0.12326038182498697104E-12
    0.47556172419173282631E-14
   -0.20180253421592435044E-12
    0.70536966044716913680E-13
   -0.13801504486573701374E-12
   -0.94887408459170335704E-13
   -0.26061739244079418769E-12
   -0.24071533302246113843E-12
   -0.64936090004895578516E-13
    0.89733859749884997408E-13
    0.17440222532804061663E-12
    0.13872671273772562044E-13
   -0.45258420876036713658E-13
    0.37887709528734727637E-13
   -0.12805275495961651608E-12
   -0.15070753805287102044E-12
    0.23324185869728124626E-13
   -0.29518136692691911580E-13
   -0.61979729729280269641E-13
   -0.40383673546958010635E-13
   -0.19952144108824502660E-13
    0.22117901087911606457E-13
   -0.23842477856333099317E-12
   -0.39862145673682156858E-13
   -0.82004231475558138284E-13
   -0.15008615728956675455E-12
   -0.10877172331851716765E-12
   -0.14421382845118273777E-12
   -0.48339255867443928607E-13
   -0.28428886768838028545E-13
    0.17243281814445056794E-12
   -0.31147555925187262131E-13
    0.21045964954090677679E-12
    0.95004549689760759380E-13
   -0.13062577206472261538E-12
    0.46712712805133150660E-13
   -0.12209685931342051735E-12
    0.16753866522384166008E-12
    0.74324743781599816393E-13
    0.53883807676269908146E-13
   -0.45412498541047910708E-13
   -0.14511448892159759404E-12
    0.16046069561747742751E-13
   -0.32645590923038089772E-13
   -0.68465497640754157692E-13
   -0.17922680394922780599E-12
    0.42400734502385658747E-13
    0.66849881911609419395E-13
   -0.54318382097810841697E-13
    0.90757426480733078084E-13
   -0.12301269371649256233E-13
    0.33802620899248468437E-15
    0.11234329281549428014E-12
    0.65224382446565454417E-13
   -0.55473114349746635479E-13
   -0.15215172697594174800E-12
   -0.57082329734739062995E-13
   -0.60684449911240230010E-14
    0.25897277688903850803E-14
    0.25905002582235077051E-13
    0.13231351284093258360E-12
    0.64073114533583858790E-09
    0.37385977401050761713E-06
    0.39824055863053663023E-05
    0.14313125389327339591E-05
    0.51784884001656179273E-06
    0.16599520044321116890E-05
    0.28841184221376857146E-13
    0.78445732549115424558E-14
   -0.48612180107166076542E-14
    0.31792087173335295208E-13
    0.15199391844427079057E-06
    0.13201447914329727011E-12
   -0.16681420533134020191E-12
    0.47520864854979759559E-06
    0.61639246124038292001E-05
    0.45854499412184557272E-03
    0.17496866362645892290E-01
    0.17483653596102401856E-01
    0.40592584437946881148E-03
    0.57077291348564180066E-04
    0.10169275014157641706E-04
    0.24934372898844007370E-06
    0.45792021059801220018E-08
    0.19261737678452466625E-05
    0.27819050633564834744E-04
   -0.83250437162368351778E-13
   -0.87115697283187456029E-13
    0.33914418724796623701E-12
    0.17808398126326372862E-12
   -0.18313445178242292764E-12
   -0.99548565030633553586E-13
   -0.16346119686206462638E-12
   -0.96884705309291135659E-13
    0.34904428002512060727E-13
    0.18477758085808015814E-12
   -0.15208204469464398310E-12
   -0.80105430278828618541E-13
    0.46251922750029977781E-13
   -0.18762870571333688699E-13
   -0.47863516884346931393E-14
    0.30702629762932822531E-10
    0.23034124294067972768E-09
    0.76466599612591787559E-09
    0.25743115004441716263E-08
    0.10936284054027236189E-07
    0.73184203355965937468E-07
    0.49744168417950111477E-08
   -0.15193829415178584230E-13
   -0.95017865797846757898E-13
    0.13035952686371012896E-13
    0.23964938251688568195E-13
    0.11367809727198146578E-09
    0.10109333174223100445E-08
   -0.10510960943507921248E-12
   -0.28125493968457593082E-12
   -0.14745728437834518142E-12
   -0.79745723257899538965E-13
    0.86437821596110969151E-14
    0.13139906611839603577E-12
   -0.14332958886297937753E-12
   -0.74849442150184642847E-13
   -0.12107328191072630055E-12
    0.18306037547870709805E-14
   -0.15855222956624179529E-12
    0.22376480390926755742E-12
    0.19878299944478614139E-12
   -0.13192761962395853742E-12
    0.18547769130822080589E-12
    0.36331531154092943583E-13
    0.73763097468458520362E-13
   -0.15673682288140075248E-12
    0.78494901235363173157E-13
   -0.64167268323640604718E-13
   -0.17253425434846255774E-13
   -0.17860192241393367395E-13
   -0.43471282177867932446E-13
   -0.92101758346695941938E-13
   -0.35236516403952785531E-13
    0.16520723122100086924E-12
   -0.25602131045000774310E-12
   -0.10568555674623907300E-12
   -0.33628357738446833883E-13
    0.14894211796226713383E-12
    0.67225856998331037663E-13
    0.34203410105180806275E-12
    0.80647036911564349856E-13
   -0.93189419483235795862E-13
   -0.37116474501905235748E-13
   -0.43307141317269801834E-12
   -0.32322240155836974695E-13
    0.13780200571701427090E-12
   -0.98562984199645603533E-13
    0.11197150621560798705E-12
    0.10677278839790377444E-12
   -0.42852937118868176932E-13
   -0.61366625560733968632E-14
    0.21160671519626832665E-12
    0.17524319658769011439E-12
   -0.15636643193123911496E-13
   -0.12943867528035689378E-12
   -0.16012914436781502823E-13
    0.92305801801164186804E-13
   -0.12959416388273693204E-13
    0.38234089037509831765E-13
    0.59686211096685584943E-13
    0.59495379996069980980E-13
   -0.20732891610055301166E-13
    0.95572254665100192055E-13
   -0.33988490041037247377E-13
    0.18280231577460603172E-12
    0.11473527728397519343E-12
    0.61997773553047716183E-13
    0.44806918178403916569E-13
   -0.69412628123776641156E-13
   -0.71511083471546658219E-13
   -0.22493564837583986597E-12
   -0.33278715923026102762E-12
    0.41238245949065292761E-13
    0.38633280073328696102E-13
   -0.16545732601587498441E-12
   -0.17256180182259070697E-13
   -0.54007288092161197228E-13
   -0.98865771650096179584E-13
    0.54136373492913728656E-13
    0.35466977157014913282E-13
   -0.35506701674098641004E-14
   -0.20403890966812698843E-12
    0.12431441511702499998E-12
    0.91954753626073295729E-10
    0.66526371512664501362E-09
    0.90103552703084461991E-14
    0.39537009957269954261E-14
   -0.17070327539112636686E-13
    0.35356727061108680376E-14
    0.45779377088862215003E-13