# vtk DataFile Version 3.0
LAPLACIEN  2D
ASCII
DATASET UNSTRUCTURED_GRID
 POINTS         481  float
   6.2500000000000000E-002  0.87500000000000000        0.0000000000000000     
  0.12500000000000000       0.87500000000000000        0.0000000000000000     
  0.12500000000000000       0.93750000000000000        0.0000000000000000     
   3.7499999999999999E-002  0.91249999999999998        0.0000000000000000     
   8.1250000000000003E-002  0.91874999999999996        0.0000000000000000     
   8.7499999999999994E-002  0.96250000000000002        0.0000000000000000     
   4.3749999999999997E-002  0.95625000000000004        0.0000000000000000     
  0.18750000000000000       0.87500000000000000        0.0000000000000000     
  0.25000000000000000       0.87500000000000000        0.0000000000000000     
  0.25000000000000000       0.93750000000000000        0.0000000000000000     
  0.16250000000000001       0.91249999999999998        0.0000000000000000     
  0.20624999999999999       0.91874999999999996        0.0000000000000000     
  0.21249999999999999       0.96250000000000002        0.0000000000000000     
  0.16875000000000001       0.95625000000000004        0.0000000000000000     
   6.2500000000000000E-002  0.75000000000000000        0.0000000000000000     
  0.12500000000000000       0.75000000000000000        0.0000000000000000     
  0.12500000000000000       0.81250000000000000        0.0000000000000000     
   3.7499999999999999E-002  0.78749999999999998        0.0000000000000000     
   8.1250000000000003E-002  0.79374999999999996        0.0000000000000000     
   8.7499999999999994E-002  0.83750000000000002        0.0000000000000000     
   4.3749999999999997E-002  0.83125000000000004        0.0000000000000000     
  0.18750000000000000       0.75000000000000000        0.0000000000000000     
  0.25000000000000000       0.75000000000000000        0.0000000000000000     
  0.25000000000000000       0.81250000000000000        0.0000000000000000     
  0.16250000000000001       0.78749999999999998        0.0000000000000000     
  0.20624999999999999       0.79374999999999996        0.0000000000000000     
  0.21249999999999999       0.83750000000000002        0.0000000000000000     
  0.16875000000000001       0.83125000000000004        0.0000000000000000     
  0.31250000000000000       0.87500000000000000        0.0000000000000000     
  0.37500000000000000       0.87500000000000000        0.0000000000000000     
  0.37500000000000000       0.93750000000000000        0.0000000000000000     
  0.28749999999999998       0.91249999999999998        0.0000000000000000     
  0.33124999999999999       0.91874999999999996        0.0000000000000000     
  0.33750000000000002       0.96250000000000002        0.0000000000000000     
  0.29375000000000001       0.95625000000000004        0.0000000000000000     
  0.43750000000000000       0.87500000000000000        0.0000000000000000     
  0.50000000000000000       0.87500000000000000        0.0000000000000000     
  0.50000000000000000       0.93750000000000000        0.0000000000000000     
  0.41249999999999998       0.91249999999999998        0.0000000000000000     
  0.45624999999999999       0.91874999999999996        0.0000000000000000     
  0.46250000000000002       0.96250000000000002        0.0000000000000000     
  0.41875000000000001       0.95625000000000004        0.0000000000000000     
  0.31250000000000000       0.75000000000000000        0.0000000000000000     
  0.37500000000000000       0.75000000000000000        0.0000000000000000     
  0.37500000000000000       0.81250000000000000        0.0000000000000000     
  0.28749999999999998       0.78749999999999998        0.0000000000000000     
  0.33124999999999999       0.79374999999999996        0.0000000000000000     
  0.33750000000000002       0.83750000000000002        0.0000000000000000     
  0.29375000000000001       0.83125000000000004        0.0000000000000000     
  0.43750000000000000       0.75000000000000000        0.0000000000000000     
  0.50000000000000000       0.75000000000000000        0.0000000000000000     
  0.50000000000000000       0.81250000000000000        0.0000000000000000     
  0.41249999999999998       0.78749999999999998        0.0000000000000000     
  0.45624999999999999       0.79374999999999996        0.0000000000000000     
  0.46250000000000002       0.83750000000000002        0.0000000000000000     
  0.41875000000000001       0.83125000000000004        0.0000000000000000     
   6.2500000000000000E-002  0.62500000000000000        0.0000000000000000     
  0.12500000000000000       0.62500000000000000        0.0000000000000000     
  0.12500000000000000       0.68750000000000000        0.0000000000000000     
   3.7499999999999999E-002  0.66249999999999998        0.0000000000000000     
   8.1250000000000003E-002  0.66874999999999996        0.0000000000000000     
   8.7499999999999994E-002  0.71250000000000002        0.0000000000000000     
   4.3749999999999997E-002  0.70625000000000004        0.0000000000000000     
  0.18750000000000000       0.62500000000000000        0.0000000000000000     
  0.25000000000000000       0.62500000000000000        0.0000000000000000     
  0.25000000000000000       0.68750000000000000        0.0000000000000000     
  0.16250000000000001       0.66249999999999998        0.0000000000000000     
  0.20624999999999999       0.66874999999999996        0.0000000000000000     
  0.21249999999999999       0.71250000000000002        0.0000000000000000     
  0.16875000000000001       0.70625000000000004        0.0000000000000000     
   6.2500000000000000E-002  0.50000000000000000        0.0000000000000000     
  0.12500000000000000       0.50000000000000000        0.0000000000000000     
  0.12500000000000000       0.56250000000000000        0.0000000000000000     
   3.7499999999999999E-002  0.53749999999999998        0.0000000000000000     
   8.1250000000000003E-002  0.54374999999999996        0.0000000000000000     
   8.7499999999999994E-002  0.58750000000000002        0.0000000000000000     
   4.3749999999999997E-002  0.58125000000000004        0.0000000000000000     
  0.18750000000000000       0.50000000000000000        0.0000000000000000     
  0.25000000000000000       0.50000000000000000        0.0000000000000000     
  0.25000000000000000       0.56250000000000000        0.0000000000000000     
  0.16250000000000001       0.53749999999999998        0.0000000000000000     
  0.20624999999999999       0.54374999999999996        0.0000000000000000     
  0.21249999999999999       0.58750000000000002        0.0000000000000000     
  0.16875000000000001       0.58125000000000004        0.0000000000000000     
  0.31250000000000000       0.62500000000000000        0.0000000000000000     
  0.37500000000000000       0.62500000000000000        0.0000000000000000     
  0.37500000000000000       0.68750000000000000        0.0000000000000000     
  0.28749999999999998       0.66249999999999998        0.0000000000000000     
  0.33124999999999999       0.66874999999999996        0.0000000000000000     
  0.33750000000000002       0.71250000000000002        0.0000000000000000     
  0.29375000000000001       0.70625000000000004        0.0000000000000000     
  0.43750000000000000       0.62500000000000000        0.0000000000000000     
  0.50000000000000000       0.62500000000000000        0.0000000000000000     
  0.50000000000000000       0.68750000000000000        0.0000000000000000     
  0.41249999999999998       0.66249999999999998        0.0000000000000000     
  0.45624999999999999       0.66874999999999996        0.0000000000000000     
  0.46250000000000002       0.71250000000000002        0.0000000000000000     
  0.41875000000000001       0.70625000000000004        0.0000000000000000     
  0.31250000000000000       0.50000000000000000        0.0000000000000000     
  0.37500000000000000       0.50000000000000000        0.0000000000000000     
  0.37500000000000000       0.56250000000000000        0.0000000000000000     
  0.28749999999999998       0.53749999999999998        0.0000000000000000     
  0.33124999999999999       0.54374999999999996        0.0000000000000000     
  0.33750000000000002       0.58750000000000002        0.0000000000000000     
  0.29375000000000001       0.58125000000000004        0.0000000000000000     
  0.43750000000000000       0.50000000000000000        0.0000000000000000     
  0.50000000000000000       0.50000000000000000        0.0000000000000000     
  0.50000000000000000       0.56250000000000000        0.0000000000000000     
  0.41249999999999998       0.53749999999999998        0.0000000000000000     
  0.45624999999999999       0.54374999999999996        0.0000000000000000     
  0.46250000000000002       0.58750000000000002        0.0000000000000000     
  0.41875000000000001       0.58125000000000004        0.0000000000000000     
  0.56250000000000000       0.87500000000000000        0.0000000000000000     
  0.62500000000000000       0.87500000000000000        0.0000000000000000     
  0.62500000000000000       0.93750000000000000        0.0000000000000000     
  0.53749999999999998       0.91249999999999998        0.0000000000000000     
  0.58125000000000004       0.91874999999999996        0.0000000000000000     
  0.58750000000000002       0.96250000000000002        0.0000000000000000     
  0.54374999999999996       0.95625000000000004        0.0000000000000000     
  0.68750000000000000       0.87500000000000000        0.0000000000000000     
  0.75000000000000000       0.87500000000000000        0.0000000000000000     
  0.75000000000000000       0.93750000000000000        0.0000000000000000     
  0.66249999999999998       0.91249999999999998        0.0000000000000000     
  0.70625000000000004       0.91874999999999996        0.0000000000000000     
  0.71250000000000002       0.96250000000000002        0.0000000000000000     
[...]
 CELL_DATA         896
 SCALARS Migratory_cells float
 LOOKUP_TABLE default
    0.12053857565390311133E-11
    0.44480076396191679620E-12
   -0.70633994649203967778E-12
    0.95773948710038131491E-11
    0.32535892385248537944E-11
   -0.94828912574875735852E-11
   -0.52795092260837398327E-12
   -0.24813507210284718597E-12
    0.55272726561685500261E-11
   -0.33081601625621459873E-11
   -0.75758271163271134612E-11
   -0.67981572402888844748E-11
    0.59288151956749789637E-11
   -0.48093325445913623579E-11
    0.37768567708175965835E-11
   -0.11436763150337598369E-10
    0.33046345406254312826E-11
    0.83065093526395377196E-11
    0.34300509736764868546E-11
    0.22554493558330455154E-11
   -0.31559160678056107611E-12
    0.91305714432047326418E-11
   -0.55262821428697372336E-11
   -0.95674603958991583454E-11
   -0.29263539882668406805E-11
    0.32875463205944739843E-11
   -0.48614971082662159688E-11
   -0.36465940798126887138E-11
   -0.65866057477284347219E-11
   -0.81907239632236129199E-12
    0.19432068001140026211E-11
    0.41922984626049854360E-11
    0.75863171977611871334E-11
   -0.64229666934154692119E-12
   -0.32075172047525085004E-11
   -0.62661830733699776165E-12
   -0.30476067441331502362E-12
   -0.14160656352198044947E-11
   -0.45733538758222578288E-11
    0.18271535354101220906E-11
    0.34355871366590354692E-11
   -0.26909345531781445656E-11
   -0.34830138653232352117E-12
    0.17113314211022548311E-11
    0.33938650232480346059E-11
    0.11161958772165096873E-11
    0.19747896673561682755E-11
    0.21981816938561596229E-11
    0.48218972660717548959E-11
    0.37664199835026202184E-11
    0.50314670107348620633E-11
   -0.12248548188529338335E-11
   -0.28940421489760999288E-11
    0.29556010798446311109E-12
   -0.25717759672218481072E-11
    0.24936496913231461977E-11
   -0.90305882052758388934E-12
    0.30122472546318760358E-11
    0.39649206112645456579E-12
   -0.26065313445667144048E-11
   -0.28676230941144605253E-11
    0.48342413467305881974E-11
   -0.38392783486123568942E-11
    0.16436756035680895199E-12
   -0.49757886916066053950E-11
    0.87641484220519221077E-11
   -0.16363663902177545691E-11
    0.37598391307538394235E-11
    0.15229001901331828763E-11
   -0.73879028203984718699E-11
    0.68851465821424257412E-12
    0.50055581992676403167E-12
    0.82821441932217683230E-12
    0.38270242583713955754E-12
    0.46269419557256042372E-12
    0.71009709440451373994E-12
    0.42296643365566724584E-11
   -0.29952316956016328149E-11
   -0.36453749329440760576E-11
    0.33856276045427214456E-11
    0.84363189391667113144E-12
   -0.48119579878434490611E-12
    0.36342925163662012814E-12
   -0.76542460586196829971E-12
    0.19047769625155368505E-11
    0.75017137459504956031E-12
    0.57009670571417849213E-12
    0.79263193765170406992E-12
    0.12410253085834778515E-11
    0.72507600829754812295E-13
    0.39055483622341752489E-12
    0.27815505482714174009E-11
    0.45476513681277078416E-11
   -0.12439277644960946106E-12
   -0.18832067373723729026E-12
    0.19287834046351398137E-11
   -0.43940744705132867160E-13
    0.13652929973725531218E-11
    0.28499122541187731004E-12
    0.48983112521221142124E-13
    0.78225803023619558729E-13
    0.17038130236682928982E-12
    0.27269058991277594463E-12
    0.51075898958576727491E-12
    0.65199653153745734497E-12
    0.26330412664999985387E-12
    0.40642217053946100232E-12
   -0.24284060888125814572E-12
   -0.18119599567090085103E-12
    0.44275858680454453359E-12
   -0.72059289811887382386E-13
    0.20979046570685288799E-12
    0.99741922719610789182E-13
   -0.32316124032668831580E-12
    0.48382751580780635898E-12
   -0.83518795005693927492E-12
   -0.19495538373323736482E-11
   -0.27730224192902400337E-11
   -0.69137755452783483597E-12
   -0.45867107001607850003E-12
   -0.36840041512290215880E-11
    0.36162386813079892725E-11
    0.13260461823748537597E-11
    0.13531324876409332526E-11
    0.21368361878767092097E-12
   -0.27907799082505824522E-11
   -0.30725703544604717948E-12
   -0.38116633966204750302E-12
   -0.99844932685623349818E-13
    0.16847577550224542519E-13
   -0.14185925899591049633E-12
    0.14004389503165797898E-11
    0.20801919188638766198E-11
   -0.81428325260983066202E-12
   -0.11587573723146866829E-11
   -0.13939034038371958365E-11
   -0.10999875914017431573E-11
   -0.35622855590952426314E-12
   -0.64810767725369479943E-12
   -0.10629876341741157196E-11
    0.84806336062560140686E-12
    0.63021528092791772719E-13
    0.24461564196414652305E-12
    0.13489755457234815639E-12
    0.67106261216558741159E-13
    0.20240910899940712543E-12
    0.30529619476372255903E-12
    0.40983140245285499987E-12
    0.19631845882735106002E-12
   -0.21926641982555266462E-11
   -0.34073924098020822375E-12
    0.18092838679094679762E-12
   -0.14354445965222996769E-12
    0.11112428756964151033E-12
    0.13684290863154115563E-14
    0.34729855797204556048E-13
   -0.57812770007250444706E-11
    0.81855486951070403510E-05
   -0.23762370239949642640E-13
   -0.83249107195228058970E-14
   -0.76304860983990998187E-13
   -0.80308738166878577388E-13
   -0.10459405370216166641E-12
    0.25491896049181872530E-12
    0.16775023123256316932E-12
    0.10384217181286076406E-12
    0.93600534051847894154E-13
   -0.53274048688200814761E-13
    0.15197669361532645839E-12
    0.39941055780856688384E-12
    0.21079552285939961688E-12
    0.53172132509031744253E-13
   -0.20705193143368857445E-13
    0.11599572966221666131E-12
    0.43440086082372610207E-12
    0.44291039008374766576E-12
    0.73949115641839958736E-12
    0.63477476160837922380E-12
    0.16544323433661160390E-12
    0.22525406927279682792E-12
    0.54605666484873339562E-12
   -0.16355951688343881299E-12
    0.39579651532513766788E-04
    0.24228189181176596205E-04
    0.12020936998961625087E-02
    0.10194951441429019046E+00
    0.16551992048131129037E-01
    0.28288262201328143175E-01
    0.39298005039822606680E-06
    0.78901562479366418174E-13
    0.12248821470312696895E-12
    0.33671463955295894574E-13
    0.42696475455081864798E-14
   -0.24875212455483772223E-13
    0.38415567608068112131E-05
    0.23793482742128570702E-05
    0.29138575405879441060E-01
    0.37605440645699643887E-03
    0.86723574120774833598E-03
    0.14560870940037364419E-02
    0.96449891804729714586E-05
    0.18312963972372326891E-04
    0.10675500937343161917E-12
    0.18467397662662197994E-12
    0.11335930475380050128E-12
    0.63078097866833081195E-13
    0.71240197666225643662E-06
    0.50449159392112875411E-04
    0.23745188304411091372E-05
    0.33748405777917869028E-05
    0.66666619051478715266E-02
    0.28135798251350808280E-01
    0.16435661595218714615E+00
    0.15292874718296287084E+00
    0.21361753572594937428E-01
    0.58506205789466293049E-02
    0.23828908091233984116E-02
    0.21617392149046016879E-02
    0.99755525898819415761E-04
    0.21278403822366404887E-03
    0.11657128196425621102E-02
    0.24102781356769354716E-02
    0.93004774113999797575E-02
    0.68764280391456090308E-02
   -0.48807312774885087276E-12
   -0.70334794470532454253E-13
   -0.40910528127224816247E-12
   -0.95216648891008683632E-12
   -0.19508760601378403705E-11
   -0.68590565306724517065E-11
    0.19957418091059313042E-11
    0.17889253620953031784E-11
    0.37868267931249320621E-11
    0.25735904458562932474E-11
   -0.41375951921297680652E-12
   -0.42979298615369649334E-12
    0.15198938637312809170E-12
   -0.31553019817792218433E-12
    0.14146603775046614617E-11
    0.30695946385073423077E-11
    0.14536428131669006986E-11
   -0.17318145593416168963E-11
   -0.22286765117024776872E-11
    0.22889493384476851133E-11
   -0.21006025716529190964E-11
   -0.17405896674189264123E-11
    0.21140222255563484171E-11
    0.11529623002105294631E-11
    0.57615973196707460021E-12
   -0.19554138021840506195E-12
    0.11011213135014491577E-11
    0.26012713871711253023E-11
    0.25039118118125585282E-13
    0.48918064095860177488E-13
    0.15405253837094140086E-12
    0.24869488768828468241E-12
    0.13966237332072037841E-12
    0.34061504603077947181E-12
   -0.18772955558512341168E-12
   -0.24040076171409779164E-12
   -0.34119218465971358977E-12
   -0.84955961254981011179E-13
   -0.19008863532406931731E-13
    0.86132762771323636894E-14
   -0.35526618408971428833E-13
   -0.43918830130720550035E-13
    0.27292462313811833056E-12
    0.79217777540674182337E-12
    0.63064497441971873553E-12
    0.58054087875479481073E-12
    0.30661109459173562730E-11
    0.36805403168065916257E-11
    0.24291438476340426057E-11
    0.11648294809858938107E-11
    0.84484940568062179735E-12
    0.78720221595483037786E-12
    0.60068264156763736650E-12
    0.34822234616688729714E-12
    0.14102094265898940249E-11
    0.16343024608314836277E-11
   -0.74217939394028295140E-11
   -0.73753238853053011578E-11
   -0.51856274282571768559E-11
   -0.27758022526013465423E-11
   -0.98919443535254619882E-11
    0.20707091361480517212E-12
   -0.15615503520104901917E-12
    0.54377936673622202378E-11
    0.21476104173884607255E-11
    0.14248794201931762701E-11
    0.95098248949971037791E-11
   -0.36212786760259782428E-13
   -0.48484820580631545899E-11
   -0.38411338276837397351E-12
    0.58486821105414278401E-11
   -0.67042567132823800492E-11
   -0.35616578121353465767E-12
    0.46100956564879493604E-11
    0.35747374350081651637E-11
   -0.37591808550352210833E-11
   -0.17422775216235647678E-11
    0.50468604721298303294E-11
    0.36111297859293044394E-11
   -0.12547587517797905254E-10
   -0.17498396972691661734E-11
   -0.59544130236102089388E-11
   -0.35660197074615467830E-11
   -0.51492913334273030761E-12
   -0.19167321268980112200E-11
   -0.83595148603981017219E-12
    0.27829375371352856943E-11
   -0.46467328483980268247E-13
    0.48871337215011384207E-11
    0.47335213919906813547E-11
   -0.60352993894075235183E-12
   -0.35679994153958142322E-12
    0.21745783694215214951E-11
    0.34274940444827504342E-11
   -0.13729294446146466531E-11
    0.55012299197141587027E-12
   -0.37705481261536819387E-11
   -0.32432146513382418446E-11
   -0.10794014180248952483E-11
    0.60125730153328906587E-11
    0.83741590450728673698E-11
   -0.41567561894078423745E-11
   -0.23488795952572914522E-11
   -0.52167491009442967920E-11
   -0.21114626862228023454E-11
    0.47020591709333831969E-12
    0.46996950417109594248E-11
    0.69003949507962924786E-11
   -0.84947769722263585437E-11
   -0.17883769823674313156E-11
    0.61247562030840920972E-12
   -0.69943831800756862064E-11
    0.13399379364080010821E-02
    0.63430452037332071914E-09
    0.88676869495439785033E-09
    0.40804279486563789513E-13
   -0.21772939501322732817E-13
   -0.13926933038656792343E-12
    0.24361051171489560192E-13
    0.14715135202609152317E-13
    0.35998984352589210072E-06
    0.24667768515371710225E-01
    0.12077944810009745222E-01
    0.15230020448058012583E+00
    0.33536937493236381765E-08
   -0.10319804809623501243E-13
   -0.90511690338021378356E-13
   -0.80646306781015953190E-13
   -0.57472884678580881773E-13
    0.90300746729839842792E-13
    0.33224768664827715565E-12
    0.57884786405726522626E-12
   -0.66314666754167221864E-13
   -0.33722498996454687307E-12
   -0.15401651864400144814E-12
   -0.14304731534733910814E-12
    0.22733431727801869129E-12
    0.14000233849273916178E-12
    0.12716528369279849780E-12
    0.71244481254715413445E-13
    0.15921055945764125972E+00
    0.27843045079194109898E-01
    0.61729776010446069448E-02
    0.24134898406584642805E-02
    0.52241173290024461604E-07
    0.67409205396132544440E-08
    0.28186512057810324883E-08
    0.17220114091569022237E-02
    0.22503821109559874435E-02
    0.55339596229310407047E-02
    0.21217392247019337126E-01
    0.15014365245197122678E+00
    0.12140950037444564122E-01
    0.37245155315645834398E-02
    0.93659949113485011039E-03
    0.42072801921601705706E-03
    0.43389132006713002077E-01
    0.44801014216253335761E-05
    0.21618282500116146455E-12
   -0.12808066929764538076E-13
   -0.15368259334481138075E-13
   -0.51202360842476527704E-13
   -0.65883092500941774673E-13
    0.10192993614959332130E-08
    0.29474031026332922966E-03
    0.15883070069082391284E-02
    0.17349985737256300123E-03
    0.63138375929299838181E-12
    0.43276561112849821834E-13
    0.31899473692045627566E-12
    0.78874152834451871285E-13
    0.48767019245507267369E-12
    0.36613346336768076218E-12
    0.59014268628090287333E-12
    0.32033935217412664008E-11
    0.89409268973575410175E-12
   -0.10890366705235318474E-11
   -0.30589991987556480656E-12
   -0.26116192710764683082E-12
   -0.15020569823831261026E-12
    0.31523464799745911764E-12
    0.41715469337476037798E-12
    0.37906006699137230699E-12
   -0.40493873592647856961E-13
    0.96609255490210094990E-12
    0.13268467453778755766E-11
   -0.17356868984523479782E-11
    0.13514647041819619534E-12
    0.23844900652264854523E-12
    0.10839667063940049469E-11
    0.31640936247236391524E-12
    0.26602717664162911949E-11
    0.20465710460144588572E-11
    0.15264131296823381940E-11
   -0.25147500880339487336E-12
   -0.77523206696474198911E-12
    0.16097200730741100483E-11
    0.48806506921009445455E-13
    0.75357330891598257021E-13
    0.12589055882177013217E-12
    0.30248323893383791355E-13
    0.68440463109089108676E-13
   -0.21341408662528592716E-14
    0.78978704188856394350E-13
   -0.14370568380810344175E-14
   -0.21452906495385741142E-13
    0.51778977159313816467E-14
   -0.39760644220730263029E-11
    0.31062105978624900381E-13
    0.41795335427149982503E-13
    0.69456859430257122382E-12
    0.17412388755056730345E-11
    0.16879760564237963702E-11
    0.24257878483391096594E-11
   -0.24425792050166402082E-12
   -0.10989218180350780216E-11
    0.53870515275784122644E-12
    0.69925303454119798187E-12
    0.28966694742439092756E-12
    0.19358822035789768910E-12
   -0.16287752873307654893E-12
    0.24513219088482396237E-12
   -0.54512974719435328635E-12
   -0.12338149426014784469E-12
   -0.28846055876399817814E-11
   -0.14833457016508867809E-11
   -0.17903900245731736144E-12
   -0.36069287929080752065E-12
   -0.28314644411106557637E-12
   -0.71871594729730925028E-13
    0.24165031342521167709E-12
    0.55477135678032560808E-12
    0.50287595450927237669E-12
    0.21159900306864307734E-12
    0.50345990487100429664E-12
    0.84955118017805695245E-12
   -0.22237817037115428121E-12
   -0.42641081778795998382E-12
    0.12197910610989597103E-12
    0.45887655567027147570E-13
    0.69429317150922232436E-14
    0.16511034809712575695E-13
    0.13134814372024421932E-14
    0.34673589843346355646E-11
   -0.35705986732607689483E-11
    0.49490138196160823321E-14
    0.47065591452660946346E-13
    0.62908959765633354935E-13
   -0.16840184443915315138E-12
   -0.26476114719851453850E-12
   -0.48894414184855405041E-13
   -0.41881028616128543547E-13
    0.44142246134497152058E-11
   -0.90184006801563836362E-12
    0.36608197419150454150E-11
    0.24105557496419084943E-11
   -0.29720140007214529172E-12
   -0.99958101379932800369E-14
    0.64623566969711832257E-13
    0.60052981215720912402E-12
   -0.98651613907030799497E-12
    0.16303305515813785865E-11
   -0.96186834798446788620E-12
   -0.24624051725044205755E-11
   -0.32999031311734810423E-11
   -0.90486161033408629810E-12
   -0.19547282761219011733E-11
   -0.92726612818512693524E-12
   -0.12435138158599650361E-11
   -0.15832090893288485779E-12
   -0.10334774133239436076E-12
    0.24459051605514236566E-12
    0.94072587800296161726E-13
    0.12349339818133182728E-12
    0.19893765226966964137E-12
    0.18876438254716717836E-12
   -0.11104850133368822087E-11
   -0.88388458849554366272E-12
   -0.50472790953133371868E-12
    0.11437376174118002611E-13
    0.13809524088846413501E-12
    0.90017247566271410255E-07
    0.17718103782994382465E-06
    0.14775792056259288510E-03
    0.46024897654894247499E-03
    0.24138592590696554552E-02
    0.13369628319293582180E-02
    0.60899982890055338099E-03
    0.54989022837694745416E-01
    0.96585516316086572635E-05
    0.19593011047491303343E-07
    0.77240747168995569049E-13
    0.53890711891459249433E-07
    0.27677765686659868078E-03
    0.23035535666934766428E-07
    0.14711567377656595722E-06
    0.25948576796168609446E-02
    0.75568410101295134529E-02
    0.51414724196390940159E-01
    0.17117190234054119324E+00
    0.16513307072450184032E+00
    0.34410725955811939658E-01
    0.88638211319130178617E-02
    0.35411665749011476262E-02
    0.29639054078176951638E-02
    0.26763691564391054335E-03
    0.56312645039068012429E-02
    0.19951676362402987613E-01
   -0.12919622791473026260E-12
    0.24623127628907751015E-12
    0.42068568563756587639E-12
    0.17039362907452646969E-12
   -0.43659997802120283327E-12
   -0.32522500445852814954E-12
   -0.15765820315055180241E-12
    0.10028972289766951285E-13
    0.28326840648640629297E-12
    0.39100682097290935788E-12
   -0.23158518187336452217E-12
   -0.14028764145831184362E-12
    0.36016480991511511531E-12
    0.13112445158063720783E-12
    0.52559350418675951016E-12
    0.25607565817493116569E-04
    0.82784847888565211375E-04
    0.19815798354822893859E-03
    0.38943525472478286633E-03
    0.80280949559314142630E-03
    0.15589182174560070430E-02
    0.37878245269976789679E-03
    0.20662377988869050425E-08
    0.16951710374267753556E-09
    0.71101015383220515323E-10
    0.10015621281479915640E-11
    0.57859054004666593052E-04
    0.21578963201796785821E-03
   -0.50249077119528229879E-11
   -0.13182655385903703032E-10
   -0.12865143569901548189E-11
   -0.35348484434950621057E-11
    0.38175710331079830104E-12
    0.40682817275872346530E-11
   -0.22445922148938848214E-11
   -0.38686565666595752830E-11
   -0.42579246789813608126E-11
   -0.20270598223785858264E-11
   -0.52450426948039308662E-11
    0.10950161150717150365E-10
    0.37655349779599943878E-11
   -0.46538593875853500273E-11
    0.74878178470150802550E-11
    0.57346062226781239925E-11
    0.59970691044544652379E-11
   -0.91529190252689633318E-12
   -0.14761960537792023276E-12
    0.10783391360925783748E-11
   -0.21823430598214723691E-11
   -0.66395322029433393863E-12
   -0.21951273476478233160E-11
   -0.15490845037794292866E-11
    0.12647779009617582011E-11
    0.68082881340818396946E-11
   -0.20632017842961507182E-11
    0.49387567586898306054E-12
   -0.14853894910826037502E-11
    0.76113297215895015023E-11
    0.36060643079256041225E-11
    0.17128785605785110611E-10
    0.42088182022195392490E-11
   -0.42058934947286747854E-11
   -0.50810109529138314731E-11
   -0.21137280422547561774E-10
   -0.59798025700233840637E-11
    0.71532958366446983202E-11
   -0.45854310230847953324E-11
    0.58528614560802664116E-11
    0.57820682130304267377E-11
   -0.17593649798096470555E-11
   -0.18608569508574283575E-12
    0.96655689586773154475E-11
    0.61892063108296197548E-11
   -0.67068061393634407848E-12
   -0.34195774678936816763E-11
    0.91279901923689024890E-13
    0.26543543844041385280E-12
   -0.62234550761632306163E-11
    0.58943211306456491593E-11
    0.20240224607200300060E-11
    0.30405524371696776581E-11
   -0.29204770529868482231E-11
    0.20034434006930179528E-11
    0.30659896502096500417E-11
    0.11319516546561624909E-11
    0.13179298962598678852E-11
    0.37848564210059624981E-12
    0.10200926214577135305E-12
   -0.46766602862598064024E-12
   -0.26577013089528866873E-12
   -0.26099015092485387855E-12
    0.91137661924947907543E-13
    0.79060851922147331358E-12
    0.93394288227717475379E-12
   -0.31192296573810588518E-12
   -0.11121568168358595936E-11
   -0.10263795981600122925E-12
   -0.46641298734503786694E-12
    0.20759123560514268564E-12
    0.15359658295510625388E-12
    0.84565676297089165036E-13
    0.63234248079384192937E-11
    0.20645173719172341471E-08
    0.44879052211885817059E-02
    0.14444550933441031512E-02
    0.70962173616522460169E-11
    0.78573450459379311956E-13
   -0.16229942077021231271E-12
    0.13821733389284784041E-13
    0.12708422636401683167E-12