# vtk DataFile Version 3.0
LAPLACIEN  2D
ASCII
DATASET UNSTRUCTURED_GRID
 POINTS         481  float
   6.2500000000000000E-002  0.87500000000000000        0.0000000000000000     
  0.12500000000000000       0.87500000000000000        0.0000000000000000     
  0.12500000000000000       0.93750000000000000        0.0000000000000000     
   3.7499999999999999E-002  0.91249999999999998        0.0000000000000000     
   8.1250000000000003E-002  0.91874999999999996        0.0000000000000000     
   8.7499999999999994E-002  0.96250000000000002        0.0000000000000000     
   4.3749999999999997E-002  0.95625000000000004        0.0000000000000000     
  0.18750000000000000       0.87500000000000000        0.0000000000000000     
  0.25000000000000000       0.87500000000000000        0.0000000000000000     
  0.25000000000000000       0.93750000000000000        0.0000000000000000     
  0.16250000000000001       0.91249999999999998        0.0000000000000000     
  0.20624999999999999       0.91874999999999996        0.0000000000000000     
  0.21249999999999999       0.96250000000000002        0.0000000000000000     
  0.16875000000000001       0.95625000000000004        0.0000000000000000     
   6.2500000000000000E-002  0.75000000000000000        0.0000000000000000     
  0.12500000000000000       0.75000000000000000        0.0000000000000000     
  0.12500000000000000       0.81250000000000000        0.0000000000000000     
   3.7499999999999999E-002  0.78749999999999998        0.0000000000000000     
   8.1250000000000003E-002  0.79374999999999996        0.0000000000000000     
   8.7499999999999994E-002  0.83750000000000002        0.0000000000000000     
   4.3749999999999997E-002  0.83125000000000004        0.0000000000000000     
  0.18750000000000000       0.75000000000000000        0.0000000000000000     
  0.25000000000000000       0.75000000000000000        0.0000000000000000     
  0.25000000000000000       0.81250000000000000        0.0000000000000000     
  0.16250000000000001       0.78749999999999998        0.0000000000000000     
  0.20624999999999999       0.79374999999999996        0.0000000000000000     
  0.21249999999999999       0.83750000000000002        0.0000000000000000     
  0.16875000000000001       0.83125000000000004        0.0000000000000000     
  0.31250000000000000       0.87500000000000000        0.0000000000000000     
  0.37500000000000000       0.87500000000000000        0.0000000000000000     
  0.37500000000000000       0.93750000000000000        0.0000000000000000     
  0.28749999999999998       0.91249999999999998        0.0000000000000000     
  0.33124999999999999       0.91874999999999996        0.0000000000000000     
  0.33750000000000002       0.96250000000000002        0.0000000000000000     
  0.29375000000000001       0.95625000000000004        0.0000000000000000     
  0.43750000000000000       0.87500000000000000        0.0000000000000000     
  0.50000000000000000       0.87500000000000000        0.0000000000000000     
  0.50000000000000000       0.93750000000000000        0.0000000000000000     
  0.41249999999999998       0.91249999999999998        0.0000000000000000     
  0.45624999999999999       0.91874999999999996        0.0000000000000000     
  0.46250000000000002       0.96250000000000002        0.0000000000000000     
  0.41875000000000001       0.95625000000000004        0.0000000000000000     
  0.31250000000000000       0.75000000000000000        0.0000000000000000     
  0.37500000000000000       0.75000000000000000        0.0000000000000000     
  0.37500000000000000       0.81250000000000000        0.0000000000000000     
  0.28749999999999998       0.78749999999999998        0.0000000000000000     
  0.33124999999999999       0.79374999999999996        0.0000000000000000     
  0.33750000000000002       0.83750000000000002        0.0000000000000000     
  0.29375000000000001       0.83125000000000004        0.0000000000000000     
  0.43750000000000000       0.75000000000000000        0.0000000000000000     
  0.50000000000000000       0.75000000000000000        0.0000000000000000     
  0.50000000000000000       0.81250000000000000        0.0000000000000000     
  0.41249999999999998       0.78749999999999998        0.0000000000000000     
  0.45624999999999999       0.79374999999999996        0.0000000000000000     
  0.46250000000000002       0.83750000000000002        0.0000000000000000     
  0.41875000000000001       0.83125000000000004        0.0000000000000000     
   6.2500000000000000E-002  0.62500000000000000        0.0000000000000000     
  0.12500000000000000       0.62500000000000000        0.0000000000000000     
  0.12500000000000000       0.68750000000000000        0.0000000000000000     
   3.7499999999999999E-002  0.66249999999999998        0.0000000000000000     
   8.1250000000000003E-002  0.66874999999999996        0.0000000000000000     
   8.7499999999999994E-002  0.71250000000000002        0.0000000000000000     
   4.3749999999999997E-002  0.70625000000000004        0.0000000000000000     
  0.18750000000000000       0.62500000000000000        0.0000000000000000     
  0.25000000000000000       0.62500000000000000        0.0000000000000000     
  0.25000000000000000       0.68750000000000000        0.0000000000000000     
  0.16250000000000001       0.66249999999999998        0.0000000000000000     
  0.20624999999999999       0.66874999999999996        0.0000000000000000     
  0.21249999999999999       0.71250000000000002        0.0000000000000000     
  0.16875000000000001       0.70625000000000004        0.0000000000000000     
   6.2500000000000000E-002  0.50000000000000000        0.0000000000000000     
  0.12500000000000000       0.50000000000000000        0.0000000000000000     
  0.12500000000000000       0.56250000000000000        0.0000000000000000     
   3.7499999999999999E-002  0.53749999999999998        0.0000000000000000     
   8.1250000000000003E-002  0.54374999999999996        0.0000000000000000     
   8.7499999999999994E-002  0.58750000000000002        0.0000000000000000     
   4.3749999999999997E-002  0.58125000000000004        0.0000000000000000     
  0.18750000000000000       0.50000000000000000        0.0000000000000000     
  0.25000000000000000       0.50000000000000000        0.0000000000000000     
  0.25000000000000000       0.56250000000000000        0.0000000000000000     
  0.16250000000000001       0.53749999999999998        0.0000000000000000     
  0.20624999999999999       0.54374999999999996        0.0000000000000000     
  0.21249999999999999       0.58750000000000002        0.0000000000000000     
  0.16875000000000001       0.58125000000000004        0.0000000000000000     
  0.31250000000000000       0.62500000000000000        0.0000000000000000     
  0.37500000000000000       0.62500000000000000        0.0000000000000000     
  0.37500000000000000       0.68750000000000000        0.0000000000000000     
  0.28749999999999998       0.66249999999999998        0.0000000000000000     
  0.33124999999999999       0.66874999999999996        0.0000000000000000     
  0.33750000000000002       0.71250000000000002        0.0000000000000000     
  0.29375000000000001       0.70625000000000004        0.0000000000000000     
  0.43750000000000000       0.62500000000000000        0.0000000000000000     
  0.50000000000000000       0.62500000000000000        0.0000000000000000     
  0.50000000000000000       0.68750000000000000        0.0000000000000000     
  0.41249999999999998       0.66249999999999998        0.0000000000000000     
  0.45624999999999999       0.66874999999999996        0.0000000000000000     
  0.46250000000000002       0.71250000000000002        0.0000000000000000     
  0.41875000000000001       0.70625000000000004        0.0000000000000000     
  0.31250000000000000       0.50000000000000000        0.0000000000000000     
  0.37500000000000000       0.50000000000000000        0.0000000000000000     
  0.37500000000000000       0.56250000000000000        0.0000000000000000     
  0.28749999999999998       0.53749999999999998        0.0000000000000000     
  0.33124999999999999       0.54374999999999996        0.0000000000000000     
  0.33750000000000002       0.58750000000000002        0.0000000000000000     
  0.29375000000000001       0.58125000000000004        0.0000000000000000     
  0.43750000000000000       0.50000000000000000        0.0000000000000000     
  0.50000000000000000       0.50000000000000000        0.0000000000000000     
  0.50000000000000000       0.56250000000000000        0.0000000000000000     
  0.41249999999999998       0.53749999999999998        0.0000000000000000     
  0.45624999999999999       0.54374999999999996        0.0000000000000000     
  0.46250000000000002       0.58750000000000002        0.0000000000000000     
  0.41875000000000001       0.58125000000000004        0.0000000000000000     
  0.56250000000000000       0.87500000000000000        0.0000000000000000     
  0.62500000000000000       0.87500000000000000        0.0000000000000000     
  0.62500000000000000       0.93750000000000000        0.0000000000000000     
  0.53749999999999998       0.91249999999999998        0.0000000000000000     
  0.58125000000000004       0.91874999999999996        0.0000000000000000     
  0.58750000000000002       0.96250000000000002        0.0000000000000000     
  0.54374999999999996       0.95625000000000004        0.0000000000000000     
  0.68750000000000000       0.87500000000000000        0.0000000000000000     
  0.75000000000000000       0.87500000000000000        0.0000000000000000     
  0.75000000000000000       0.93750000000000000        0.0000000000000000     
  0.66249999999999998       0.91249999999999998        0.0000000000000000     
  0.70625000000000004       0.91874999999999996        0.0000000000000000     
  0.71250000000000002       0.96250000000000002        0.0000000000000000     
[...]
 CELL_DATA         896
 SCALARS Cells_density float
 LOOKUP_TABLE default
    0.98996686297891778317E+00
    0.98996561483804734749E+00
    0.98995841075465518255E+00
    0.98995837102331629698E+00
    0.98996563774989243534E+00
    0.98996695079902752301E+00
    0.98997121214100880504E+00
    0.98997266507743042485E+00
    0.98997477120652055405E+00
    0.98997476990708199729E+00
    0.98997268127695070561E+00
    0.98997122961450334522E+00
    0.98996931804513099706E+00
    0.98996930500055702051E+00
    0.98993374459289851242E+00
    0.98992982989511202341E+00
    0.98989977629394654279E+00
    0.98990653455045007902E+00
    0.98993251232106227455E+00
    0.98993736066101278848E+00
    0.98994733412228674840E+00
    0.98995278659098473462E+00
    0.98996159094579139204E+00
    0.98996371035566943508E+00
    0.98995525288171948297E+00
    0.98995283552424950813E+00
    0.98994496349670957347E+00
    0.98994497988348639783E+00
    0.98993727353898741672E+00
    0.98993249108271519354E+00
    0.98990657855720154412E+00
    0.98989974425428728377E+00
    0.98992988938212667094E+00
    0.98993390298643368919E+00
    0.98995277630641542732E+00
    0.98995524141095436743E+00
    0.98996373264620296517E+00
    0.98996158319550076055E+00
    0.98995280329291879262E+00
    0.98994735218965557166E+00
    0.98994499513466127638E+00
    0.98994494802266930211E+00
    0.98977465360942906702E+00
    0.98970386886367656132E+00
    0.98943526634104239648E+00
    0.98943522672966077725E+00
    0.98970392835938481024E+00
    0.98977481529747912692E+00
    0.98987247812323420071E+00
    0.98987729523112000241E+00
    0.98992249957128963800E+00
    0.98992251737811765011E+00
    0.98987734619052136775E+00
    0.98987254387684531221E+00
    0.98981382394668948610E+00
    0.98981379882240172474E+00
    0.98982113539835303584E+00
    0.98983540257517654837E+00
    0.98975900598287769316E+00
    0.98980804328288629623E+00
    0.98987289948962020603E+00
    0.98989691390013356820E+00
    0.98991239067719594136E+00
    0.98991535281331621832E+00
    0.98992932574557657155E+00
    0.98993113182368130953E+00
    0.98990831819341418285E+00
    0.98989181659515046441E+00
    0.98988777050693277371E+00
    0.98989408461169869913E+00
    0.98964184077230754610E+00
    0.98972849243212235315E+00
    0.98963565770908235031E+00
    0.98974111573136969167E+00
    0.98983028982584830846E+00
    0.98987400392206115196E+00
    0.98988751553716347598E+00
    0.98988117291435240297E+00
    0.98989553331790613999E+00
    0.98989134321113203541E+00
    0.98984656911882273889E+00
    0.98978951471866649658E+00
    0.98982723206252720693E+00
    0.98984605516372903278E+00
    0.98803816969259328218E+00
    0.98814593494737090751E+00
    0.98620133422414435476E+00
    0.98748116966007781770E+00
    0.98885247904405837449E+00
    0.98936016739159493572E+00
    0.98965524010359440243E+00
    0.98958625814642564578E+00
    0.98976342569137065741E+00
    0.98972708347638771453E+00
    0.98941386014607357602E+00
    0.98919952885416351229E+00
    0.98912470164417132246E+00
    0.98923030222389551902E+00
    0.98073993206415255308E+00
    0.98477586655247462133E+00
    0.98057487774740048625E+00
    0.98554885285786086868E+00
    0.98798345513765273296E+00
    0.98906954990745543643E+00
    0.98945808352310327116E+00
    0.98919868453173021017E+00
    0.98949093724071879308E+00
    0.98929768935547235387E+00
    0.98831283670837133393E+00
    0.98698051520407226178E+00
    0.98795988973658432908E+00
    0.98838009011037308849E+00
    0.98989682642115306432E+00
    0.98987287830404180333E+00
    0.98980808792298557997E+00
    0.98975897311863580974E+00
    0.98983544333125506043E+00
    0.98982128226628707246E+00
    0.98989175775063908969E+00
    0.98990830702102861061E+00
    0.98993114944189330995E+00
    0.98992931297309172400E+00
    0.98991536974440830221E+00
    0.98991240887074682941E+00
    0.98989409485106771847E+00
    0.98988774989828609563E+00
    0.98935999434656729523E+00
    0.98885241763765463485E+00
    0.98748122583406605646E+00
    0.98620126984172429285E+00
    0.98814599351911469594E+00
    0.98803836735075001307E+00
    0.98919945643281392833E+00
    0.98941380540133283539E+00
    0.98972708770911399512E+00
    0.98976346408575366365E+00
    0.98958629772727313423E+00
    0.98965529949193453696E+00
    0.98923032582773029464E+00
    0.98912467275401905198E+00
    0.98987395517507981157E+00
    0.98983026865029044572E+00
    0.98974116075408768989E+00
    0.98963562413306427334E+00
    0.98972853419903239480E+00
    0.98964199293524501844E+00
    0.98978945512008043028E+00
    0.98984655776685614992E+00
    0.98989136238452846150E+00
    0.98989552185131157724E+00
    0.98988118576289008121E+00
    0.98988753072102841912E+00
    0.98984606546876341415E+00
    0.98982721116418337370E+00
    0.98906942955196452960E+00
    0.98798339191505291090E+00
    0.98554892258930459903E+00
    0.98057477058644559875E+00
    0.98477595660796091170E+00
    0.98074034414130040194E+00
    0.98698042581370859505E+00
    0.98831277251052052080E+00
    0.98929769164352343580E+00
    0.98949097491602477916E+00
    0.98919872500404859572E+00
    0.98945814534644693783E+00
    0.98838011350975130132E+00
    0.98795985278281406305E+00
    0.95594919728607952170E+00
    0.43840222505240875051E-01
    0.41742961249836819070E-03
    0.41742702273343004716E-03
    0.43839778367186166275E-01
    0.95595020907043215530E+00
    0.98232116760419618817E+00
    0.97184667905027621870E+00
    0.98704207452423786684E+00
    0.98704206867330812614E+00
    0.97184676269317271657E+00
    0.98232131428009328289E+00
    0.30808035344729152449E-01
    0.30808054987044610623E-01
    0.10034520390279098867E-01
    0.94221726446570685382E-02
    0.15568313912863909754E-01
    0.10014232940946046421E-01
    0.17317318192495917417E+00
    0.89886473477730199910E+00
    0.96298398128348394742E+00
    0.83354532605680198287E+00
    0.97249568687163501224E+00
    0.95547526599147514226E+00
    0.10113327730001796245E+00
    0.31641506117376472056E-02
    0.58098951623409113634E-02
    0.20168470469843824411E+00
    0.89886282806643036380E+00
    0.17317486562507375392E+00
    0.10014236274482717082E-01
    0.15568313002655325902E-01
    0.94221720776288889199E-02
    0.10034539307183159423E-01
    0.31641606016759855728E-02
    0.10113310460093266618E+00
    0.95547549216127602989E+00
    0.97249556667195813375E+00
    0.83354543592257290818E+00
    0.96298435863921116873E+00
    0.20168466494105916076E+00
    0.58098926486089379206E-02
    0.23085454950527706935E-01
    0.21643971558930739929E-01
    0.14076019248978877824E-01
    0.14076033750028485447E-01
    0.21643979215116366382E-01
    0.23085466334453619980E-01
    0.19704277865364543121E-01
    0.20826160683457283634E-01
    0.13979734870909050343E-01
    0.13979752326589071562E-01
    0.20826160973652613206E-01
    0.19704271452886557014E-01
    0.23359251789521532500E-01
    0.23359254648093016188E-01
    0.98958893130079339517E+00
    0.98972860086056191342E+00
    0.98968588912908872501E+00
    0.98978914120433103552E+00
    0.98985166618117625958E+00
    0.98989374661388607191E+00
    0.98989707936197057769E+00
    0.98988251933838888874E+00
    0.98988619965439816895E+00
    0.98987433840593197498E+00
    0.98982664118801977349E+00
    0.98973996990087953485E+00
    0.98982490380347742942E+00
    0.98984986723902290695E+00
    0.98973609648754645729E+00
    0.98983608187773064468E+00
    0.98984093995968669422E+00
    0.98989057746661301973E+00
    0.98991132787476843191E+00
    0.98993421596133612805E+00
    0.98993091975062486032E+00
    0.98991756454380630537E+00
    0.98991239753833837334E+00
    0.98989987986586269741E+00
    0.98987230348071419961E+00
    0.98980570790178201701E+00
    0.98988382297366583895E+00
    0.98990076595114140368E+00
    0.97680911963935468378E+00
    0.98479891612938630363E+00
    0.98317226250780087593E+00
    0.98695429966719550041E+00
    0.98844373011734765200E+00
    0.98932292947277522543E+00
    0.98954157773458273351E+00
    0.98921686949077991535E+00
    0.98940693428535653187E+00
    0.98907776923869217267E+00
    0.98787988327800624333E+00
    0.98551535745174134728E+00
    0.98788745455058402101E+00
    0.98845220697239222218E+00
    0.98542515811972342110E+00
    0.98813670374624862358E+00
    0.98837094265085001510E+00
    0.98918325176628441042E+00
    0.98946679194669795443E+00
    0.98974834553668444848E+00
    0.98978730941272441424E+00
    0.98961182700315208915E+00
    0.98963231423886266480E+00
    0.98939447569363914159E+00
    0.98883504768810759344E+00
    0.98740729161489992904E+00
    0.98904207575909441896E+00
    0.98932231550341553916E+00
    0.98989537957866824414E+00
    0.98993041393513070414E+00
    0.98993939765950533793E+00
    0.98995299851324114471E+00
    0.98995708448293906478E+00
    0.98996576309308004227E+00
    0.98996284417273472389E+00
    0.98995444652189790169E+00
    0.98994833478371202506E+00
    0.98994048019068836552E+00
    0.98993293567430207247E+00
    0.98990501203228020710E+00
    0.98994205686377412245E+00
    0.98994910106743083666E+00
    0.98995812276162509225E+00
    0.98996675541287793010E+00
    0.98996906473979584540E+00
    0.98997214562514124214E+00
    0.98997361965047903087E+00
    0.98997569952957209516E+00
    0.98997569466124002435E+00
    0.98997359859410960503E+00
    0.98997213957334928569E+00
    0.98996893014407028044E+00
    0.98996673229716325437E+00
    0.98995823142167282960E+00
    0.98997009003867186827E+00
    0.98997225410749178920E+00
    0.98940643352135715372E+00
    0.98970455195904627477E+00
    0.98979478391752917510E+00
    0.98986823761006192957E+00
    0.98988525793278425713E+00
    0.98992843844556943633E+00
    0.98992839150375999679E+00
    0.98988521141453178487E+00
    0.98986819250898239186E+00
    0.98979466362092605181E+00
    0.98970455980231386572E+00
    0.98940655554437129116E+00
    0.98979199829014141709E+00
    0.98984254638370250401E+00
    0.98990487304600394136E+00
    0.98993296117770201992E+00
    0.98994061678617539801E+00
    0.98994834312419588418E+00
    0.98995447568204320010E+00
    0.98996287352169509699E+00
    0.98996579361930425733E+00
    0.98995708949615746075E+00
    0.98995296051756120903E+00
    0.98993928150079402162E+00
    0.98993042265094510768E+00
    0.98989546448493836994E+00
    0.98994205636221510591E+00
    0.98994910290359217075E+00
    0.17306313553373323111E-01
    0.99215797510915481466E-02
    0.74135971812161740799E-02
    0.19294026326508507442E-02
    0.87276425085804090753E-01
    0.95634792251994704682E+00
    0.97369983415474503641E+00
    0.86169205245282542993E+00
    0.96357351660574608321E+00
    0.89700410551115572488E+00
    0.19766662166412918289E+00
    0.10331301668635654856E-01
    0.58719565312309440069E-02
    0.16904270806761453882E+00
    0.23919954160228482825E-03
    0.50402985816692891241E-01
    0.95895091729457393459E+00
    0.98211994787677470153E+00
    0.97435181682078686460E+00
    0.98742938714919215037E+00
    0.98742929720613203948E+00
    0.97435171338679882336E+00
    0.98211989337975402758E+00
    0.95895052885786002950E+00
    0.50403180333072651609E-01
    0.23920059086451702268E-03
    0.35282719057736535969E-03
    0.46957454863184734661E-01
    0.14364983484210386636E-01
    0.21840449557768638195E-01
    0.23151653842332631933E-01
    0.20872087733142856425E-01
    0.20659702268462563218E-01
    0.12524233890105707090E-01
    0.12524237726723891698E-01
    0.20659702303433120918E-01
    0.20872073528852296692E-01
    0.23151657243960746535E-01
    0.21840448717964280195E-01
    0.14364990991801067713E-01
    0.23305986609171734647E-01
    0.22981975829400556888E-01
    0.10331300043367266234E-01
    0.19766595747027382313E+00
    0.89700489455441589914E+00
    0.96357350886402348689E+00
    0.86169210973523924224E+00
    0.97370021657228811307E+00
    0.95634723200727089765E+00
    0.87277033418499308515E-01
    0.19294042364845962433E-02
    0.74136018628116941848E-02
    0.99215884882945543782E-02
    0.17306325715128606513E-01
    0.58719518969450826967E-02
    0.16904271181336785745E+00
    0.98740709392340364481E+00
    0.98883503081905688159E+00
    0.98939460079020435934E+00
    0.98963236224494544047E+00
    0.98961187791681770598E+00
    0.98978737182209142187E+00
    0.98974830953587222826E+00
    0.98946674366737985551E+00
    0.98918320643354895605E+00
    0.98837080565011281585E+00
    0.98813671650309875538E+00
    0.98542533618416217056E+00
    0.98904207597536120122E+00
    0.98932231431538208977E+00
    0.98980556688370258112E+00
    0.98987232885206843935E+00
    0.98990001718638609418E+00
    0.98991240603861641034E+00
    0.98991759410748358938E+00
    0.98993094971354267386E+00
    0.98993424749916791860E+00
    0.98991133344089499158E+00
    0.98989054042504387443E+00
    0.98984082330910672098E+00
    0.98983609102897474052E+00
    0.98973618515561401221E+00
    0.98988382272072472645E+00
    0.98990076804836235613E+00
    0.98551514441272758393E+00
    0.98787983238392451657E+00
    0.98907789766919673724E+00
    0.98940698629920220686E+00
    0.98921692632695668035E+00
    0.98954164465480032309E+00
    0.98932288904392728934E+00
    0.98844367550478284823E+00
    0.98695424789039343239E+00
    0.98317209210517020335E+00
    0.98479899719634145239E+00
    0.97680951809863691970E+00
    0.98788743280983615236E+00
    0.98845219866728573077E+00
    0.98973984106789647530E+00
    0.98982666093006155261E+00
    0.98987447601129097130E+00
    0.98988621081407868196E+00
    0.98988255302121852530E+00
    0.98989711519130341166E+00
    0.98989378390818627551E+00
    0.98985167272557283979E+00
    0.98978910351055560124E+00
    0.98968579247684929090E+00
    0.98972864416286765454E+00
    0.98958902368561152407E+00
    0.98982489851762212041E+00
    0.98984987030221949222E+00
    0.98989369463209353484E+00
    0.98985163449734503427E+00
    0.98978917529736243353E+00
    0.98968585603552527985E+00
    0.98972864241387004114E+00
    0.98958908474709461611E+00
    0.98973991019223872545E+00
    0.98982663501688572527E+00
    0.98987439391318243764E+00
    0.98988619134346766959E+00
    0.98988253223509770073E+00
    0.98989709129493530515E+00
    0.98984986734390312257E+00
    0.98982488815073221833E+00
    0.98932281287169132611E+00
    0.98844364050231114938E+00
    0.98695435672583919917E+00
    0.98317218068652434404E+00
    0.98479900234607564702E+00
    0.97680963804556530938E+00
    0.98551526893580476685E+00
    0.98787981533305957438E+00
    0.98907781767145908081E+00
    0.98940697174708858164E+00
    0.98921691061593397531E+00
    0.98954163851860255097E+00
    0.98845220025926516794E+00
    0.98788742317309685692E+00
    0.98993415102921555881E+00
    0.98991129463970040092E+00
    0.98989061091682406524E+00
    0.98984089023989729750E+00
    0.98983609560561969243E+00
    0.98973624547128757900E+00
    0.98980563578521818524E+00
    0.98987230173561735480E+00
    0.98989993523080765936E+00
    0.98991239179793666381E+00
    0.98991758127029394476E+00
    0.98993091841215874460E+00
    0.98990076455947129119E+00
    0.98988381150440929446E+00
    0.98974823827194235992E+00
    0.98946670747473652874E+00
    0.98918328728132343119E+00
    0.98837087936375367381E+00
    0.98813672341393410381E+00
    0.98542542457449378013E+00
    0.98740719649901886878E+00
    0.98883500780522159967E+00
    0.98939452388694559826E+00
    0.98963235039655061964E+00
    0.98961186461716776908E+00
    0.98978736755905583067E+00
    0.98932231531195413687E+00
    0.98904206607649547411E+00
    0.95634694149525922846E+00
    0.87277284766295190610E-01
    0.19294046721917733952E-02
    0.74136012678903380826E-02
    0.99215864425936106663E-02
    0.17306321964994750284E-01
    0.10331305692157672152E-01
    0.19766672180460120867E+00
    0.89700411981166294773E+00
    0.96357326749957805667E+00
    0.86169230146051656316E+00
    0.97370008717599521031E+00
    0.16904255305696452849E+00
    0.58719594815660920706E-02
    0.12524234389054986552E-01
    0.20659704060390665648E-01
    0.20872082900422212620E-01
    0.23151659389049335930E-01
    0.21840449375588873865E-01
    0.14364991452432147867E-01
    0.14364988922752276040E-01
    0.21840446823192655873E-01
    0.23151641770474230136E-01
    0.20872081939051743277E-01
    0.20659700408928883403E-01
    0.12524232902789079330E-01
    0.22981973962645438347E-01
    0.23305988086350218347E-01
    0.98742921901035329846E+00
    0.97435169871758919857E+00
    0.98212002317779756311E+00
    0.95895067892385565944E+00
    0.50403069454856494480E-01
    0.23919969613026559872E-03
    0.23920047353052979701E-03
    0.50403126524043419254E-01
    0.95895056325705996247E+00
    0.98211988520911031042E+00
    0.97435180075966010271E+00
    0.98742937129980334898E+00
    0.46957449669803190406E-01
    0.35282714051887377384E-03
    0.97369956578485439280E+00
    0.86169227566963713105E+00
    0.96357386098342800995E+00
    0.89700416244363678775E+00
    0.19766651328948181554E+00
    0.10331303068814511395E-01
    0.17306323990197648027E-01
    0.99215847031279523482E-02
    0.74135848002780920310E-02
    0.19293979511885652085E-02
    0.87276475719484020166E-01
    0.95634790057494034610E+00
    0.16904254375765634388E+00
    0.58719572843688467439E-02
    0.98996569882967411225E+00
    0.98995705161625935364E+00
    0.98995303191842176638E+00
    0.98993934900177515956E+00
    0.98993042749039772410E+00
    0.98989552401174141227E+00
    0.98990494079352253642E+00
    0.98993293414434402333E+00
    0.98994053533839543313E+00
    0.98994832910759822386E+00
    0.98995446325808966748E+00
    0.98996284302679915523E+00
    0.98994909984199086495E+00
    0.98994204557113474330E+00
    0.98992832232306204876E+00
    0.98988517614030724356E+00
    0.98986826617686596297E+00
    0.98979473252129113181E+00
    0.98970456522769456598E+00
    0.98940659715330936397E+00
    0.98940648629630545408E+00
    0.98970452688963495014E+00
    0.98979471190544698889E+00
    0.98986823088880759869E+00
    0.98988525069980315418E+00
    0.98992843448030232167E+00
    0.98984254696810802798E+00
    0.98979198952831359826E+00
    0.98997569501675586334E+00
    0.98997359162730247384E+00
    0.98997214951396950156E+00
    0.98996900526464082226E+00
    0.98996677144260758485E+00
    0.98995828969411092668E+00
    0.98995818384236067278E+00
    0.98996673169329452158E+00
    0.98996898568341251679E+00
    0.98997213478599155323E+00
    0.98997361770652692048E+00
    0.98997569723201173097E+00
    0.98997225450406878267E+00
    0.98997008035860634134E+00
    0.98996287933798920999E+00
    0.98995444990364223070E+00
    0.98994834815096877101E+00
    0.98994055755451060286E+00
    0.98993297741453878391E+00
    0.98990506101320652199E+00
    0.98989543225654308412E+00
    0.98993039370005408983E+00
    0.98993933118405941229E+00
    0.98995300098973171288E+00
    0.98995713716897071333E+00
    0.98996586182151802280E+00
    0.98994911518499784098E+00
    0.98994205217354036552E+00
    0.98978722151055342771E+00
    0.98961181617254845300E+00
    0.98963240535640961681E+00
    0.98939454606254184643E+00
    0.98883504962823698392E+00
    0.98740734605596558460E+00
    0.98542525922239621039E+00
    0.98813667389517223505E+00
    0.98837085283993442175E+00
    0.98918324374678767708E+00
    0.98946678541575339150E+00
    0.98974832360015174704E+00
    0.98932231691322869427E+00
    0.98904206635303704154E+00
    0.98954148610215719728E+00
    0.98921686942446906965E+00
    0.98940703591340262157E+00
    0.98907784018873290410E+00
    0.98787988549919891756E+00
    0.98551535482366769969E+00
    0.97680933032588634912E+00
    0.98479893290056663702E+00
    0.98317214525524299074E+00
    0.98695428817672015143E+00
    0.98844372368456689948E+00
    0.98932290830187330499E+00