# vtk DataFile Version 3.0
LAPLACIEN  2D
ASCII
DATASET UNSTRUCTURED_GRID
 POINTS         481  float
   6.2500000000000000E-002  0.87500000000000000        0.0000000000000000     
  0.12500000000000000       0.87500000000000000        0.0000000000000000     
  0.12500000000000000       0.93750000000000000        0.0000000000000000     
   3.7499999999999999E-002  0.91249999999999998        0.0000000000000000     
   8.1250000000000003E-002  0.91874999999999996        0.0000000000000000     
   8.7499999999999994E-002  0.96250000000000002        0.0000000000000000     
   4.3749999999999997E-002  0.95625000000000004        0.0000000000000000     
  0.18750000000000000       0.87500000000000000        0.0000000000000000     
  0.25000000000000000       0.87500000000000000        0.0000000000000000     
  0.25000000000000000       0.93750000000000000        0.0000000000000000     
  0.16250000000000001       0.91249999999999998        0.0000000000000000     
  0.20624999999999999       0.91874999999999996        0.0000000000000000     
  0.21249999999999999       0.96250000000000002        0.0000000000000000     
  0.16875000000000001       0.95625000000000004        0.0000000000000000     
   6.2500000000000000E-002  0.75000000000000000        0.0000000000000000     
  0.12500000000000000       0.75000000000000000        0.0000000000000000     
  0.12500000000000000       0.81250000000000000        0.0000000000000000     
   3.7499999999999999E-002  0.78749999999999998        0.0000000000000000     
   8.1250000000000003E-002  0.79374999999999996        0.0000000000000000     
   8.7499999999999994E-002  0.83750000000000002        0.0000000000000000     
   4.3749999999999997E-002  0.83125000000000004        0.0000000000000000     
  0.18750000000000000       0.75000000000000000        0.0000000000000000     
  0.25000000000000000       0.75000000000000000        0.0000000000000000     
  0.25000000000000000       0.81250000000000000        0.0000000000000000     
  0.16250000000000001       0.78749999999999998        0.0000000000000000     
  0.20624999999999999       0.79374999999999996        0.0000000000000000     
  0.21249999999999999       0.83750000000000002        0.0000000000000000     
  0.16875000000000001       0.83125000000000004        0.0000000000000000     
  0.31250000000000000       0.87500000000000000        0.0000000000000000     
  0.37500000000000000       0.87500000000000000        0.0000000000000000     
  0.37500000000000000       0.93750000000000000        0.0000000000000000     
  0.28749999999999998       0.91249999999999998        0.0000000000000000     
  0.33124999999999999       0.91874999999999996        0.0000000000000000     
  0.33750000000000002       0.96250000000000002        0.0000000000000000     
  0.29375000000000001       0.95625000000000004        0.0000000000000000     
  0.43750000000000000       0.87500000000000000        0.0000000000000000     
  0.50000000000000000       0.87500000000000000        0.0000000000000000     
  0.50000000000000000       0.93750000000000000        0.0000000000000000     
  0.41249999999999998       0.91249999999999998        0.0000000000000000     
  0.45624999999999999       0.91874999999999996        0.0000000000000000     
  0.46250000000000002       0.96250000000000002        0.0000000000000000     
  0.41875000000000001       0.95625000000000004        0.0000000000000000     
  0.31250000000000000       0.75000000000000000        0.0000000000000000     
  0.37500000000000000       0.75000000000000000        0.0000000000000000     
  0.37500000000000000       0.81250000000000000        0.0000000000000000     
  0.28749999999999998       0.78749999999999998        0.0000000000000000     
  0.33124999999999999       0.79374999999999996        0.0000000000000000     
  0.33750000000000002       0.83750000000000002        0.0000000000000000     
  0.29375000000000001       0.83125000000000004        0.0000000000000000     
  0.43750000000000000       0.75000000000000000        0.0000000000000000     
  0.50000000000000000       0.75000000000000000        0.0000000000000000     
  0.50000000000000000       0.81250000000000000        0.0000000000000000     
  0.41249999999999998       0.78749999999999998        0.0000000000000000     
  0.45624999999999999       0.79374999999999996        0.0000000000000000     
  0.46250000000000002       0.83750000000000002        0.0000000000000000     
  0.41875000000000001       0.83125000000000004        0.0000000000000000     
   6.2500000000000000E-002  0.62500000000000000        0.0000000000000000     
  0.12500000000000000       0.62500000000000000        0.0000000000000000     
  0.12500000000000000       0.68750000000000000        0.0000000000000000     
   3.7499999999999999E-002  0.66249999999999998        0.0000000000000000     
   8.1250000000000003E-002  0.66874999999999996        0.0000000000000000     
   8.7499999999999994E-002  0.71250000000000002        0.0000000000000000     
   4.3749999999999997E-002  0.70625000000000004        0.0000000000000000     
  0.18750000000000000       0.62500000000000000        0.0000000000000000     
  0.25000000000000000       0.62500000000000000        0.0000000000000000     
  0.25000000000000000       0.68750000000000000        0.0000000000000000     
  0.16250000000000001       0.66249999999999998        0.0000000000000000     
  0.20624999999999999       0.66874999999999996        0.0000000000000000     
  0.21249999999999999       0.71250000000000002        0.0000000000000000     
  0.16875000000000001       0.70625000000000004        0.0000000000000000     
   6.2500000000000000E-002  0.50000000000000000        0.0000000000000000     
  0.12500000000000000       0.50000000000000000        0.0000000000000000     
  0.12500000000000000       0.56250000000000000        0.0000000000000000     
   3.7499999999999999E-002  0.53749999999999998        0.0000000000000000     
   8.1250000000000003E-002  0.54374999999999996        0.0000000000000000     
   8.7499999999999994E-002  0.58750000000000002        0.0000000000000000     
   4.3749999999999997E-002  0.58125000000000004        0.0000000000000000     
  0.18750000000000000       0.50000000000000000        0.0000000000000000     
  0.25000000000000000       0.50000000000000000        0.0000000000000000     
  0.25000000000000000       0.56250000000000000        0.0000000000000000     
  0.16250000000000001       0.53749999999999998        0.0000000000000000     
  0.20624999999999999       0.54374999999999996        0.0000000000000000     
  0.21249999999999999       0.58750000000000002        0.0000000000000000     
  0.16875000000000001       0.58125000000000004        0.0000000000000000     
  0.31250000000000000       0.62500000000000000        0.0000000000000000     
  0.37500000000000000       0.62500000000000000        0.0000000000000000     
  0.37500000000000000       0.68750000000000000        0.0000000000000000     
  0.28749999999999998       0.66249999999999998        0.0000000000000000     
  0.33124999999999999       0.66874999999999996        0.0000000000000000     
  0.33750000000000002       0.71250000000000002        0.0000000000000000     
  0.29375000000000001       0.70625000000000004        0.0000000000000000     
  0.43750000000000000       0.62500000000000000        0.0000000000000000     
  0.50000000000000000       0.62500000000000000        0.0000000000000000     
  0.50000000000000000       0.68750000000000000        0.0000000000000000     
  0.41249999999999998       0.66249999999999998        0.0000000000000000     
  0.45624999999999999       0.66874999999999996        0.0000000000000000     
  0.46250000000000002       0.71250000000000002        0.0000000000000000     
  0.41875000000000001       0.70625000000000004        0.0000000000000000     
  0.31250000000000000       0.50000000000000000        0.0000000000000000     
  0.37500000000000000       0.50000000000000000        0.0000000000000000     
  0.37500000000000000       0.56250000000000000        0.0000000000000000     
  0.28749999999999998       0.53749999999999998        0.0000000000000000     
  0.33124999999999999       0.54374999999999996        0.0000000000000000     
  0.33750000000000002       0.58750000000000002        0.0000000000000000     
  0.29375000000000001       0.58125000000000004        0.0000000000000000     
  0.43750000000000000       0.50000000000000000        0.0000000000000000     
  0.50000000000000000       0.50000000000000000        0.0000000000000000     
  0.50000000000000000       0.56250000000000000        0.0000000000000000     
  0.41249999999999998       0.53749999999999998        0.0000000000000000     
  0.45624999999999999       0.54374999999999996        0.0000000000000000     
  0.46250000000000002       0.58750000000000002        0.0000000000000000     
  0.41875000000000001       0.58125000000000004        0.0000000000000000     
  0.56250000000000000       0.87500000000000000        0.0000000000000000     
  0.62500000000000000       0.87500000000000000        0.0000000000000000     
  0.62500000000000000       0.93750000000000000        0.0000000000000000     
  0.53749999999999998       0.91249999999999998        0.0000000000000000     
  0.58125000000000004       0.91874999999999996        0.0000000000000000     
  0.58750000000000002       0.96250000000000002        0.0000000000000000     
  0.54374999999999996       0.95625000000000004        0.0000000000000000     
  0.68750000000000000       0.87500000000000000        0.0000000000000000     
  0.75000000000000000       0.87500000000000000        0.0000000000000000     
  0.75000000000000000       0.93750000000000000        0.0000000000000000     
  0.66249999999999998       0.91249999999999998        0.0000000000000000     
  0.70625000000000004       0.91874999999999996        0.0000000000000000     
  0.71250000000000002       0.96250000000000002        0.0000000000000000     
[...]
 CELL_DATA         896
 SCALARS Cells_density float
 LOOKUP_TABLE default
    0.98998793558412689908E+00
    0.98998572669885798181E+00
    0.98997653555437759021E+00
    0.98997498753370960500E+00
    0.98998481545289973571E+00
    0.98998897491325343889E+00
    0.98998801371067524091E+00
    0.98999198433481971904E+00
    0.98999506281828741905E+00
    0.98999396961000363238E+00
    0.98999148075336196317E+00
    0.98998898314051919645E+00
    0.98999615478391622680E+00
    0.98999598561083568260E+00
    0.98993904674735555549E+00
    0.98993213551370407011E+00
    0.98988215488485042926E+00
    0.98989394900674421152E+00
    0.98993828144339068853E+00
    0.98994993061560254688E+00
    0.98995865792596682287E+00
    0.98996781932146427074E+00
    0.98997720119720400422E+00
    0.98998369660918883461E+00
    0.98996949068998019161E+00
    0.98996792489014906469E+00
    0.98996250449057698884E+00
    0.98996319532167864619E+00
    0.98994861568182679346E+00
    0.98993868622451308692E+00
    0.98989579726369125723E+00
    0.98988087999581919618E+00
    0.98993165171299357663E+00
    0.98993907942039649495E+00
    0.98996762763203471902E+00
    0.98997029036901540433E+00
    0.98998429595087245048E+00
    0.98997582210889467635E+00
    0.98996767354903569824E+00
    0.98995990137356537630E+00
    0.98996331593492015166E+00
    0.98996261086191472689E+00
    0.98965138628344861971E+00
    0.98951320100335493635E+00
    0.98898631444894158360E+00
    0.98898461317614994037E+00
    0.98951270388573020487E+00
    0.98965143358238072402E+00
    0.98983139742395065408E+00
    0.98983768769826285805E+00
    0.98992059042017488402E+00
    0.98991846335504363186E+00
    0.98983679218653275456E+00
    0.98983170046323087909E+00
    0.98972860437531318123E+00
    0.98972859551344560813E+00
    0.98974195653478391765E+00
    0.98977037761722197473E+00
    0.98962806628781185836E+00
    0.98972218987182969396E+00
    0.98984276326893860798E+00
    0.98988939100377248970E+00
    0.98990804248828445644E+00
    0.98991321531420939372E+00
    0.98993396284288015519E+00
    0.98993946666404786239E+00
    0.98989841074707551893E+00
    0.98986949391430745226E+00
    0.98987269147761902666E+00
    0.98988500984212746125E+00
    0.98940042466670896637E+00
    0.98957277331780046925E+00
    0.98939049000095158348E+00
    0.98959914957014816217E+00
    0.98976997840934843875E+00
    0.98985292472807429043E+00
    0.98987085613937020323E+00
    0.98986096111424481947E+00
    0.98988392904051869525E+00
    0.98987924218224077055E+00
    0.98979546125575412763E+00
    0.98968897859834459307E+00
    0.98976926244527407839E+00
    0.98980524643422673758E+00
    0.98585429846997396641E+00
    0.98606597333497048030E+00
    0.98068683196922268319E+00
    0.98446614010844202269E+00
    0.98770403645644400115E+00
    0.98882622513789797392E+00
    0.98942310434257785268E+00
    0.98928224639089512582E+00
    0.98963379238933257831E+00
    0.98956080620826525340E+00
    0.98892882938904291823E+00
    0.98849688811519664799E+00
    0.98834698315472135910E+00
    0.98855865541478027403E+00
    0.95584923215728689883E+00
    0.97523862003713579494E+00
    0.95308571422735055556E+00
    0.97874770886932782599E+00
    0.98554875206182779301E+00
    0.98820358246901329746E+00
    0.98902413417694268194E+00
    0.98847137224685310830E+00
    0.98909877090900244490E+00
    0.98870118164233355973E+00
    0.98639510498555693641E+00
    0.98305077849592348294E+00
    0.98566490806447659700E+00
    0.98660450443932323772E+00
    0.98988806804691886754E+00
    0.98984317289171463994E+00
    0.98972407003616891252E+00
    0.98962675247503151255E+00
    0.98976989701908935082E+00
    0.98974200215638563627E+00
    0.98986918820090941118E+00
    0.98989921453944462737E+00
    0.98994005246022209743E+00
    0.98993256123291539783E+00
    0.98991272222070136877E+00
    0.98990902661823232389E+00
    0.98988512618967050560E+00
    0.98987279239873260384E+00
    0.98882615061237477683E+00
    0.98770461441559553872E+00
    0.98446899434111001526E+00
    0.98068424272621346205E+00
    0.98606535928306349170E+00
    0.98585449411860426316E+00
    0.98849647976425880636E+00
    0.98892976903559848267E+00
    0.98956236160668265001E+00
    0.98963094823254027510E+00
    0.98928163554193815354E+00
    0.98942367648762308274E+00
    0.98855879490294584766E+00
    0.98834707357715090303E+00
    0.98985238545058729098E+00
    0.98977039165656166553E+00
    0.98960105287291899590E+00
    0.98938913693635011093E+00
    0.98957228490427939782E+00
    0.98940048610562725262E+00
    0.98968866426253365720E+00
    0.98979627194957531255E+00
    0.98987990495877042907E+00
    0.98988259357874130995E+00
    0.98986042437392207649E+00
    0.98987181319260275636E+00
    0.98980536420646958451E+00
    0.98976936378815205675E+00
    0.98820421449614526122E+00
    0.98554938813012149534E+00
    0.97875158941557782732E+00
    0.95308005137401452522E+00
    0.97523768172987412850E+00
    0.95585056318775829531E+00
    0.98305005749197293952E+00
    0.98639617102633403434E+00
    0.98870290217153433687E+00
    0.98909577032626927462E+00
    0.98847072648826783681E+00
    0.98902474852481381262E+00
    0.98660469226342983884E+00
    0.98566499533265583555E+00
    0.78793662972830158520E+00
    0.22881860966929448709E+00
    0.74939790979622325148E-02
    0.74938932871630812432E-02
    0.22880949983463130804E+00
    0.78793953157945939569E+00
    0.96229018269178689948E+00
    0.88688275704475194594E+00
    0.98306640352505958447E+00
    0.98306280007422441880E+00
    0.88688023983510710924E+00
    0.96229296470457892365E+00
    0.13389242896712791331E+00
    0.13389295865457059853E+00
    0.10073580244040723775E-01
    0.17417869999996823949E-01
    0.17047430158221531932E-01
    0.35254059632312345629E+00
    0.41878067431067578230E+00
    0.56506287545448485865E+00
    0.78843326004161928822E+00
    0.41366622932341079455E+00
    0.89811133874147142109E+00
    0.85160995988766097220E+00
    0.41358965470811298593E+00
    0.20031836773593540701E-01
    0.34866985885171908333E+00
    0.41664182240944735991E+00
    0.56506838850588814172E+00
    0.41874753921274360247E+00
    0.35257476676703064511E+00
    0.17048559884893343952E-01
    0.17417391583321280984E-01
    0.10073671785172877424E-01
    0.20024161051489602903E-01
    0.41359256735027177809E+00
    0.85164402760499979816E+00
    0.89808673060931387688E+00
    0.41365243076823771107E+00
    0.78844690316625132276E+00
    0.41669752167788287611E+00
    0.34863522593466705901E+00
    0.13236389949711466901E-01
    0.13608187733758452323E-01
    0.13983989553339239501E-01
    0.13984043188190733650E-01
    0.13608254510833925691E-01
    0.13236525140749437132E-01
    0.12499770722358079927E-01
    0.12301740053814258849E-01
    0.10727170047950877058E-01
    0.10727315425296099841E-01
    0.12301760582673791286E-01
    0.12499814206718798046E-01
    0.13219605014276838983E-01
    0.13219623446374340059E-01
    0.98929280356941207142E+00
    0.98957119145603600341E+00
    0.98948562131274764297E+00
    0.98968652696823222747E+00
    0.98980462457941831289E+00
    0.98988350363731891779E+00
    0.98988540693220639088E+00
    0.98986283945189712519E+00
    0.98986971037489257519E+00
    0.98985214133015908544E+00
    0.98976057503785563885E+00
    0.98959743907534591933E+00
    0.98976437149264440141E+00
    0.98980939181313676301E+00
    0.98958048627369321615E+00
    0.98976980720467222508E+00
    0.98977752261340623541E+00
    0.98986674958472598007E+00
    0.98990366496357640180E+00
    0.98994434230264061192E+00
    0.98993500498320607939E+00
    0.98991790167581972248E+00
    0.98990984438423612612E+00
    0.98989176438394022028E+00
    0.98984054037118607283E+00
    0.98971803289390913871E+00
    0.98986703114891549937E+00
    0.98989333445631566555E+00
    0.92632870812951007000E+00
    0.97505137161992450068E+00
    0.96804164610360066145E+00
    0.98293397087659861722E+00
    0.98670833181415640301E+00
    0.98874343129128205998E+00
    0.98919194080210604003E+00
    0.98850368397447008206E+00
    0.98892137429492088518E+00
    0.98821923994171745331E+00
    0.98524564099420541829E+00
    0.97844889471118545732E+00
    0.98540790912952624936E+00
    0.98675689193186932879E+00
    0.97775593961349638317E+00
    0.98602095796779143377E+00
    0.98663292944771929793E+00
    0.98845574330284047271E+00
    0.98903334026361267028E+00
    0.98959893876824922554E+00
    0.98967420363716940290E+00
    0.98932941239067184735E+00
    0.98937685556941490361E+00
    0.98888767170868485668E+00
    0.98765315463104474958E+00
    0.98418151798711284162E+00
    0.98814646617002566131E+00
    0.98873901386688800574E+00
    0.98987354344793898608E+00
    0.98993231624413746683E+00
    0.98994722593982453773E+00
    0.98996726151994329790E+00
    0.98997192701522607194E+00
    0.98998696115295214959E+00
    0.98997754970318785350E+00
    0.98997028974425360648E+00
    0.98996094943047319159E+00
    0.98995224247100122028E+00
    0.98993854886456200681E+00
    0.98989237600577972831E+00
    0.98996005996824409934E+00
    0.98996714732969182116E+00
    0.98997597033393869292E+00
    0.98998704879410071023E+00
    0.98999031512602297944E+00
    0.98998915900416317726E+00
    0.98999237777169890595E+00
    0.98999595340432999802E+00
    0.98999507814628773250E+00
    0.98999313533650978858E+00
    0.98999024378590616546E+00
    0.98998975026507607389E+00
    0.98998629696163620295E+00
    0.98997598883765780542E+00
    0.98999828383741628191E+00
    0.98999783774685867765E+00
    0.98892097014351010298E+00
    0.98951132273855779697E+00
    0.98968716611820917173E+00
    0.98982285598273700433E+00
    0.98985080538612890688E+00
    0.98992888396861722367E+00
    0.98992822341159181221E+00
    0.98985118160347340677E+00
    0.98982512403345213059E+00
    0.98968598425179188371E+00
    0.98951096800962023980E+00
    0.98892100452642672792E+00
    0.98968777787582540295E+00
    0.98977855894293642613E+00
    0.98989252942888994458E+00
    0.98993881405327976974E+00
    0.98995265131361398492E+00
    0.98995996243427319961E+00
    0.98996968074913049840E+00
    0.98997876771199477819E+00
    0.98998531004913870035E+00
    0.98997218726727542748E+00
    0.98996948437353005090E+00
    0.98994607755975250196E+00
    0.98993195556080770814E+00
    0.98987373482502971633E+00
    0.98996007124278595501E+00
    0.98996711792522884554E+00
    0.16945014240327970628E-01
    0.51388149424699082479E-01
    0.91690236830758008874E-02
    0.11627403412803962585E-01
    0.39065316613921180489E+00
    0.85185740848167956774E+00
    0.88948738090079793039E+00
    0.41066292972157497632E+00
    0.82182251118490534658E+00
    0.53255764528193583196E+00
    0.43749453449032421615E+00
    0.41310631276241271959E+00
    0.41259731928974968662E+00
    0.41322115701160350154E+00
    0.73760899313679885447E-02
    0.25632525242708226187E+00
    0.79731811994603452032E+00
    0.96365166350597086797E+00
    0.90469568120099186359E+00
    0.98398010738135521791E+00
    0.98397880798723647011E+00
    0.90469877241841722970E+00
    0.96366036699247392683E+00
    0.79729508048462205405E+00
    0.25633191714758585267E+00
    0.73761937359912259360E-02
    0.15690252716660538224E-01
    0.19213355370955723100E+00
    0.13992818259594381330E-01
    0.13694745230402686001E-01
    0.13250032456266574998E-01
    0.12663010866166498486E-01
    0.12204062945796925049E-01
    0.10123122657938481497E-01
    0.10123164553704783880E-01
    0.12203998532592422177E-01
    0.12662781863649216069E-01
    0.13250049582002923140E-01
    0.13694788941180945085E-01
    0.13992921944669908449E-01
    0.13473621455531846480E-01
    0.13048451760589564394E-01
    0.41310941088023778178E+00
    0.43748097116009820873E+00
    0.53258934968387339204E+00
    0.82179067937555128065E+00
    0.41068229622856733396E+00
    0.88949897405711153553E+00
    0.85183961457326073941E+00
    0.39066422348030893641E+00
    0.11627572273008601050E-01
    0.91688940211833887262E-02
    0.51355163325743587166E-01
    0.16945260236014274280E-01
    0.41263210987554788112E+00
    0.41319197360671722219E+00
    0.98418169729611537644E+00
    0.98765352159920161146E+00
    0.98888899086420500861E+00
    0.98937422893502768861E+00
    0.98932862396778542546E+00
    0.98967500122714191502E+00
    0.98959834972668359043E+00
    0.98903375075522392823E+00
    0.98845832275127709643E+00
    0.98663122705452455108E+00
    0.98602051997692408136E+00
    0.97775668619808786541E+00
    0.98814646871428879482E+00
    0.98873902261269419611E+00
    0.98971818632730845788E+00
    0.98984080688095410494E+00
    0.98989217593535649975E+00
    0.98990885192227606737E+00
    0.98991728808662426964E+00
    0.98993622723499941074E+00
    0.98994268037550936512E+00
    0.98990392488302325624E+00
    0.98986899028517949528E+00
    0.98977634419415283507E+00
    0.98976943944859285818E+00
    0.98958069017726790761E+00
    0.98986704151919369110E+00
    0.98989330370515860036E+00
    0.97845064146166038643E+00
    0.98524629804496033358E+00
    0.98822066358506477357E+00
    0.98891863387386458317E+00
    0.98850286344390403404E+00
    0.98919280181932867091E+00
    0.98874277332417603859E+00
    0.98670886030411886214E+00
    0.98293780483283532678E+00
    0.96803761180776026762E+00
    0.97505090324009469072E+00
    0.92633104009864808415E+00
    0.98540819548093894209E+00
    0.98675693855685564504E+00
    0.98959831273067533353E+00
    0.98976101652660164465E+00
    0.98985255366596303084E+00
    0.98986863949639525284E+00
    0.98986210992471423964E+00
    0.98988659091629171982E+00
    0.98988178733282361499E+00
    0.98980520524482584754E+00
    0.98968880738915543382E+00
    0.98948443535300967255E+00
    0.98957087639591689854E+00
    0.98929301559794657894E+00
    0.98976454797034296718E+00
    0.98980966447487583881E+00
    0.98988296241494000416E+00
    0.98980553739867138674E+00
    0.98968773563281964289E+00
    0.98948428420360279301E+00
    0.98957070286180215390E+00
    0.98929287081545480564E+00
    0.98959712509126285251E+00
    0.98976139262393225682E+00
    0.98985348481071822047E+00
    0.98986837722629739122E+00
    0.98986230309785283588E+00
    0.98988635939161950805E+00
    0.98980998953048371369E+00
    0.98976447852730720101E+00
    0.98874401915344745095E+00
    0.98670918775885230190E+00
    0.98293609774056245332E+00
    0.96803749061376487273E+00
    0.97505046492439451100E+00
    0.92633108602642255658E+00
    0.97844822123950003778E+00
    0.98524672604833607448E+00
    0.98822167598186405613E+00
    0.98891832367517973346E+00
    0.98850302026080216766E+00
    0.98919253749936286724E+00
    0.98675731939367905543E+00
    0.98540802623508794156E+00
    0.98994379745766536427E+00
    0.98990425076269927818E+00
    0.98986793669434680609E+00
    0.98977620877016880829E+00
    0.98976929555908377267E+00
    0.98958054179387799909E+00
    0.98971693215315637016E+00
    0.98984114403403045124E+00
    0.98989310241469152807E+00
    0.98990861307724209439E+00
    0.98991751407614125835E+00
    0.98993594588922728672E+00
    0.98989362212679699038E+00
    0.98986693774424461267E+00
    0.98959950440392441262E+00
    0.98903406390985804109E+00
    0.98845714567511344661E+00
    0.98663111592211205636E+00
    0.98602031582806659582E+00
    0.97775661927040558030E+00
    0.98417976125879047533E+00
    0.98765387475057619948E+00
    0.98888994621458459200E+00
    0.98937393575218635089E+00
    0.98932877120522322301E+00
    0.98967475197866905390E+00
    0.98873935417434244410E+00
    0.98814630969019823237E+00
    0.85185683593059668972E+00
    0.39066434015255552259E+00
    0.11627601453612034649E-01
    0.91690477242683896680E-02
    0.51372395061242734360E-01
    0.16945064007123547545E-01
    0.41311063152420129940E+00
    0.43749980629790702347E+00
    0.53260864827046572323E+00
    0.82178516221931852126E+00
    0.41067142187738869819E+00
    0.88949590100976683171E+00
    0.41321008341315673684E+00
    0.41261264047765544571E+00
    0.10123045476313459815E-01
    0.12204057338197942667E-01
    0.12663171762042280816E-01
    0.13250151282779325940E-01
    0.13694819138543650947E-01
    0.13992938304439008629E-01
    0.13992943715721871401E-01
    0.13694743947227741229E-01
    0.13249858694709291604E-01
    0.12662814206751436819E-01
    0.12204005697352025492E-01
    0.10123120975696366791E-01
    0.13048444744758108671E-01
    0.13473640123282015074E-01
    0.98398093474461512109E+00
    0.90469924955323866023E+00
    0.96365738123805999571E+00
    0.79729602394898180240E+00
    0.25633038122928925029E+00
    0.73761445165897790432E-02
    0.73762090268395868672E-02
    0.25632975928011997313E+00
    0.79732910985788851832E+00
    0.96365067097604839574E+00
    0.90469662451816768023E+00
    0.98398020768718086337E+00
    0.19213437285155920975E+00
    0.15690337282686740716E-01
    0.88949630374972465940E+00
    0.41068445938360359504E+00
    0.82180803434693394660E+00
    0.53255550802025319879E+00
    0.43746418959108612778E+00
    0.41312560278782739509E+00
    0.16945989184683676182E-01
    0.51353588366923247355E-01
    0.91687079209463555329E-02
    0.11627218881339541207E-01
    0.39065177193327188521E+00
    0.85185521101197669847E+00
    0.41317083190516684654E+00
    0.41265936675083902951E+00
    0.98998641544832222117E+00
    0.98997250737175468416E+00
    0.98996843315814520015E+00
    0.98994593719343582094E+00
    0.98993181176527900167E+00
    0.98987358360348787212E+00
    0.98989129620149196587E+00
    0.98993914849402175893E+00
    0.98995357177218712419E+00
    0.98995972410604771152E+00
    0.98996990384596139645E+00
    0.98997848348734551749E+00
    0.98996743222383720706E+00
    0.98995996754688520003E+00
    0.98992960496707305129E+00
    0.98985148218180207813E+00
    0.98982405070855405960E+00
    0.98968583987945568659E+00
    0.98951080904808097483E+00
    0.98892081403222720226E+00
    0.98891958347919295402E+00
    0.98951164813017900013E+00
    0.98968805452258989952E+00
    0.98982259329141741855E+00
    0.98985096717965626034E+00
    0.98992890732184646296E+00
    0.98977885767128204186E+00
    0.98968765182268947367E+00
    0.98999506124251734906E+00
    0.98999310166211729189E+00
    0.98999048673198553061E+00
    0.98998896452009010893E+00
    0.98998650687859779396E+00
    0.98997598570915879002E+00
    0.98997490305025293011E+00
    0.98998697839868343706E+00
    0.98999103346632577605E+00
    0.98998888715104194080E+00
    0.98999254713266593431E+00
    0.98999592592952700976E+00
    0.98999808348233542254E+00
    0.98999829619150636617E+00
    0.98997778731449659340E+00
    0.98997022434610615349E+00
    0.98996117755878143551E+00
    0.98995130904994810273E+00
    0.98993829178868375518E+00
    0.98989248719493250217E+00
    0.98987257576342391197E+00
    0.98993261124530951278E+00
    0.98994807679135898848E+00
    0.98996698185820697358E+00
    0.98997196124061936917E+00
    0.98998585399643523886E+00
    0.98996739966229840846E+00
    0.98995993065171417058E+00
    0.98967563329734986599E+00
    0.98932935699557378317E+00
    0.98937550728977996517E+00
    0.98888753312073662816E+00
    0.98765296136780822422E+00
    0.98418176772384435846E+00
    0.97775390355100033624E+00
    0.98602139074195127577E+00
    0.98663406434194944605E+00
    0.98845543805152924488E+00
    0.98903351459067345708E+00
    0.98959897556977338695E+00
    0.98873934514216277325E+00
    0.98814630551581317253E+00
    0.98919342614236649425E+00
    0.98850363797723261872E+00
    0.98891998688954563246E+00
    0.98821909978687194620E+00
    0.98524538593464283665E+00
    0.97844938813557513768E+00
    0.92632280001234779121E+00
    0.97505137383801032680E+00
    0.96804346443439348580E+00
    0.98293348574731320699E+00
    0.98670854464798873895E+00
    0.98874345719530420951E+00