# vtk DataFile Version 3.0
LAPLACIEN  2D
ASCII
DATASET UNSTRUCTURED_GRID
 POINTS         481  float
   6.2500000000000000E-002  0.87500000000000000        0.0000000000000000     
  0.12500000000000000       0.87500000000000000        0.0000000000000000     
  0.12500000000000000       0.93750000000000000        0.0000000000000000     
   3.7499999999999999E-002  0.91249999999999998        0.0000000000000000     
   8.1250000000000003E-002  0.91874999999999996        0.0000000000000000     
   8.7499999999999994E-002  0.96250000000000002        0.0000000000000000     
   4.3749999999999997E-002  0.95625000000000004        0.0000000000000000     
  0.18750000000000000       0.87500000000000000        0.0000000000000000     
  0.25000000000000000       0.87500000000000000        0.0000000000000000     
  0.25000000000000000       0.93750000000000000        0.0000000000000000     
  0.16250000000000001       0.91249999999999998        0.0000000000000000     
  0.20624999999999999       0.91874999999999996        0.0000000000000000     
  0.21249999999999999       0.96250000000000002        0.0000000000000000     
  0.16875000000000001       0.95625000000000004        0.0000000000000000     
   6.2500000000000000E-002  0.75000000000000000        0.0000000000000000     
  0.12500000000000000       0.75000000000000000        0.0000000000000000     
  0.12500000000000000       0.81250000000000000        0.0000000000000000     
   3.7499999999999999E-002  0.78749999999999998        0.0000000000000000     
   8.1250000000000003E-002  0.79374999999999996        0.0000000000000000     
   8.7499999999999994E-002  0.83750000000000002        0.0000000000000000     
   4.3749999999999997E-002  0.83125000000000004        0.0000000000000000     
  0.18750000000000000       0.75000000000000000        0.0000000000000000     
  0.25000000000000000       0.75000000000000000        0.0000000000000000     
  0.25000000000000000       0.81250000000000000        0.0000000000000000     
  0.16250000000000001       0.78749999999999998        0.0000000000000000     
  0.20624999999999999       0.79374999999999996        0.0000000000000000     
  0.21249999999999999       0.83750000000000002        0.0000000000000000     
  0.16875000000000001       0.83125000000000004        0.0000000000000000     
  0.31250000000000000       0.87500000000000000        0.0000000000000000     
  0.37500000000000000       0.87500000000000000        0.0000000000000000     
  0.37500000000000000       0.93750000000000000        0.0000000000000000     
  0.28749999999999998       0.91249999999999998        0.0000000000000000     
  0.33124999999999999       0.91874999999999996        0.0000000000000000     
  0.33750000000000002       0.96250000000000002        0.0000000000000000     
  0.29375000000000001       0.95625000000000004        0.0000000000000000     
  0.43750000000000000       0.87500000000000000        0.0000000000000000     
  0.50000000000000000       0.87500000000000000        0.0000000000000000     
  0.50000000000000000       0.93750000000000000        0.0000000000000000     
  0.41249999999999998       0.91249999999999998        0.0000000000000000     
  0.45624999999999999       0.91874999999999996        0.0000000000000000     
  0.46250000000000002       0.96250000000000002        0.0000000000000000     
  0.41875000000000001       0.95625000000000004        0.0000000000000000     
  0.31250000000000000       0.75000000000000000        0.0000000000000000     
  0.37500000000000000       0.75000000000000000        0.0000000000000000     
  0.37500000000000000       0.81250000000000000        0.0000000000000000     
  0.28749999999999998       0.78749999999999998        0.0000000000000000     
  0.33124999999999999       0.79374999999999996        0.0000000000000000     
  0.33750000000000002       0.83750000000000002        0.0000000000000000     
  0.29375000000000001       0.83125000000000004        0.0000000000000000     
  0.43750000000000000       0.75000000000000000        0.0000000000000000     
  0.50000000000000000       0.75000000000000000        0.0000000000000000     
  0.50000000000000000       0.81250000000000000        0.0000000000000000     
  0.41249999999999998       0.78749999999999998        0.0000000000000000     
  0.45624999999999999       0.79374999999999996        0.0000000000000000     
  0.46250000000000002       0.83750000000000002        0.0000000000000000     
  0.41875000000000001       0.83125000000000004        0.0000000000000000     
   6.2500000000000000E-002  0.62500000000000000        0.0000000000000000     
  0.12500000000000000       0.62500000000000000        0.0000000000000000     
  0.12500000000000000       0.68750000000000000        0.0000000000000000     
   3.7499999999999999E-002  0.66249999999999998        0.0000000000000000     
   8.1250000000000003E-002  0.66874999999999996        0.0000000000000000     
   8.7499999999999994E-002  0.71250000000000002        0.0000000000000000     
   4.3749999999999997E-002  0.70625000000000004        0.0000000000000000     
  0.18750000000000000       0.62500000000000000        0.0000000000000000     
  0.25000000000000000       0.62500000000000000        0.0000000000000000     
  0.25000000000000000       0.68750000000000000        0.0000000000000000     
  0.16250000000000001       0.66249999999999998        0.0000000000000000     
  0.20624999999999999       0.66874999999999996        0.0000000000000000     
  0.21249999999999999       0.71250000000000002        0.0000000000000000     
  0.16875000000000001       0.70625000000000004        0.0000000000000000     
   6.2500000000000000E-002  0.50000000000000000        0.0000000000000000     
  0.12500000000000000       0.50000000000000000        0.0000000000000000     
  0.12500000000000000       0.56250000000000000        0.0000000000000000     
   3.7499999999999999E-002  0.53749999999999998        0.0000000000000000     
   8.1250000000000003E-002  0.54374999999999996        0.0000000000000000     
   8.7499999999999994E-002  0.58750000000000002        0.0000000000000000     
   4.3749999999999997E-002  0.58125000000000004        0.0000000000000000     
  0.18750000000000000       0.50000000000000000        0.0000000000000000     
  0.25000000000000000       0.50000000000000000        0.0000000000000000     
  0.25000000000000000       0.56250000000000000        0.0000000000000000     
  0.16250000000000001       0.53749999999999998        0.0000000000000000     
  0.20624999999999999       0.54374999999999996        0.0000000000000000     
  0.21249999999999999       0.58750000000000002        0.0000000000000000     
  0.16875000000000001       0.58125000000000004        0.0000000000000000     
  0.31250000000000000       0.62500000000000000        0.0000000000000000     
  0.37500000000000000       0.62500000000000000        0.0000000000000000     
  0.37500000000000000       0.68750000000000000        0.0000000000000000     
  0.28749999999999998       0.66249999999999998        0.0000000000000000     
  0.33124999999999999       0.66874999999999996        0.0000000000000000     
  0.33750000000000002       0.71250000000000002        0.0000000000000000     
  0.29375000000000001       0.70625000000000004        0.0000000000000000     
  0.43750000000000000       0.62500000000000000        0.0000000000000000     
  0.50000000000000000       0.62500000000000000        0.0000000000000000     
  0.50000000000000000       0.68750000000000000        0.0000000000000000     
  0.41249999999999998       0.66249999999999998        0.0000000000000000     
  0.45624999999999999       0.66874999999999996        0.0000000000000000     
  0.46250000000000002       0.71250000000000002        0.0000000000000000     
  0.41875000000000001       0.70625000000000004        0.0000000000000000     
  0.31250000000000000       0.50000000000000000        0.0000000000000000     
  0.37500000000000000       0.50000000000000000        0.0000000000000000     
  0.37500000000000000       0.56250000000000000        0.0000000000000000     
  0.28749999999999998       0.53749999999999998        0.0000000000000000     
  0.33124999999999999       0.54374999999999996        0.0000000000000000     
  0.33750000000000002       0.58750000000000002        0.0000000000000000     
  0.29375000000000001       0.58125000000000004        0.0000000000000000     
  0.43750000000000000       0.50000000000000000        0.0000000000000000     
  0.50000000000000000       0.50000000000000000        0.0000000000000000     
  0.50000000000000000       0.56250000000000000        0.0000000000000000     
  0.41249999999999998       0.53749999999999998        0.0000000000000000     
  0.45624999999999999       0.54374999999999996        0.0000000000000000     
  0.46250000000000002       0.58750000000000002        0.0000000000000000     
  0.41875000000000001       0.58125000000000004        0.0000000000000000     
  0.56250000000000000       0.87500000000000000        0.0000000000000000     
  0.62500000000000000       0.87500000000000000        0.0000000000000000     
  0.62500000000000000       0.93750000000000000        0.0000000000000000     
  0.53749999999999998       0.91249999999999998        0.0000000000000000     
  0.58125000000000004       0.91874999999999996        0.0000000000000000     
  0.58750000000000002       0.96250000000000002        0.0000000000000000     
  0.54374999999999996       0.95625000000000004        0.0000000000000000     
  0.68750000000000000       0.87500000000000000        0.0000000000000000     
  0.75000000000000000       0.87500000000000000        0.0000000000000000     
  0.75000000000000000       0.93750000000000000        0.0000000000000000     
  0.66249999999999998       0.91249999999999998        0.0000000000000000     
  0.70625000000000004       0.91874999999999996        0.0000000000000000     
  0.71250000000000002       0.96250000000000002        0.0000000000000000     
[...]
 CELL_DATA         896
 SCALARS Cells_density float
 LOOKUP_TABLE default
    0.98998208833294842890E+00
    0.98997999319123597406E+00
    0.98997089126731074860E+00
    0.98996962127897913941E+00
    0.98997922994966769394E+00
    0.98998295857425644417E+00
    0.98998327721137879820E+00
    0.98998668836896630552E+00
    0.98998974796405747600E+00
    0.98998886574520217341E+00
    0.98998629283717309857E+00
    0.98998406914642989030E+00
    0.98998911319665761077E+00
    0.98998894452819274914E+00
    0.98993448521271398821E+00
    0.98992795762435459306E+00
    0.98987973601663548084E+00
    0.98989120523005325047E+00
    0.98993383572605575527E+00
    0.98994468108267619222E+00
    0.98995426443793088644E+00
    0.98996272331136025979E+00
    0.98997239037972351028E+00
    0.98997793042628012827E+00
    0.98996451600087376210E+00
    0.98996259923942064862E+00
    0.98995626333800623708E+00
    0.98995688761231392938E+00
    0.98994358364196521904E+00
    0.98993415735144185685E+00
    0.98989271830624736559E+00
    0.98987868826893854468E+00
    0.98992758359595722784E+00
    0.98993456717101091513E+00
    0.98996232868537348271E+00
    0.98996515834088583130E+00
    0.98997842027806737253E+00
    0.98997126534566648459E+00
    0.98996265590269727497E+00
    0.98995530740007187109E+00
    0.98995699071731724228E+00
    0.98995633953918049652E+00
    0.98965884146470661786E+00
    0.98952729261173999475E+00
    0.98902565746230586274E+00
    0.98902426791888753410E+00
    0.98952690987153502089E+00
    0.98965893714448793794E+00
    0.98983121301260401648E+00
    0.98983754798383560836E+00
    0.98991664172040494396E+00
    0.98991491763746952692E+00
    0.98983684173242325599E+00
    0.98983148897349759743E+00
    0.98973185941290642287E+00
    0.98973184167172068015E+00
    0.98974525258559742369E+00
    0.98977245495882448800E+00
    0.98963626719031738688E+00
    0.98972622129797127588E+00
    0.98984157395864502682E+00
    0.98988592304815370415E+00
    0.98990513344467689905E+00
    0.98990977235149923974E+00
    0.98993011233788386072E+00
    0.98993471963406165504E+00
    0.98989559818509742506E+00
    0.98986755641620149948E+00
    0.98986938861400153300E+00
    0.98988114438677454743E+00
    0.98941926096538435065E+00
    0.98958339372324688465E+00
    0.98940966184919254545E+00
    0.98960840357684498603E+00
    0.98977152375311061583E+00
    0.98985069994771979207E+00
    0.98986903479584198440E+00
    0.98985913586435958500E+00
    0.98988152215807923007E+00
    0.98987632304155470653E+00
    0.98979640690621040200E+00
    0.98969429810338438447E+00
    0.98976987034502250662E+00
    0.98980424096065544592E+00
    0.98608435303761410307E+00
    0.98628539533713321941E+00
    0.98135032012476619556E+00
    0.98479155483105729196E+00
    0.98781815457741073416E+00
    0.98887424581278460245E+00
    0.98944117917926033279E+00
    0.98930762449970466310E+00
    0.98964173517477627140E+00
    0.98957246275695387450E+00
    0.98897255795555216729E+00
    0.98856252522103815750E+00
    0.98841933249823377139E+00
    0.98862022909245139690E+00
    0.95961361488728225133E+00
    0.97649121706823960309E+00
    0.95748115543863177024E+00
    0.97957943679822645500E+00
    0.98581359027518999927E+00
    0.98828626447649514652E+00
    0.98906228800239126553E+00
    0.98854009700171274755E+00
    0.98913230214766012516E+00
    0.98875546925288648747E+00
    0.98659678085593804919E+00
    0.98349972279069197700E+00
    0.98590625024626121764E+00
    0.98678728416396832568E+00
    0.98988481929896976474E+00
    0.98984189916034992507E+00
    0.98972775932228285178E+00
    0.98963518992467902624E+00
    0.98977207694425717310E+00
    0.98974534145756154491E+00
    0.98986727944224250919E+00
    0.98989624391050146102E+00
    0.98993519555353615136E+00
    0.98992896617635472989E+00
    0.98990938639359016271E+00
    0.98990593784082658857E+00
    0.98988124321677717354E+00
    0.98986945949537463729E+00
    0.98887412157691545467E+00
    0.98781859482519851490E+00
    0.98479383857621760612E+00
    0.98134829061716033483E+00
    0.98628493256959370861E+00
    0.98608459345022569931E+00
    0.98856216966321464046E+00
    0.98897329671488287683E+00
    0.98957373088283417939E+00
    0.98963944511037649221E+00
    0.98930714184712953418E+00
    0.98944166699000513088E+00
    0.98862034868014370126E+00
    0.98841939415473922814E+00
    0.98985024202102844804E+00
    0.98977185162759473425E+00
    0.98960995957359598751E+00
    0.98940855530815263741E+00
    0.98958301046478747143E+00
    0.98941936531665608534E+00
    0.98969401421290470466E+00
    0.98979705786424776459E+00
    0.98987687507718236102E+00
    0.98988044355962023779E+00
    0.98985870689474531048E+00
    0.98986981108291338671E+00
    0.98980434083289969838E+00
    0.98976994134098694733E+00
    0.98828672385947013979E+00
    0.98581407460408887466E+00
    0.97958249353331350306E+00
    0.95747691190548778195E+00
    0.97649055633897507978E+00
    0.95961496407872648451E+00
    0.98349913387278076193E+00
    0.98659761114464128440E+00
    0.98875685599185358932E+00
    0.98912989416192265146E+00
    0.98853958707528277738E+00
    0.98906280769974519451E+00
    0.98678743655887857233E+00
    0.98590630347641761144E+00
    0.81319966771804064187E+00
    0.20047923881339835273E+00
    0.66878414515856091094E-02
    0.66877913372212311957E-02
    0.20047149161964294972E+00
    0.81320319538061003328E+00
    0.96554046562488105021E+00
    0.90066053306919879873E+00
    0.98357539838557406231E+00
    0.98357256004618831557E+00
    0.90065864783234195201E+00
    0.96554255365001473432E+00
    0.11706159643823516037E+00
    0.11706215894718650927E+00
    0.10199067095024846527E-01
    0.15676835490769907427E-01
    0.15438584701861893245E-01
    0.30346814157608409390E+00
    0.41763983187824238463E+00
    0.59605822922296325395E+00
    0.81679332405927329575E+00
    0.41158593640329965702E+00
    0.90924408533198164406E+00
    0.86319109911855806949E+00
    0.38405980818892365702E+00
    0.12586626830567127291E-01
    0.31502231911067563042E+00
    0.41548872042651696646E+00
    0.59606437926104294256E+00
    0.41761111899861369512E+00
    0.30349801316189561895E+00
    0.15438846173604647144E-01
    0.15676793126417967739E-01
    0.10199184029600419366E-01
    0.12586631952482722069E-01
    0.38405196504210958874E+00
    0.86321566695662299562E+00
    0.90922601369693800688E+00
    0.41157111512449123802E+00
    0.81680353318458054357E+00
    0.41552158864241073299E+00
    0.31500749923025811450E+00
    0.13729794776927276012E-01
    0.14091741466723615994E-01
    0.14406961228976288697E-01
    0.14407033683546056207E-01
    0.14091801101415014560E-01
    0.13729923510630978253E-01
    0.12823021515558589295E-01
    0.12723315303667909193E-01
    0.11003487451584654383E-01
    0.11003660564393873827E-01
    0.12723327047567185855E-01
    0.12822934887577967095E-01
    0.13727551126191849667E-01
    0.13727573201297117722E-01
    0.98931690241871783620E+00
    0.98958182024438601232E+00
    0.98950013831260152930E+00
    0.98969187036279004932E+00
    0.98980510966451551447E+00
    0.98988027773717390811E+00
    0.98988311569555698100E+00
    0.98986092996184360526E+00
    0.98986770929993694867E+00
    0.98985014285357009189E+00
    0.98976284151002125178E+00
    0.98960663497324907745E+00
    0.98976514066003717929E+00
    0.98980852552899634134E+00
    0.98959056673378353874E+00
    0.98977173582292765630E+00
    0.98977906483478661492E+00
    0.98986485258564393952E+00
    0.98990056507306900535E+00
    0.98993930558580789381E+00
    0.98993130847092603020E+00
    0.98991406972676942999E+00
    0.98990650524506917929E+00
    0.98988847857352968429E+00
    0.98983937874846306126E+00
    0.98972185698930237319E+00
    0.98986355659629643444E+00
    0.98988944095372533027E+00
    0.93492756460635006999E+00
    0.97635872509769083827E+00
    0.97022232947157827088E+00
    0.98338074087901083953E+00
    0.98688563451588440234E+00
    0.98879485842755421299E+00
    0.98922107371947443077E+00
    0.98857038102879335462E+00
    0.98896421657872601862E+00
    0.98830126084735492320E+00
    0.98553517170405136039E+00
    0.97934402355848015898E+00
    0.98567316510314639810E+00
    0.98692978701606792757E+00
    0.97869129107518804123E+00
    0.98623688337734460863E+00
    0.98680441238487492939E+00
    0.98852084105329252051E+00
    0.98907004767056494465E+00
    0.98960831084505318511E+00
    0.98968034370909285791E+00
    0.98935162671865539696E+00
    0.98939618685474706172E+00
    0.98893181718125211521E+00
    0.98776718683900921469E+00
    0.98452524095889637490E+00
    0.98822825330243335706E+00
    0.98878971761099221371E+00
    0.98987132896551366379E+00
    0.98992813132673629362E+00
    0.98994242888452887996E+00
    0.98996203638608815112E+00
    0.98996688229406160087E+00
    0.98998099740415501646E+00
    0.98997295894731185406E+00
    0.98996512811147119315E+00
    0.98995630403057310875E+00
    0.98994722354281461385E+00
    0.98993406727274424473E+00
    0.98988938079432742256E+00
    0.98995353218558201913E+00
    0.98996104120380268299E+00
    0.98997031260038248490E+00
    0.98998129599848816440E+00
    0.98998450049119901539E+00
    0.98998436570597203588E+00
    0.98998721368234554596E+00
    0.98999068152768077145E+00
    0.98998997536580823908E+00
    0.98998783087236619238E+00
    0.98998524848253677266E+00
    0.98998399727653718649E+00
    0.98998064652883110970E+00
    0.98997036563239315665E+00
    0.98999090042498649744E+00
    0.98999112670618882870E+00
    0.98896193051436109833E+00
    0.98952483936983093304E+00
    0.98969268794559195346E+00
    0.98982286827526055895E+00
    0.98985008216182557295E+00
    0.98992474511579053864E+00
    0.98992418775870216763E+00
    0.98985037351556803831E+00
    0.98982469602227474148E+00
    0.98969168615651958998E+00
    0.98952455331528044180E+00
    0.98896200252391208707E+00
    0.98969211707052240357E+00
    0.98977968042756903078E+00
    0.98988945542131268063E+00
    0.98993429417584866137E+00
    0.98994760560348005196E+00
    0.98995550887843397625E+00
    0.98996464405729622804E+00
    0.98997395711759650361E+00
    0.98997967202996683955E+00
    0.98996709877319832849E+00
    0.98996383183869596234E+00
    0.98994145374900033296E+00
    0.98992784102859709972E+00
    0.98987151238827175703E+00
    0.98995354151052983305E+00
    0.98996101913947331941E+00
    0.15545824825691714408E-01
    0.20474307061959549220E-01
    0.92506008041867062580E-02
    0.10356632837533043950E-01
    0.35221623561414860948E+00
    0.86265936072057392003E+00
    0.90335717465456155661E+00
    0.40889234070275237709E+00
    0.84464022272660665980E+00
    0.56698261739422162186E+00
    0.42077654298495459351E+00
    0.35122730731976453677E+00
    0.41204220152543324929E+00
    0.41207426840461081063E+00
    0.63358675837942787790E-02
    0.22554463125150062131E+00
    0.82182532627114646129E+00
    0.96651348202875908555E+00
    0.91543215278021472514E+00
    0.98440663012883466987E+00
    0.98440556953130609052E+00
    0.91543434954491109679E+00
    0.96652000674166071992E+00
    0.82180834218949816439E+00
    0.22554917723809758678E+00
    0.63359609651412775178E-02
    0.11751573690320007287E-01
    0.17087529781233307125E+00
    0.14418878665793952512E-01
    0.14196151433993945551E-01
    0.13756226732393116510E-01
    0.13077341082112624998E-01
    0.12657619942768608134E-01
    0.10381029905352008591E-01
    0.10381072343720222292E-01
    0.12657566705875436530E-01
    0.13077112632148521140E-01
    0.13756276206659503319E-01
    0.14196192514804544318E-01
    0.14418978888277226777E-01
    0.14008906769271012999E-01
    0.13573953298987846347E-01
    0.35122782924046075381E+00
    0.42076729812110968965E+00
    0.56701055376440523403E+00
    0.84461693578668262106E+00
    0.40888958859811003199E+00
    0.90336561145248661653E+00
    0.86264567308938211454E+00
    0.35222575413729728666E+00
    0.10356744663800416736E-01
    0.92505555841412758639E-02
    0.20473459323247976405E-01
    0.15546163896525667936E-01
    0.41202066025646483238E+00
    0.41209292742608821802E+00
    0.98452528770998992691E+00
    0.98776747621360305729E+00
    0.98893292159667745000E+00
    0.98939407802811440984E+00
    0.98935100883118853865E+00
    0.98968101675868769274E+00
    0.98960781723231860951E+00
    0.98907036265640935202E+00
    0.98852290143652488119E+00
    0.98680302008168718775E+00
    0.98623653715552461740E+00
    0.97869198354685260632E+00
    0.98822825488077503664E+00
    0.98878972170469447978E+00
    0.98972193026244925651E+00
    0.98983960667047554693E+00
    0.98988886315419510886E+00
    0.98990570599081306735E+00
    0.98991358258460582231E+00
    0.98993231116124202895E+00
    0.98993797328592969542E+00
    0.98990078182664054118E+00
    0.98986666244067356146E+00
    0.98977806724261407911E+00
    0.98977144050448750967E+00
    0.98959076226856212966E+00
    0.98986356552450405211E+00
    0.98988941817791809008E+00
    0.97934525556178497752E+00
    0.98553566746294840595E+00
    0.98830244270055178646E+00
    0.98896202407710409599E+00
    0.98856973887198196227E+00
    0.98922179592655090641E+00
    0.98879430998203499126E+00
    0.98688602712599260425E+00
    0.98338372414737529326E+00
    0.97021923529368592209E+00
    0.97635841419416480313E+00
    0.93492983374974503175E+00
    0.98567337483923134211E+00
    0.98692980780632777460E+00
    0.98960729213860609832E+00
    0.98976320679981677486E+00
    0.98985052798837336319E+00
    0.98986684822580328635E+00
    0.98986035140162786927E+00
    0.98988407898537178475E+00
    0.98987889340890300449E+00
    0.98980564556618999550E+00
    0.98969371018960294872E+00
    0.98949914473318878461E+00
    0.98958158080731128958E+00
    0.98931710697134189747E+00
    0.98976528033981348020E+00
    0.98980880573559049118E+00
    0.98987981759259213721E+00
    0.98980589764761517380E+00
    0.98969286322379634857E+00
    0.98949904358751261668E+00
    0.98958143677081489287E+00
    0.98931701211205580471E+00
    0.98960635083212433738E+00
    0.98976349901697024958E+00
    0.98985125616838010032E+00
    0.98986663307239641796E+00
    0.98986050130391844970E+00
    0.98988388768450175093E+00
    0.98980906721921291247E+00
    0.98976521716268694995E+00
    0.98879528879163169908E+00
    0.98688628649447762697E+00
    0.98338243848888573506E+00
    0.97021916689463383321E+00
    0.97635809467418710472E+00
    0.93492994212395696962E+00
    0.97934346419746354240E+00
    0.98553601771865850800E+00
    0.98830322796479119773E+00
    0.98896177105973381849E+00
    0.98856986035349780906E+00
    0.98922158035927609809E+00
    0.98693011638542349484E+00
    0.98567324462373817617E+00
    0.98993884129527931481E+00
    0.98990102791347678313E+00
    0.98986582849577819943E+00
    0.98977798016173168527E+00
    0.98977132244981391729E+00
    0.98959066442619314508E+00
    0.98972093447352549322E+00
    0.98983986687888292355E+00
    0.98988958758985357012E+00
    0.98990551184837616283E+00
    0.98991376227967686763E+00
    0.98993206988460002993E+00
    0.98988967356605928050E+00
    0.98986347419554354676E+00
    0.98960873038546526281E+00
    0.98907060310080696652E+00
    0.98852198145956471365E+00
    0.98680295120545313825E+00
    0.98623637683616149907E+00
    0.97869196134463287695E+00
    0.98452381552151746469E+00
    0.98776775602918009955E+00
    0.98893366623361644852E+00
    0.98939383896703081422E+00
    0.98935112412059766918E+00
    0.98968081374465954880E+00
    0.98878999058254224419E+00
    0.98822812522662295542E+00
    0.86265798521165260038E+00
    0.35222670047678311667E+00
    0.10356778211259425396E-01
    0.92506277703851870486E-02
    0.20474118345474072445E-01
    0.15545727638576041507E-01
    0.35122893265302218557E+00
    0.42077933174685705486E+00
    0.56702549878850205811E+00
    0.84461253629571308998E+00
    0.40889007428739038152E+00
    0.90336341783051765653E+00
    0.41207535869117078997E+00
    0.41204270685894006654E+00
    0.10380969173667398478E-01
    0.12657589639613865684E-01
    0.13077383230787430549E-01
    0.13756321388238906475E-01
    0.14196210784030065602E-01
    0.14418992699383877468E-01
    0.14419008473456142866E-01
    0.14196153170579138905E-01
    0.13756065859442626054E-01
    0.13077169117985188926E-01
    0.12657579822495058572E-01
    0.10381021183924959289E-01
    0.13573938674274393934E-01
    0.14008928600838735021E-01
    0.98440722214175357951E+00
    0.91543486912882432449E+00
    0.96651777576679964721E+00
    0.82180929484257014828E+00
    0.22554780699362264595E+00
    0.63359420809752844267E-02
    0.63359755040851527264E-02
    0.22554864589637724226E+00
    0.82183320496034517610E+00
    0.96651264192294850108E+00
    0.91543291346851507484E+00
    0.98440668627754268627E+00
    0.17087586006550026241E+00
    0.11751621554115777857E-01
    0.90336373002176284519E+00
    0.40890481748329454703E+00
    0.84463064929399567227E+00
    0.56698208198620392295E+00
    0.42074725730312950711E+00
    0.35124138722257841616E+00
    0.15546749897274902280E-01
    0.20457453399919028891E-01
    0.92504567388459624927E-02
    0.10356596964859375587E-01
    0.35221579891246851401E+00
    0.86265843710375056386E+00
    0.41203961300642721888E+00
    0.41207672003602047184E+00
    0.98998053235244387604E+00
    0.98996734132413866103E+00
    0.98996300065574549532E+00
    0.98994136382936204210E+00
    0.98992772346173263376E+00
    0.98987141225975217029E+00
    0.98988847491960008096E+00
    0.98993455233556459927E+00
    0.98994832570327451204E+00
    0.98995531542184167506E+00
    0.98996482205408486976E+00
    0.98997371440660619779E+00
    0.98996127188545612885E+00
    0.98995345070358675699E+00
    0.98992527698650567558E+00
    0.98985060341991215616E+00
    0.98982384988780591772E+00
    0.98969159421808194921E+00
    0.98952442509001092841E+00
    0.98896187078672681547E+00
    0.98896083425799108380E+00
    0.98952509266658794651E+00
    0.98969338557291053338E+00
    0.98982265582888862010E+00
    0.98985021289595309657E+00
    0.98992475230561960409E+00
    0.98977992355858213092E+00
    0.98969201121239358532E+00
    0.98998996303231712179E+00
    0.98998780864755986375E+00
    0.98998545005921489981E+00
    0.98998337912474110301E+00
    0.98998085784779921159E+00
    0.98997037648103547447E+00
    0.98996945572948924497E+00
    0.98998121688164031351E+00
    0.98998506407288799913E+00
    0.98998414651656663210E+00
    0.98998735047934049991E+00
    0.98999066003330438157E+00
    0.98999132107162357563E+00
    0.98999091491125734699E+00
    0.98997316730919404648E+00
    0.98996507577262715660E+00
    0.98995649077422454010E+00
    0.98994649216452113016E+00
    0.98993387350502193289E+00
    0.98988948985243463419E+00
    0.98987055959921088633E+00
    0.98992836325191480018E+00
    0.98994310099247562196E+00
    0.98996181394655324848E+00
    0.98996693060421858679E+00
    0.98998013750479885164E+00
    0.98996125189192596405E+00
    0.98995342509713624146E+00
    0.98968147419836927092E+00
    0.98935158381036836239E+00
    0.98939512989650724162E+00
    0.98893172872195145295E+00
    0.98776703010315891618E+00
    0.98452546642618143924E+00
    0.97868980823917095524E+00
    0.98623721551799237162E+00
    0.98680527984688670706E+00
    0.98852059610768483466E+00
    0.98907018897120213552E+00
    0.98960833345551502127E+00
    0.98878998586498589862E+00
    0.98822812293319728383E+00
    0.98922224359677912719E+00
    0.98857034796492215811E+00
    0.98896313369413746397E+00
    0.98830117050605026385E+00
    0.98553496794444828133E+00
    0.97934442068739557818E+00
    0.93492389462461145122E+00
    0.97635876949463140662E+00
    0.97022362236264636515E+00
    0.98338037002809852716E+00
    0.98688580690025073938E+00
    0.98879487533640697539E+00