# vtk DataFile Version 3.0
LAPLACIEN  2D
ASCII
DATASET UNSTRUCTURED_GRID
 POINTS         481  float
   6.2500000000000000E-002  0.87500000000000000        0.0000000000000000     
  0.12500000000000000       0.87500000000000000        0.0000000000000000     
  0.12500000000000000       0.93750000000000000        0.0000000000000000     
   3.7499999999999999E-002  0.91249999999999998        0.0000000000000000     
   8.1250000000000003E-002  0.91874999999999996        0.0000000000000000     
   8.7499999999999994E-002  0.96250000000000002        0.0000000000000000     
   4.3749999999999997E-002  0.95625000000000004        0.0000000000000000     
  0.18750000000000000       0.87500000000000000        0.0000000000000000     
  0.25000000000000000       0.87500000000000000        0.0000000000000000     
  0.25000000000000000       0.93750000000000000        0.0000000000000000     
  0.16250000000000001       0.91249999999999998        0.0000000000000000     
  0.20624999999999999       0.91874999999999996        0.0000000000000000     
  0.21249999999999999       0.96250000000000002        0.0000000000000000     
  0.16875000000000001       0.95625000000000004        0.0000000000000000     
   6.2500000000000000E-002  0.75000000000000000        0.0000000000000000     
  0.12500000000000000       0.75000000000000000        0.0000000000000000     
  0.12500000000000000       0.81250000000000000        0.0000000000000000     
   3.7499999999999999E-002  0.78749999999999998        0.0000000000000000     
   8.1250000000000003E-002  0.79374999999999996        0.0000000000000000     
   8.7499999999999994E-002  0.83750000000000002        0.0000000000000000     
   4.3749999999999997E-002  0.83125000000000004        0.0000000000000000     
  0.18750000000000000       0.75000000000000000        0.0000000000000000     
  0.25000000000000000       0.75000000000000000        0.0000000000000000     
  0.25000000000000000       0.81250000000000000        0.0000000000000000     
  0.16250000000000001       0.78749999999999998        0.0000000000000000     
  0.20624999999999999       0.79374999999999996        0.0000000000000000     
  0.21249999999999999       0.83750000000000002        0.0000000000000000     
  0.16875000000000001       0.83125000000000004        0.0000000000000000     
  0.31250000000000000       0.87500000000000000        0.0000000000000000     
  0.37500000000000000       0.87500000000000000        0.0000000000000000     
  0.37500000000000000       0.93750000000000000        0.0000000000000000     
  0.28749999999999998       0.91249999999999998        0.0000000000000000     
  0.33124999999999999       0.91874999999999996        0.0000000000000000     
  0.33750000000000002       0.96250000000000002        0.0000000000000000     
  0.29375000000000001       0.95625000000000004        0.0000000000000000     
  0.43750000000000000       0.87500000000000000        0.0000000000000000     
  0.50000000000000000       0.87500000000000000        0.0000000000000000     
  0.50000000000000000       0.93750000000000000        0.0000000000000000     
  0.41249999999999998       0.91249999999999998        0.0000000000000000     
  0.45624999999999999       0.91874999999999996        0.0000000000000000     
  0.46250000000000002       0.96250000000000002        0.0000000000000000     
  0.41875000000000001       0.95625000000000004        0.0000000000000000     
  0.31250000000000000       0.75000000000000000        0.0000000000000000     
  0.37500000000000000       0.75000000000000000        0.0000000000000000     
  0.37500000000000000       0.81250000000000000        0.0000000000000000     
  0.28749999999999998       0.78749999999999998        0.0000000000000000     
  0.33124999999999999       0.79374999999999996        0.0000000000000000     
  0.33750000000000002       0.83750000000000002        0.0000000000000000     
  0.29375000000000001       0.83125000000000004        0.0000000000000000     
  0.43750000000000000       0.75000000000000000        0.0000000000000000     
  0.50000000000000000       0.75000000000000000        0.0000000000000000     
  0.50000000000000000       0.81250000000000000        0.0000000000000000     
  0.41249999999999998       0.78749999999999998        0.0000000000000000     
  0.45624999999999999       0.79374999999999996        0.0000000000000000     
  0.46250000000000002       0.83750000000000002        0.0000000000000000     
  0.41875000000000001       0.83125000000000004        0.0000000000000000     
   6.2500000000000000E-002  0.62500000000000000        0.0000000000000000     
  0.12500000000000000       0.62500000000000000        0.0000000000000000     
  0.12500000000000000       0.68750000000000000        0.0000000000000000     
   3.7499999999999999E-002  0.66249999999999998        0.0000000000000000     
   8.1250000000000003E-002  0.66874999999999996        0.0000000000000000     
   8.7499999999999994E-002  0.71250000000000002        0.0000000000000000     
   4.3749999999999997E-002  0.70625000000000004        0.0000000000000000     
  0.18750000000000000       0.62500000000000000        0.0000000000000000     
  0.25000000000000000       0.62500000000000000        0.0000000000000000     
  0.25000000000000000       0.68750000000000000        0.0000000000000000     
  0.16250000000000001       0.66249999999999998        0.0000000000000000     
  0.20624999999999999       0.66874999999999996        0.0000000000000000     
  0.21249999999999999       0.71250000000000002        0.0000000000000000     
  0.16875000000000001       0.70625000000000004        0.0000000000000000     
   6.2500000000000000E-002  0.50000000000000000        0.0000000000000000     
  0.12500000000000000       0.50000000000000000        0.0000000000000000     
  0.12500000000000000       0.56250000000000000        0.0000000000000000     
   3.7499999999999999E-002  0.53749999999999998        0.0000000000000000     
   8.1250000000000003E-002  0.54374999999999996        0.0000000000000000     
   8.7499999999999994E-002  0.58750000000000002        0.0000000000000000     
   4.3749999999999997E-002  0.58125000000000004        0.0000000000000000     
  0.18750000000000000       0.50000000000000000        0.0000000000000000     
  0.25000000000000000       0.50000000000000000        0.0000000000000000     
  0.25000000000000000       0.56250000000000000        0.0000000000000000     
  0.16250000000000001       0.53749999999999998        0.0000000000000000     
  0.20624999999999999       0.54374999999999996        0.0000000000000000     
  0.21249999999999999       0.58750000000000002        0.0000000000000000     
  0.16875000000000001       0.58125000000000004        0.0000000000000000     
  0.31250000000000000       0.62500000000000000        0.0000000000000000     
  0.37500000000000000       0.62500000000000000        0.0000000000000000     
  0.37500000000000000       0.68750000000000000        0.0000000000000000     
  0.28749999999999998       0.66249999999999998        0.0000000000000000     
  0.33124999999999999       0.66874999999999996        0.0000000000000000     
  0.33750000000000002       0.71250000000000002        0.0000000000000000     
  0.29375000000000001       0.70625000000000004        0.0000000000000000     
  0.43750000000000000       0.62500000000000000        0.0000000000000000     
  0.50000000000000000       0.62500000000000000        0.0000000000000000     
  0.50000000000000000       0.68750000000000000        0.0000000000000000     
  0.41249999999999998       0.66249999999999998        0.0000000000000000     
  0.45624999999999999       0.66874999999999996        0.0000000000000000     
  0.46250000000000002       0.71250000000000002        0.0000000000000000     
  0.41875000000000001       0.70625000000000004        0.0000000000000000     
  0.31250000000000000       0.50000000000000000        0.0000000000000000     
  0.37500000000000000       0.50000000000000000        0.0000000000000000     
  0.37500000000000000       0.56250000000000000        0.0000000000000000     
  0.28749999999999998       0.53749999999999998        0.0000000000000000     
  0.33124999999999999       0.54374999999999996        0.0000000000000000     
  0.33750000000000002       0.58750000000000002        0.0000000000000000     
  0.29375000000000001       0.58125000000000004        0.0000000000000000     
  0.43750000000000000       0.50000000000000000        0.0000000000000000     
  0.50000000000000000       0.50000000000000000        0.0000000000000000     
  0.50000000000000000       0.56250000000000000        0.0000000000000000     
  0.41249999999999998       0.53749999999999998        0.0000000000000000     
  0.45624999999999999       0.54374999999999996        0.0000000000000000     
  0.46250000000000002       0.58750000000000002        0.0000000000000000     
  0.41875000000000001       0.58125000000000004        0.0000000000000000     
  0.56250000000000000       0.87500000000000000        0.0000000000000000     
  0.62500000000000000       0.87500000000000000        0.0000000000000000     
  0.62500000000000000       0.93750000000000000        0.0000000000000000     
  0.53749999999999998       0.91249999999999998        0.0000000000000000     
  0.58125000000000004       0.91874999999999996        0.0000000000000000     
  0.58750000000000002       0.96250000000000002        0.0000000000000000     
  0.54374999999999996       0.95625000000000004        0.0000000000000000     
  0.68750000000000000       0.87500000000000000        0.0000000000000000     
  0.75000000000000000       0.87500000000000000        0.0000000000000000     
  0.75000000000000000       0.93750000000000000        0.0000000000000000     
  0.66249999999999998       0.91249999999999998        0.0000000000000000     
  0.70625000000000004       0.91874999999999996        0.0000000000000000     
  0.71250000000000002       0.96250000000000002        0.0000000000000000     
[...]
 CELL_DATA         896
 SCALARS Cells_density float
 LOOKUP_TABLE default
    0.98998213318589256549E+00
    0.98998143546421246697E+00
    0.98997834873268275580E+00
    0.98997834794802508362E+00
    0.98998143917086456334E+00
    0.98998214059533606868E+00
    0.98998420982416646119E+00
    0.98998467347534502281E+00
    0.98998558409124748358E+00
    0.98998558591035823451E+00
    0.98998467737897555274E+00
    0.98998421043352013982E+00
    0.98998313398628556836E+00
    0.98998313240846536054E+00
    0.98996965468595810034E+00
    0.98996856399935861948E+00
    0.98996044897250146111E+00
    0.98996104779520022188E+00
    0.98996808363182187129E+00
    0.98996838321710745046E+00
    0.98997224685035833947E+00
    0.98997507786333460711E+00
    0.98997931176142317522E+00
    0.98998054398253909625E+00
    0.98997697276342322414E+00
    0.98997605200411820103E+00
    0.98997299601394528334E+00
    0.98997262750931769304E+00
    0.98996837622055411376E+00
    0.98996808056689244992E+00
    0.98996104813580954040E+00
    0.98996044839309449426E+00
    0.98996857235632917948E+00
    0.98996967317542960973E+00
    0.98997604568803287961E+00
    0.98997696951529867704E+00
    0.98998054344624664136E+00
    0.98997931160956198493E+00
    0.98997508189764804598E+00
    0.98997224753134838160E+00
    0.98997262996655333023E+00
    0.98997299477846312232E+00
    0.98993992012985698725E+00
    0.98993239459274062764E+00
    0.98990306809853068071E+00
    0.98990306788209714295E+00
    0.98993240274659766165E+00
    0.98993993862811235918E+00
    0.98995590040921077613E+00
    0.98995756733459305821E+00
    0.98996668623376138374E+00
    0.98996669339473886140E+00
    0.98995757589407340493E+00
    0.98995590768034946727E+00
    0.98994700603111274173E+00
    0.98994700298671589600E+00
    0.98994374910511195864E+00
    0.98994394542875230325E+00
    0.98993127100077848990E+00
    0.98993691864407362679E+00
    0.98994873915964309852E+00
    0.98995318735955251110E+00
    0.98995792702811569175E+00
    0.98995968071729145699E+00
    0.98996439874437469619E+00
    0.98996584205856219540E+00
    0.98995987976068933190E+00
    0.98995751487682126513E+00
    0.98995367491079189204E+00
    0.98995446294650990549E+00
    0.98991347980660981953E+00
    0.98992239194692122073E+00
    0.98991010135615431498E+00
    0.98992220695555099841E+00
    0.98993675338717523893E+00
    0.98994493657494586625E+00
    0.98994828231403630969E+00
    0.98994706464409176760E+00
    0.98995150115872554419E+00
    0.98995129782919510930E+00
    0.98994177429355578735E+00
    0.98993317451999174317E+00
    0.98993716957545252466E+00
    0.98994001121281272049E+00
    0.98976705200772174820E+00
    0.98978979768414809826E+00
    0.98963237043186114139E+00
    0.98974261458246681755E+00
    0.98985001356285795548E+00
    0.98988867295413351943E+00
    0.98991924951106202712E+00
    0.98991441855179262976E+00
    0.98993604054620165655E+00
    0.98993312068146999128E+00
    0.98990018694898795903E+00
    0.98987873325560138404E+00
    0.98987182593563405320E+00
    0.98988149779695777664E+00
    0.98937142170864944557E+00
    0.98958877762216868046E+00
    0.98935972409216221823E+00
    0.98962309325325370502E+00
    0.98978386247674088327E+00
    0.98985843680599228112E+00
    0.98989273014518219806E+00
    0.98987169450395851023E+00
    0.98989798082519686595E+00
    0.98988188584898040290E+00
    0.98980873089192000780E+00
    0.98970815949061896610E+00
    0.98977875414280303001E+00
    0.98981122687163825002E+00
    0.98995318034957757725E+00
    0.98994873609844658002E+00
    0.98993691898413471719E+00
    0.98993127043173712032E+00
    0.98994395154643910484E+00
    0.98994376602666434017E+00
    0.98995750867808696150E+00
    0.98995987654004535816E+00
    0.98996584155549705031E+00
    0.98996439860535934141E+00
    0.98995968477382800810E+00
    0.98995792771121726705E+00
    0.98995446395876585122E+00
    0.98995367223993291361E+00
    0.98988865415727977926E+00
    0.98985000539247913753E+00
    0.98974261409376862453E+00
    0.98963236928205389198E+00
    0.98978980634079061218E+00
    0.98976707154842691327E+00
    0.98987872604110005437E+00
    0.98990017823853859724E+00
    0.98993311817456475232E+00
    0.98993605231824022272E+00
    0.98991442462194723095E+00
    0.98991925500672428573E+00
    0.98988150024358279033E+00
    0.98987182232190551456E+00
    0.98994493154557350323E+00
    0.98993675034722261596E+00
    0.98992220729439672766E+00
    0.98991010082175157070E+00
    0.98992239813095472822E+00
    0.98991349695370578488E+00
    0.98993316829965294357E+00
    0.98994177105788616622E+00
    0.98995129732366171638E+00
    0.98995150101694528999E+00
    0.98994706717609870505E+00
    0.98994828185028871381E+00
    0.98994001223314120885E+00
    0.98993716687794686138E+00
    0.98985842216795283388E+00
    0.98978385447734940072E+00
    0.98962309279683735586E+00
    0.98935972316872966559E+00
    0.98958878435396924189E+00
    0.98937144128673293331E+00
    0.98970815220339558582E+00
    0.98980872193369118239E+00
    0.98988188312971303606E+00
    0.98989799262893163334E+00
    0.98987170060650353509E+00
    0.98989273569301761135E+00
    0.98981122923502695699E+00
    0.98977875032760453955E+00
    0.98830590260460315921E+00
    0.29870694998095480982E-02
    0.28963683925374456125E-06
    0.28963678225104639573E-06
    0.29870711023869626205E-02
    0.98830592719236343147E+00
    0.98935629496659116544E+00
    0.98883194493306081352E+00
    0.98965161514236754670E+00
    0.98965162200484912969E+00
    0.98883195170140503194E+00
    0.98935630114410144653E+00
    0.29693805712230235058E-02
    0.29693784496655486679E-02
    0.41267564238528715756E-05
    0.15106104577867285578E-05
    0.26251379111300000499E-03
    0.22414067291661776974E-05
    0.75729064498785457829E-02
    0.98718148622058921049E+00
    0.98879375066139063577E+00
    0.98721165199891947051E+00
    0.98891652692851139683E+00
    0.98810070349765466435E+00
    0.69520393566725666168E-02
    0.24624195640810363862E-07
    0.37388559506022442199E-05
    0.71849396560830893280E-02
    0.98718146306454412908E+00
    0.75729098359769873514E-02
    0.22414071939394937798E-05
    0.26251382879113400104E-03
    0.15106092819057459734E-05
    0.41267986639460078427E-05
    0.24624116769561335204E-07
    0.69520348169384649575E-02
    0.98810070015800011145E+00
    0.98891653926621170267E+00
    0.98721165804569988023E+00
    0.98879375718554329833E+00
    0.71849404811412248550E-02
    0.37388555935969270520E-05
    0.53687651275288253427E-01
    0.95396104483858143452E-01
    0.79316740111083236520E-01
    0.79316743655057558859E-01
    0.95396100460029470414E-01
    0.53687651307955046309E-01
    0.86144779129749306235E-02
    0.19606652069759089585E-01
    0.45031682622404163325E-03
    0.45031987142892378152E-03
    0.19606653934103560055E-01
    0.86144776747327841265E-02
    0.72550384803435757908E-01
    0.72550383375402135999E-01
    0.98990516564307917680E+00
    0.98992258933669741161E+00
    0.98991877309151621311E+00
    0.98993278662128680878E+00
    0.98994253338390736374E+00
    0.98995207104194338221E+00
    0.98995165803475060340E+00
    0.98994758342371058646E+00
    0.98994782946310699856E+00
    0.98994504279784767409E+00
    0.98993628237183173280E+00
    0.98992215027667340710E+00
    0.98993670414914947120E+00
    0.98994118712909351387E+00
    0.98992843556645304659E+00
    0.98994466282563287063E+00
    0.98994706527172826593E+00
    0.98995668421863924902E+00
    0.98996011205653133835E+00
    0.98996714392559270745E+00
    0.98996488045358066454E+00
    0.98996035391997083686E+00
    0.98995789738921780021E+00
    0.98995427172356975642E+00
    0.98994890080545594468E+00
    0.98993622284769788866E+00
    0.98995284556699036926E+00
    0.98995658665747376936E+00
    0.98925079627589329601E+00
    0.98958987469589332342E+00
    0.98947012812001144955E+00
    0.98970688085851421523E+00
    0.98981711112892090121E+00
    0.98988467501987220665E+00
    0.98990336019045077620E+00
    0.98987329394726009113E+00
    0.98988731404316854245E+00
    0.98985895677795288083E+00
    0.98977816152465070143E+00
    0.98962188529997130448E+00
    0.98977443174924550906E+00
    0.98981644238139931957E+00
    0.98958824495970698631E+00
    0.98978855779407559634E+00
    0.98979727050294996626E+00
    0.98987694595612807369E+00
    0.98990506235226505272E+00
    0.98993632360794014957E+00
    0.98993975923496679847E+00
    0.98991738330151135550E+00
    0.98991666363889130320E+00
    0.98989245722027940921E+00
    0.98984868494235611625E+00
    0.98973938953041440403E+00
    0.98986558105549682374E+00
    0.98989044519254065779E+00
    0.98995971445228381214E+00
    0.98996890407197668527E+00
    0.98997176339281833801E+00
    0.98997630939946057449E+00
    0.98997775734210535781E+00
    0.98998159624787629429E+00
    0.98997994504310793396E+00
    0.98997574082808137419E+00
    0.98997286937628747872E+00
    0.98996980038425819171E+00
    0.98996824890232937300E+00
    0.98996055696933282775E+00
    0.98997163737674875872E+00
    0.98997407048722108058E+00
    0.98997835876626527618E+00
    0.98998216643600411846E+00
    0.98998323063087445561E+00
    0.98998473745732751272E+00
    0.98998506999054602939E+00
    0.98998606786555054526E+00
    0.98998606888878337706E+00
    0.98998506612566905538E+00
    0.98998473411500809149E+00
    0.98998321546313527985E+00
    0.98998216392167537325E+00
    0.98997837114136477688E+00
    0.98998408918125091471E+00
    0.98998497060823575922E+00
    0.98989995521279583457E+00
    0.98993279250827337368E+00
    0.98994297552846188815E+00
    0.98995469993767581940E+00
    0.98995853678590728375E+00
    0.98996850391405089020E+00
    0.98996849997797164988E+00
    0.98995853041433345965E+00
    0.98995468879959336306E+00
    0.98994296392407710172E+00
    0.98993279408260648200E+00
    0.98989996852681672035E+00
    0.98994388904530361550E+00
    0.98995140214695098724E+00
    0.98996054049749382386E+00
    0.98996825172702807016E+00
    0.98996981573814601951E+00
    0.98997287300528424847E+00
    0.98997574589946180090E+00
    0.98997994827534241402E+00
    0.98998160567526127807E+00
    0.98997775776187779684E+00
    0.98997629931997010999E+00
    0.98997175209786791861E+00
    0.98996890590639663454E+00
    0.98995972356501793499E+00
    0.98997163742387228602E+00
    0.98997407085845390284E+00
    0.28440523238508881804E-03
    0.17815924638644308930E-05
    0.61725283811487833690E-06
    0.35513648205871112190E-06
    0.60894359580866211368E-02
    0.98813823031558689625E+00
    0.98903460912320240173E+00
    0.98735013025201401327E+00
    0.98868100112305634664E+00
    0.98724523401279251633E+00
    0.86667909183318174449E-02
    0.18903916239642366181E-05
    0.37580851809570206944E-05
    0.65630459349177950809E-02
   -0.86361393038456431767E-07
    0.36349192425447203296E-02
    0.98841318057851357270E+00
    0.98931693028701894743E+00
    0.98895558203724509561E+00
    0.98969123145462245539E+00
    0.98969122688182709080E+00
    0.98895557505822084821E+00
    0.98931691837314861271E+00
    0.98841316842499082895E+00
    0.36349193388320309196E-02
   -0.86361357454068514804E-07
    0.33613891532975512957E-05
    0.45819597210789665340E-02
    0.79376612449300429364E-01
    0.96410414270508976164E-01
    0.49662890159278112734E-01
    0.81894454077697641931E-02
    0.58561290510118109431E-02
    0.58979662162157806687E-04
    0.58979898744712094404E-04
    0.58561293233338430550E-02
    0.81894497670985250126E-02
    0.49662908033316778555E-01
    0.96410416385320316102E-01
    0.79376611713006126059E-01
    0.81385138915610930055E-01
    0.51025041694652002733E-01
    0.18903905200022489344E-05
    0.86667884263350279672E-02
    0.98724524627581800029E+00
    0.98868101578093481319E+00
    0.98735014006326082825E+00
    0.98903461600983777480E+00
    0.98813822399205397673E+00
    0.60894402062398956046E-02
    0.35513661490166470791E-06
    0.61725317790554787107E-06
    0.17815934413538334509E-05
    0.28440562410592579211E-03
    0.37580855228685334618E-05
    0.65630479092434190758E-02
    0.98973937122751720619E+00
    0.98984868309364459904E+00
    0.98989246883088799489E+00
    0.98991667486810730470E+00
    0.98991738973590370776E+00
    0.98993976436364805593E+00
    0.98993632072421222645E+00
    0.98990505596759581497E+00
    0.98987693480820315717E+00
    0.98979725890720271497E+00
    0.98978855949928157276E+00
    0.98958825495879565448E+00
    0.98986558106234789900E+00
    0.98989044515357738074E+00
    0.98993620627153355862E+00
    0.98994890359880671760E+00
    0.98995428711194410898E+00
    0.98995790102693503876E+00
    0.98996035901106160804E+00
    0.98996488371293123176E+00
    0.98996715343774166485E+00
    0.98996011249060911208E+00
    0.98995667422549027403E+00
    0.98994705402167415542E+00
    0.98994466469359143623E+00
    0.98992844486759734579E+00
    0.98995284562228269554E+00
    0.98995658703241340426E+00
    0.98962186552908126824E+00
    0.98977815926339907104E+00
    0.98985896836229914086E+00
    0.98988732674603852058E+00
    0.98987330247537586025E+00
    0.98990336546175050625E+00
    0.98988467201509955373E+00
    0.98981710461099803311E+00
    0.98970686941069696552E+00
    0.98947011875560630934E+00
    0.98958988038013284694E+00
    0.98925080823440081357E+00
    0.98977443162631273399E+00
    0.98981644202410901112E+00
    0.98992213276143792289E+00
    0.98993628511282671933E+00
    0.98994505818716260759E+00
    0.98994783310603640114E+00
    0.98994758852070741106E+00
    0.98995166130982892305E+00
    0.98995208057160710702E+00
    0.98994253379171470719E+00
    0.98993277655096967305E+00
    0.98991876425407054896E+00
    0.98992259492656875519E+00
    0.98990517518982723555E+00
    0.98993670420494184192E+00
    0.98994118749035442395E+00
    0.98995206500978893960E+00
    0.98994252832822926536E+00
    0.98993278803111006692E+00
    0.98991877255251292667E+00
    0.98992259548282590664E+00
    0.98990518280935524409E+00
    0.98992214404313327858E+00
    0.98993628092218743930E+00
    0.98994504599234856013E+00
    0.98994783131804509058E+00
    0.98994758594819942665E+00
    0.98995165657104033929E+00
    0.98994118620925386498E+00
    0.98993670320141913255E+00
    0.98988466050557999409E+00
    0.98981709952275209741E+00
    0.98970688169207121643E+00
    0.98947012719557481120E+00
    0.98958988115179591372E+00
    0.98925081633203770792E+00
    0.98962187795601486151E+00
    0.98977815552923431586E+00
    0.98985895731002637721E+00
    0.98988732585597638547E+00
    0.98987330017161945239E+00
    0.98990336571539649935E+00
    0.98981644117145228812E+00
    0.98977443084291027997E+00
    0.98996713790107015996E+00
    0.98996010700949987893E+00
    0.98995668560435223782E+00
    0.98994706274371735422E+00
    0.98994466588523910566E+00
    0.98992845250231387144E+00
    0.98993621784564556076E+00
    0.98994889936590457769E+00
    0.98995427491298415568E+00
    0.98995789924256061276E+00
    0.98996035644415658616E+00
    0.98996487899756180351E+00
    0.98995658575959177838E+00
    0.98995284461928034769E+00
    0.98993630941218524466E+00
    0.98990505077193502448E+00
    0.98987694654459579269E+00
    0.98979726764976150299E+00
    0.98978856076834564881E+00
    0.98958826298733204574E+00
    0.98973938366605540562E+00
    0.98984867914092589114E+00
    0.98989245783759138853E+00
    0.98991667449966558312E+00
    0.98991738814735885654E+00
    0.98993976471371170067E+00
    0.98989044430458184021E+00
    0.98986558027136140048E+00
    0.98813821019026348846E+00
    0.60894373410989586018E-02
    0.35513649349678363193E-06
    0.61725323172468916854E-06
    0.17815931486216903582E-05
    0.28440558919370510825E-03
    0.18903901666190928296E-05
    0.86667870131768368069E-02
    0.98724523071409930886E+00
    0.98868101363316607255E+00
    0.98735013735753696107E+00
    0.98903461535185832609E+00
    0.65630466913683040836E-02
    0.37580851236988585037E-05
    0.58979907981372040689E-04
    0.58561298150887949182E-02
    0.81894497523281699347E-02
    0.49662908041684779292E-01
    0.96410416636729723283E-01
    0.79376611320584766762E-01
    0.79376612720001307744E-01
    0.96410413972077696476E-01
    0.49662885463153574883E-01
    0.81894448817577941008E-02
    0.58561296873680330002E-02
    0.58979675150923156963E-04
    0.51025043416478718661E-01
    0.81385141764257110109E-01
    0.98969121619953281943E+00
    0.98895557020938806847E+00
    0.98931693078553828435E+00
    0.98841317774581582967E+00
    0.36349184766225682390E-02
   -0.86361344032956111752E-07
   -0.86361445212683687586E-07
    0.36349140870058681621E-02
    0.98841316706780268930E+00
    0.98931692941059135027E+00
    0.98895558033817876353E+00
    0.98969123235563505325E+00
    0.45819587697761765197E-02
    0.33613888257576198628E-05
    0.98903459209855693057E+00
    0.98735013168958007945E+00
    0.98868101882236703037E+00
    0.98724524293063287139E+00
    0.86667879387602297231E-02
    0.18903923978225833298E-05
    0.28440589936119760111E-03
    0.17815947942665661192E-05
    0.61724938534761310090E-06
    0.35513649884135665301E-06
    0.60894372731820495259E-02
    0.98813822702769227302E+00
    0.65630457830243181180E-02
    0.37580850334545910277E-05
    0.98998159026690302209E+00
    0.98997775231405993335E+00
    0.98997631078534731319E+00
    0.98997176088635030489E+00
    0.98996890709984142198E+00
    0.98995973118346214381E+00
    0.98996055197761079203E+00
    0.98996824747892109286E+00
    0.98996980357135788697E+00
    0.98997287122624311184E+00
    0.98997574334393989570E+00
    0.98997994359360808048E+00
    0.98997406959792677572E+00
    0.98997163642959451479E+00
    0.98996848976245377383E+00
    0.98995852523901695097E+00
    0.98995470042106559205E+00
    0.98994297273085674060E+00
    0.98993279531279243511E+00
    0.98989997214750102827E+00
    0.98989996290281190294E+00
    0.98993278845309107261E+00
    0.98994296471947718086E+00
    0.98995469965879290264E+00
    0.98995853524986243688E+00
    0.98996850519998713658E+00
    0.98995140130354264407E+00
    0.98994388825919465980E+00
    0.98998606903519847933E+00
    0.98998506569202249228E+00
    0.98998473532034692024E+00
    0.98998322708354036248E+00
    0.98998216979300479590E+00
    0.98997837638436581020E+00
    0.98997836701884922572E+00
    0.98998216258594573524E+00
    0.98998321869208616430E+00
    0.98998473605194048375E+00
    0.98998506897768734358E+00
    0.98998606760335050581E+00
    0.98998496995584861491E+00
    0.98998408843119456435E+00
    0.98997995025107832223E+00
    0.98997574197786930572E+00
    0.98997287099424702284E+00
    0.98996981221443236532E+00
    0.98996825504288599173E+00
    0.98996056248499253449E+00
    0.98995972308528468186E+00
    0.98996890062588105419E+00
    0.98997175315251473293E+00
    0.98997631041753719749E+00
    0.98997776394860936833E+00
    0.98998161212255209040E+00
    0.98997407175894269749E+00
    0.98997163732776627398E+00
    0.98993974487864477840E+00
    0.98991737824642656030E+00
    0.98991667531297722338E+00
    0.98989246602248359697E+00
    0.98984868605747022841E+00
    0.98973939407606625895E+00
    0.98958825435555586303E+00
    0.98978855361681361558E+00
    0.98979725923190819969E+00
    0.98987694566465089796E+00
    0.98990506086361806926E+00
    0.98993632079259497036E+00
    0.98989044439998541414E+00
    0.98986558028106297336E+00
    0.98990334563169180004E+00
    0.98987329397623402549E+00
    0.98988732919941657684E+00
    0.98985896550626462087E+00
    0.98977816247581917874E+00
    0.98962188446023779953E+00
    0.98925080662705588974E+00
    0.98958987581434232350E+00
    0.98947011960890818294E+00
    0.98970688055788036408E+00
    0.98981710964690294841E+00
    0.98988467230722521073E+00