# vtk DataFile Version 3.0
LAPLACIEN  2D
ASCII
DATASET UNSTRUCTURED_GRID
 POINTS         481  float
   6.2500000000000000E-002  0.87500000000000000        0.0000000000000000     
  0.12500000000000000       0.87500000000000000        0.0000000000000000     
  0.12500000000000000       0.93750000000000000        0.0000000000000000     
   3.7499999999999999E-002  0.91249999999999998        0.0000000000000000     
   8.1250000000000003E-002  0.91874999999999996        0.0000000000000000     
   8.7499999999999994E-002  0.96250000000000002        0.0000000000000000     
   4.3749999999999997E-002  0.95625000000000004        0.0000000000000000     
  0.18750000000000000       0.87500000000000000        0.0000000000000000     
  0.25000000000000000       0.87500000000000000        0.0000000000000000     
  0.25000000000000000       0.93750000000000000        0.0000000000000000     
  0.16250000000000001       0.91249999999999998        0.0000000000000000     
  0.20624999999999999       0.91874999999999996        0.0000000000000000     
  0.21249999999999999       0.96250000000000002        0.0000000000000000     
  0.16875000000000001       0.95625000000000004        0.0000000000000000     
   6.2500000000000000E-002  0.75000000000000000        0.0000000000000000     
  0.12500000000000000       0.75000000000000000        0.0000000000000000     
  0.12500000000000000       0.81250000000000000        0.0000000000000000     
   3.7499999999999999E-002  0.78749999999999998        0.0000000000000000     
   8.1250000000000003E-002  0.79374999999999996        0.0000000000000000     
   8.7499999999999994E-002  0.83750000000000002        0.0000000000000000     
   4.3749999999999997E-002  0.83125000000000004        0.0000000000000000     
  0.18750000000000000       0.75000000000000000        0.0000000000000000     
  0.25000000000000000       0.75000000000000000        0.0000000000000000     
  0.25000000000000000       0.81250000000000000        0.0000000000000000     
  0.16250000000000001       0.78749999999999998        0.0000000000000000     
  0.20624999999999999       0.79374999999999996        0.0000000000000000     
  0.21249999999999999       0.83750000000000002        0.0000000000000000     
  0.16875000000000001       0.83125000000000004        0.0000000000000000     
  0.31250000000000000       0.87500000000000000        0.0000000000000000     
  0.37500000000000000       0.87500000000000000        0.0000000000000000     
  0.37500000000000000       0.93750000000000000        0.0000000000000000     
  0.28749999999999998       0.91249999999999998        0.0000000000000000     
  0.33124999999999999       0.91874999999999996        0.0000000000000000     
  0.33750000000000002       0.96250000000000002        0.0000000000000000     
  0.29375000000000001       0.95625000000000004        0.0000000000000000     
  0.43750000000000000       0.87500000000000000        0.0000000000000000     
  0.50000000000000000       0.87500000000000000        0.0000000000000000     
  0.50000000000000000       0.93750000000000000        0.0000000000000000     
  0.41249999999999998       0.91249999999999998        0.0000000000000000     
  0.45624999999999999       0.91874999999999996        0.0000000000000000     
  0.46250000000000002       0.96250000000000002        0.0000000000000000     
  0.41875000000000001       0.95625000000000004        0.0000000000000000     
  0.31250000000000000       0.75000000000000000        0.0000000000000000     
  0.37500000000000000       0.75000000000000000        0.0000000000000000     
  0.37500000000000000       0.81250000000000000        0.0000000000000000     
  0.28749999999999998       0.78749999999999998        0.0000000000000000     
  0.33124999999999999       0.79374999999999996        0.0000000000000000     
  0.33750000000000002       0.83750000000000002        0.0000000000000000     
  0.29375000000000001       0.83125000000000004        0.0000000000000000     
  0.43750000000000000       0.75000000000000000        0.0000000000000000     
  0.50000000000000000       0.75000000000000000        0.0000000000000000     
  0.50000000000000000       0.81250000000000000        0.0000000000000000     
  0.41249999999999998       0.78749999999999998        0.0000000000000000     
  0.45624999999999999       0.79374999999999996        0.0000000000000000     
  0.46250000000000002       0.83750000000000002        0.0000000000000000     
  0.41875000000000001       0.83125000000000004        0.0000000000000000     
   6.2500000000000000E-002  0.62500000000000000        0.0000000000000000     
  0.12500000000000000       0.62500000000000000        0.0000000000000000     
  0.12500000000000000       0.68750000000000000        0.0000000000000000     
   3.7499999999999999E-002  0.66249999999999998        0.0000000000000000     
   8.1250000000000003E-002  0.66874999999999996        0.0000000000000000     
   8.7499999999999994E-002  0.71250000000000002        0.0000000000000000     
   4.3749999999999997E-002  0.70625000000000004        0.0000000000000000     
  0.18750000000000000       0.62500000000000000        0.0000000000000000     
  0.25000000000000000       0.62500000000000000        0.0000000000000000     
  0.25000000000000000       0.68750000000000000        0.0000000000000000     
  0.16250000000000001       0.66249999999999998        0.0000000000000000     
  0.20624999999999999       0.66874999999999996        0.0000000000000000     
  0.21249999999999999       0.71250000000000002        0.0000000000000000     
  0.16875000000000001       0.70625000000000004        0.0000000000000000     
   6.2500000000000000E-002  0.50000000000000000        0.0000000000000000     
  0.12500000000000000       0.50000000000000000        0.0000000000000000     
  0.12500000000000000       0.56250000000000000        0.0000000000000000     
   3.7499999999999999E-002  0.53749999999999998        0.0000000000000000     
   8.1250000000000003E-002  0.54374999999999996        0.0000000000000000     
   8.7499999999999994E-002  0.58750000000000002        0.0000000000000000     
   4.3749999999999997E-002  0.58125000000000004        0.0000000000000000     
  0.18750000000000000       0.50000000000000000        0.0000000000000000     
  0.25000000000000000       0.50000000000000000        0.0000000000000000     
  0.25000000000000000       0.56250000000000000        0.0000000000000000     
  0.16250000000000001       0.53749999999999998        0.0000000000000000     
  0.20624999999999999       0.54374999999999996        0.0000000000000000     
  0.21249999999999999       0.58750000000000002        0.0000000000000000     
  0.16875000000000001       0.58125000000000004        0.0000000000000000     
  0.31250000000000000       0.62500000000000000        0.0000000000000000     
  0.37500000000000000       0.62500000000000000        0.0000000000000000     
  0.37500000000000000       0.68750000000000000        0.0000000000000000     
  0.28749999999999998       0.66249999999999998        0.0000000000000000     
  0.33124999999999999       0.66874999999999996        0.0000000000000000     
  0.33750000000000002       0.71250000000000002        0.0000000000000000     
  0.29375000000000001       0.70625000000000004        0.0000000000000000     
  0.43750000000000000       0.62500000000000000        0.0000000000000000     
  0.50000000000000000       0.62500000000000000        0.0000000000000000     
  0.50000000000000000       0.68750000000000000        0.0000000000000000     
  0.41249999999999998       0.66249999999999998        0.0000000000000000     
  0.45624999999999999       0.66874999999999996        0.0000000000000000     
  0.46250000000000002       0.71250000000000002        0.0000000000000000     
  0.41875000000000001       0.70625000000000004        0.0000000000000000     
  0.31250000000000000       0.50000000000000000        0.0000000000000000     
  0.37500000000000000       0.50000000000000000        0.0000000000000000     
  0.37500000000000000       0.56250000000000000        0.0000000000000000     
  0.28749999999999998       0.53749999999999998        0.0000000000000000     
  0.33124999999999999       0.54374999999999996        0.0000000000000000     
  0.33750000000000002       0.58750000000000002        0.0000000000000000     
  0.29375000000000001       0.58125000000000004        0.0000000000000000     
  0.43750000000000000       0.50000000000000000        0.0000000000000000     
  0.50000000000000000       0.50000000000000000        0.0000000000000000     
  0.50000000000000000       0.56250000000000000        0.0000000000000000     
  0.41249999999999998       0.53749999999999998        0.0000000000000000     
  0.45624999999999999       0.54374999999999996        0.0000000000000000     
  0.46250000000000002       0.58750000000000002        0.0000000000000000     
  0.41875000000000001       0.58125000000000004        0.0000000000000000     
  0.56250000000000000       0.87500000000000000        0.0000000000000000     
  0.62500000000000000       0.87500000000000000        0.0000000000000000     
  0.62500000000000000       0.93750000000000000        0.0000000000000000     
  0.53749999999999998       0.91249999999999998        0.0000000000000000     
  0.58125000000000004       0.91874999999999996        0.0000000000000000     
  0.58750000000000002       0.96250000000000002        0.0000000000000000     
  0.54374999999999996       0.95625000000000004        0.0000000000000000     
  0.68750000000000000       0.87500000000000000        0.0000000000000000     
  0.75000000000000000       0.87500000000000000        0.0000000000000000     
  0.75000000000000000       0.93750000000000000        0.0000000000000000     
  0.66249999999999998       0.91249999999999998        0.0000000000000000     
  0.70625000000000004       0.91874999999999996        0.0000000000000000     
  0.71250000000000002       0.96250000000000002        0.0000000000000000     
[...]
 CELL_DATA         896
 SCALARS Cells_density float
 LOOKUP_TABLE default
    0.98996532248886670580E+00
    0.98996361812236921551E+00
    0.98995468028724098453E+00
    0.98995451757120100922E+00
    0.98996359813263634653E+00
    0.98996553560998834520E+00
    0.98997065752036839115E+00
    0.98997219669360447813E+00
    0.98997502869136522197E+00
    0.98997497404350920380E+00
    0.98997223380600252174E+00
    0.98997075788201260860E+00
    0.98996773589977016261E+00
    0.98996770262766731197E+00
    0.98992191095737880335E+00
    0.98991669410468074997E+00
    0.98987454123848528376E+00
    0.98988507652653123792E+00
    0.98992178155545029750E+00
    0.98992988547506199914E+00
    0.98994292055221089210E+00
    0.98994898101323158812E+00
    0.98995944463920793055E+00
    0.98996146223981296153E+00
    0.98995087035000406406E+00
    0.98994754982480159811E+00
    0.98993742125262496057E+00
    0.98993785458487815188E+00
    0.98992964139165129378E+00
    0.98992176323502967250E+00
    0.98988525909986380125E+00
    0.98987440308677998591E+00
    0.98991678862920973181E+00
    0.98992224178143539692E+00
    0.98994739328852676685E+00
    0.98995088353273352766E+00
    0.98996149849156811484E+00
    0.98995930957123356997E+00
    0.98994898078610060743E+00
    0.98994299252012574186E+00
    0.98993789093375661459E+00
    0.98993738126176378245E+00
    0.98968707725489912796E+00
    0.98957790451009430832E+00
    0.98916122152473040519E+00
    0.98916104855841635590E+00
    0.98957799947745905822E+00
    0.98968741817440952779E+00
    0.98983370884604149342E+00
    0.98984023445104962757E+00
    0.98990608749677244660E+00
    0.98990600476214540837E+00
    0.98984030091804831031E+00
    0.98983387918276422024E+00
    0.98974532351062460833E+00
    0.98974526588810540773E+00
    0.98975942248466353135E+00
    0.98978250183963845110E+00
    0.98966703673923117623E+00
    0.98974313235914457287E+00
    0.98984065725588932239E+00
    0.98987727847421891347E+00
    0.98989883962381086668E+00
    0.98990162263936398723E+00
    0.98992049238241763831E+00
    0.98992177539039838408E+00
    0.98988936428805129886E+00
    0.98986408552480531498E+00
    0.98986060342429083025E+00
    0.98987048823879864035E+00
    0.98948549130483531844E+00
    0.98962226586058243960E+00
    0.98947700899926882556E+00
    0.98964310962916124392E+00
    0.98978006860426825941E+00
    0.98984651809472368189E+00
    0.98986659189144621251E+00
    0.98985662880714919698E+00
    0.98987692499929413881E+00
    0.98986969846597494538E+00
    0.98980303734689256689E+00
    0.98971546923790632011E+00
    0.98977448858603300774E+00
    0.98980345868606756099E+00
    0.98683014604462460095E+00
    0.98699449417934825846E+00
    0.98336186904700939593E+00
    0.98583167978922736641E+00
    0.98819406463272496666E+00
    0.98903736289439203588E+00
    0.98950511584308475932E+00
    0.98939604150387283621E+00
    0.98967144663436656948E+00
    0.98961504809063582933E+00
    0.98912213521926695137E+00
    0.98878475578463076445E+00
    0.98866270409089951343E+00
    0.98882756927856163554E+00
    0.96977922067031219200E+00
    0.98008011517801985057E+00
    0.96904770865514167077E+00
    0.98203012513801934968E+00
    0.98664072395599877741E+00
    0.98855900336725788247E+00
    0.98919182105466874066E+00
    0.98876865865243313003E+00
    0.98924708103890190980E+00
    0.98893920871107221515E+00
    0.98724405595398034841E+00
    0.98488760002736674970E+00
    0.98667514963687552587E+00
    0.98737340938894191389E+00
    0.98987703323592157734E+00
    0.98984063920406450965E+00
    0.98974331809667148718E+00
    0.98966689452211553668E+00
    0.98978255660048364284E+00
    0.98975973095922531453E+00
    0.98986392916499221784E+00
    0.98988937838980173289E+00
    0.98992179615269715320E+00
    0.98992034052066113503E+00
    0.98990166494514542084E+00
    0.98989894441025849670E+00
    0.98987051992585872728E+00
    0.98986055824828422800E+00
    0.98903698697303166210E+00
    0.98819396631588618529E+00
    0.98583194762925452359E+00
    0.98336157420196679269E+00
    0.98699459206602979666E+00
    0.98683061243990011224E+00
    0.98878456086964483518E+00
    0.98912206073672337414E+00
    0.98961515872373606584E+00
    0.98967138210052096881E+00
    0.98939609503857750550E+00
    0.98950528454354913510E+00
    0.98882762867367557380E+00
    0.98866264028885031401E+00
    0.98984637951305587400E+00
    0.98978005063601015578E+00
    0.98964329747065460374E+00
    0.98947686302109039147E+00
    0.98962232300202124247E+00
    0.98948581519982381494E+00
    0.98971531020729086592E+00
    0.98980305131735335511E+00
    0.98986979268163810541E+00
    0.98987684552778998359E+00
    0.98985663007523094770E+00
    0.98986666560442737595E+00
    0.98980349057662220247E+00
    0.98977444268920722337E+00
    0.98855876171018886023E+00
    0.98664062094187110485E+00
    0.98203048034504025754E+00
    0.96904711000872412185E+00
    0.98008032742817885463E+00
    0.96978061476248322847E+00
    0.98488733285962126729E+00
    0.98724395903095885085E+00
    0.98893932099888770537E+00
    0.98924700850781921435E+00
    0.98876871379366071402E+00
    0.98919199856671569115E+00
    0.98737346993778807303E+00
    0.98667506091218348807E+00
    0.88606135938525965035E+00
    0.11962719251796546938E+00
    0.46210506671248118005E-02
    0.46210389673253205942E-02
    0.11962466479248218265E+00
    0.88606602355769470414E+00
    0.97392009293990311480E+00
    0.93785778380655038244E+00
    0.98504659822960682902E+00
    0.98504638357165907880E+00
    0.93785794637389074957E+00
    0.97392063363688574640E+00
    0.72473489655485695549E-01
    0.72473541929944859663E-01
    0.10728871244317029349E-01
    0.11603187225748747002E-01
    0.13264593986500299722E-01
    0.11883573672058274362E+00
    0.41369419525456763154E+00
    0.71254660437879446810E+00
    0.89510031224091657354E+00
    0.48137984406399442205E+00
    0.94177623365374030229E+00
    0.90235305629277517969E+00
    0.25363451557183197549E+00
    0.84622583086244700101E-02
    0.18204404801343193609E+00
    0.41055336402057168721E+00
    0.71253919035394253090E+00
    0.41370123290136068261E+00
    0.11883639297324531670E+00
    0.13264630825387499144E-01
    0.11603189967264313648E-01
    0.10728880240132594032E-01
    0.84622450873586066433E-02
    0.25363289285724743838E+00
    0.90235562936416324753E+00
    0.94177461784330929184E+00
    0.48137980794051365985E+00
    0.89510233992668009062E+00
    0.41055450779411334361E+00
    0.18204430231243434735E+00
    0.15940363316501594826E-01
    0.16042977803549029331E-01
    0.15677007795154986741E-01
    0.15677034298153202929E-01
    0.16042978784175293550E-01
    0.15940374640940037365E-01
    0.14415599235294130828E-01
    0.14639949707633643713E-01
    0.12158290213748312869E-01
    0.12158335722384611480E-01
    0.14639950387687290789E-01
    0.14415589962004066171E-01
    0.15895742499132614611E-01
    0.15895749043248270232E-01
    0.98940076926481601571E+00
    0.98962130673674963965E+00
    0.98955318423588312093E+00
    0.98971404851608490993E+00
    0.98981033504974325066E+00
    0.98987279872473432629E+00
    0.98987918215033099401E+00
    0.98985830899557558649E+00
    0.98986465704284443134E+00
    0.98984688568019407739E+00
    0.98977421721495784102E+00
    0.98964112839846718472E+00
    0.98977063748032412249E+00
    0.98980844546789348293E+00
    0.98962930842673046961E+00
    0.98978226111242395557E+00
    0.98978840758947583822E+00
    0.98986217675110943492E+00
    0.98989372240186035423E+00
    0.98992547243361916909E+00
    0.98992245770967934870E+00
    0.98990468706621426165E+00
    0.98989879761751564669E+00
    0.98988091218644158609E+00
    0.98983908472029247250E+00
    0.98973887964862550248E+00
    0.98985447930188474874E+00
    0.98987932260654121208E+00
    0.95638984099162704933E+00
    0.98002863089637082261E+00
    0.97619361443086671848E+00
    0.98478401767837020486E+00
    0.98746382920845576781E+00
    0.98897234845893167154E+00
    0.98932311138894057922E+00
    0.98879364287788051868E+00
    0.98910926116160247101E+00
    0.98857159707161801343E+00
    0.98643430238327067805E+00
    0.98191315684238045236E+00
    0.98650564293853881814E+00
    0.98748705580591711328E+00
    0.98153453901867160347E+00
    0.98695250057256711518E+00
    0.98738337915347518248E+00
    0.98874956587646378736E+00
    0.98920158049055328942E+00
    0.98964530592892741012E+00
    0.98970590445745398878E+00
    0.98943273208061099933E+00
    0.98946655235910196957E+00
    0.98908589446739547668E+00
    0.98815178026227479258E+00
    0.98563410033878950944E+00
    0.98850946332759559443E+00
    0.98896761917111908335E+00
    0.98986743979475133592E+00
    0.98991718274167628255E+00
    0.98992934215346561899E+00
    0.98994749808678894620E+00
    0.98995308834506912099E+00
    0.98996381704780234134E+00
    0.98996088537722937151E+00
    0.98995099364806715680E+00
    0.98994395090239950541E+00
    0.98993353949953488691E+00
    0.98992212250841693510E+00
    0.98988275695573457735E+00
    0.98993365290221657649E+00
    0.98994305332055643198E+00
    0.98995407443195204689E+00
    0.98996482811977282168E+00
    0.98996794653920883178E+00
    0.98997161104848552249E+00
    0.98997327543864321875E+00
    0.98997608293637084920E+00
    0.98997603390069877083E+00
    0.98997331859218529182E+00
    0.98997168373841515354E+00
    0.98996764362169931140E+00
    0.98996475983339482507E+00
    0.98995430030761599749E+00
    0.98996829775608352620E+00
    0.98997100853196517978E+00
    0.98910862536418586721E+00
    0.98957629655675016789E+00
    0.98971617156989677433E+00
    0.98982700592158501252E+00
    0.98985170571324276878E+00
    0.98991404882113631647E+00
    0.98991390511354038217E+00
    0.98985163506106210729E+00
    0.98982703638483371389E+00
    0.98971584999982031849E+00
    0.98957629189169837858E+00
    0.98910888704171373575E+00
    0.98971079020731755893E+00
    0.98978738257070919548E+00
    0.98988247312520083465E+00
    0.98992219650529211794E+00
    0.98993384745500723199E+00
    0.98994392082284909939E+00
    0.98995102376721710868E+00
    0.98996104546482477371E+00
    0.98996383142258559396E+00
    0.98995312184387140864E+00
    0.98994754191410749833E+00
    0.98992903294519074553E+00
    0.98991717994016437121E+00
    0.98986762214634549384E+00
    0.98993365293294344198E+00
    0.98994305867390741671E+00
    0.13972967708657425476E-01
    0.11169698473291413479E-01
    0.95764072019330296476E-02
    0.70534197829831149842E-02
    0.23080159186254314840E+00
    0.90175562595878822059E+00
    0.94117646336858717948E+00
    0.53366825793280570078E+00
    0.90724627067070384712E+00
    0.69450106581167492248E+00
    0.41317737481343130845E+00
    0.14648853435142211721E+00
    0.18668321907119417302E+00
    0.40799486189014944060E+00
    0.33180686293679197314E-02
    0.13665966556732306314E+00
    0.89207430668772780269E+00
    0.97406071775234626120E+00
    0.94543958174246356396E+00
    0.98566565296821651021E+00
    0.98566534747716028075E+00
    0.94543930420275756887E+00
    0.97406095874406983803E+00
    0.89207214624956754356E+00
    0.13666058154284768666E+00
    0.33180817596665224643E-02
    0.37227587272480860275E-02
    0.11013880254730930297E+00
    0.15718022122984693506E-01
    0.16223995547669626399E-01
    0.16009694257150045710E-01
    0.15003484503412168813E-01
    0.14680561583252314459E-01
    0.11407050798606443304E-01
    0.11407064505026419735E-01
    0.14680561823177361302E-01
    0.15003440089670612781E-01
    0.16009720032656542255E-01
    0.16223996000480526286E-01
    0.15718032384564661202E-01
    0.16237796526622442356E-01
    0.15817299643085879629E-01
    0.14648835273899285525E+00
    0.41317554693315533543E+00
    0.69450546212911479227E+00
    0.90724460862862077448E+00
    0.53366733154946388584E+00
    0.94117844319808552367E+00
    0.90175119165703132573E+00
    0.23080573303151677433E+00
    0.70534400618452808632E-02
    0.95764285020987962443E-02
    0.11169696327453102619E-01
    0.13972970792601737203E-01
    0.18668338720822547083E+00
    0.40799569667498447600E+00
    0.98563363102561230011E+00
    0.98815175949960953883E+00
    0.98908623578310794766E+00
    0.98946651927172046825E+00
    0.98943280453236182037E+00
    0.98970608837244899991E+00
    0.98964518751078445202E+00
    0.98920150555257391201E+00
    0.98874960748529538979E+00
    0.98738298605482122117E+00
    0.98695250871443063190E+00
    0.98153507760988678577E+00
    0.98850946411127804669E+00
    0.98896761554013090656E+00
    0.98973859018799126286E+00
    0.98983915865936955569E+00
    0.98988122216918883467E+00
    0.98989876780436336645E+00
    0.98990471818921743630E+00
    0.98992262171807932081E+00
    0.98992549114950534328E+00
    0.98989375762818465621E+00
    0.98986222380704380619E+00
    0.98978809583195237476E+00
    0.98978225925329865742E+00
    0.98962950164624008398E+00
    0.98985448007161036532E+00
    0.98987932876674045168E+00
    0.98191266181307979011E+00
    0.98643419615650906884E+00
    0.98857195368036254735E+00
    0.98910922943446566435E+00
    0.98879372266852194606E+00
    0.98932331075870805215E+00
    0.98897221384480871187E+00
    0.98746373713021839968E+00
    0.98478408603548894806E+00
    0.97619297617218470098E+00
    0.98002884170188109270E+00
    0.95639151816421863472E+00
    0.98650559525811842843E+00
    0.98748703093761835969E+00
    0.98964089034808055967E+00
    0.98977427880570345575E+00
    0.98984719663819886737E+00
    0.98986463165703586498E+00
    0.98985834719888499134E+00
    0.98987930286464231866E+00
    0.98987277323460010070E+00
    0.98981040775950779320E+00
    0.98971409567538060070E+00
    0.98955291270123413305E+00
    0.98962137957719198411E+00
    0.98940097309860419728E+00
    0.98977062712638641528E+00
    0.98980848737878002197E+00
    0.98987265708444449608E+00
    0.98981033453672007116E+00
    0.98971418740461170049E+00
    0.98955304036365210330E+00
    0.98962136360872599017E+00
    0.98940109741678605726E+00
    0.98964096880170371318E+00
    0.98977423622520988022E+00
    0.98984707496834345442E+00
    0.98986458075261829492E+00
    0.98985831031437332417E+00
    0.98987925253890751698E+00
    0.98980849389631175850E+00
    0.98977059678496159822E+00
    0.98897211766297865587E+00
    0.98746367626269104800E+00
    0.98478427544221602830E+00
    0.97619318559830670079E+00
    0.98002884128043232792E+00
    0.95639183698182494986E+00
    0.98191288515492358702E+00
    0.98643418552191897142E+00
    0.98857183457554720363E+00
    0.98910918608570863597E+00
    0.98879369922085669220E+00
    0.98932328527852875233E+00
    0.98748705449536167134E+00
    0.98650556247530740706E+00
    0.98992532487788875706E+00
    0.98989368437917468757E+00
    0.98986231287982162641E+00
    0.98978823055077791437E+00
    0.98978225783461959431E+00
    0.98962962366538254066E+00
    0.98973866546272359912E+00
    0.98983911197885765532E+00
    0.98988110085137837046E+00
    0.98989872989492466715E+00
    0.98990470092189553064E+00
    0.98992252084843346260E+00
    0.98987933512737147357E+00
    0.98985444663315669267E+00
    0.98964510219142542979E+00
    0.98920143976060792568E+00
    0.98874972123801596613E+00
    0.98738314267131399582E+00
    0.98695251240379344715E+00
    0.98153529186729671085E+00
    0.98563378980730986800E+00
    0.98815172687991792433E+00
    0.98908612441983656538E+00
    0.98946648224839939267E+00
    0.98943278452153071711E+00
    0.98970606866870103335E+00
    0.98896763487860728237E+00
    0.98850943236090460520E+00
    0.90175062462156951870E+00
    0.23080684519325073145E+00
    0.70534516156854805413E-02
    0.95764285099278166624E-02
    0.11169703894858187126E-01
    0.13972976232453276912E-01
    0.14648825001687235114E+00
    0.41317814007261621789E+00
    0.69450365167792460497E+00
    0.90724319069611369937E+00
    0.53366881140704858222E+00
    0.94117776357861770986E+00
    0.40799616420139467321E+00
    0.18668432234096962730E+00
    0.11407050685554963668E-01
    0.14680560546499535346E-01
    0.15003461152014466173E-01
    0.16009719912592933894E-01
    0.16223995372761212258E-01
    0.15718032305063047577E-01
    0.15718041608239266549E-01
    0.16223995070445331595E-01
    0.16009668961885475252E-01
    0.15003484111581385715E-01
    0.14680561292763367326E-01
    0.11407051240998569708E-01
    0.15817292333514226810E-01
    0.16237803642138681076E-01
    0.98566527890596422612E+00
    0.94543937873374728209E+00
    0.97406113519864734318E+00
    0.89207267421171176913E+00
    0.13666006983438921951E+00
    0.33180764740398690886E-02
    0.33180784690502642537E-02
    0.13666040938492352019E+00
    0.89207317051335310865E+00
    0.97406043597634317521E+00
    0.94543959997151472141E+00
    0.98566560929910540523E+00
    0.11013875572593467833E+00
    0.37227567399200885492E-02
    0.94117589159924441855E+00
    0.53366867252896588170E+00
    0.90724704958969060176E+00
    0.69450100825823635198E+00
    0.41317690253223882113E+00
    0.14648854449301465519E+00
    0.13972986559811665513E-01
    0.11169686880439720980E-01
    0.95763859350137588849E-02
    0.70534203849637149009E-02
    0.23080168906233469728E+00
    0.90175569441246417046E+00
    0.40799400189868534339E+00
    0.18668207151979002156E+00
    0.98996366855343798097E+00
    0.98995305113965459398E+00
    0.98994763359699844418E+00
    0.98992916904880867701E+00
    0.98991717943138413105E+00
    0.98986774195758864270E+00
    0.98988254623846860802E+00
    0.98992215008013428879E+00
    0.98993372718215244532E+00
    0.98994388361539242815E+00
    0.98995100766830013139E+00
    0.98996094618315688685E+00
    0.98994306619361316368E+00
    0.98993362081374436379E+00
    0.98991384329930065533E+00
    0.98985157136639922992E+00
    0.98982713367593955223E+00
    0.98971599036417301498E+00
    0.98957629296864468849E+00
    0.98910896637854039959E+00
    0.98910866155773602415E+00
    0.98957625589735487281E+00
    0.98971607194816191289E+00
    0.98982698314485506597E+00
    0.98985170159880730978E+00
    0.98991404972980090449E+00
    0.98978739926042647035E+00
    0.98971076324745199670E+00
    0.98997603728762806341E+00
    0.98997333723919722637E+00
    0.98997173543435668108E+00
    0.98996775013328741633E+00
    0.98996482941530783428E+00
    0.98995441227642555493E+00
    0.98995412937161197942E+00
    0.98996478940932175483E+00
    0.98996783201584415135E+00
    0.98997157312417671804E+00
    0.98997326848028366353E+00
    0.98997607974939161313E+00
    0.98997102450748009073E+00
    0.98996826892983835755E+00
    0.98996099244329349709E+00
    0.98995099985010048815E+00
    0.98994398833043972807E+00
    0.98993365146605416527E+00
    0.98992219844780304783E+00
    0.98988286561609495351E+00
    0.98986749315255551096E+00
    0.98991715272312241769E+00
    0.98992925513709495444E+00
    0.98994749483351951458E+00
    0.98995320453259472160E+00
    0.98996398757392811696E+00
    0.98994309769639943219E+00
    0.98993363546862622737E+00
    0.98970579554630211394E+00
    0.98943272178161778552E+00
    0.98946668753485167436E+00
    0.98908603925267901680E+00
    0.98815177022296207809E+00
    0.98563424056910864390E+00
    0.98153472945612585399E+00
    0.98695244898965861502E+00
    0.98738323458213494987E+00
    0.98874953733012649337E+00
    0.98920157872782710218E+00
    0.98964526052829149272E+00
    0.98896763866293524448E+00
    0.98850943317980699554E+00
    0.98932299462193373785E+00
    0.98879364225456611859E+00
    0.98910941077544101141E+00
    0.98857174501221345420E+00
    0.98643428777708452859E+00
    0.98191316828955654827E+00
    0.95639051719494960757E+00
    0.98002868191440717371E+00
    0.97619333191256929538E+00
    0.98478397097028613771E+00
    0.98746382911591457088E+00
    0.98897230454792106613E+00