# vtk DataFile Version 3.0
LAPLACIEN  2D
ASCII
DATASET UNSTRUCTURED_GRID
 POINTS         481  float
   6.2500000000000000E-002  0.87500000000000000        0.0000000000000000     
  0.12500000000000000       0.87500000000000000        0.0000000000000000     
  0.12500000000000000       0.93750000000000000        0.0000000000000000     
   3.7499999999999999E-002  0.91249999999999998        0.0000000000000000     
   8.1250000000000003E-002  0.91874999999999996        0.0000000000000000     
   8.7499999999999994E-002  0.96250000000000002        0.0000000000000000     
   4.3749999999999997E-002  0.95625000000000004        0.0000000000000000     
  0.18750000000000000       0.87500000000000000        0.0000000000000000     
  0.25000000000000000       0.87500000000000000        0.0000000000000000     
  0.25000000000000000       0.93750000000000000        0.0000000000000000     
  0.16250000000000001       0.91249999999999998        0.0000000000000000     
  0.20624999999999999       0.91874999999999996        0.0000000000000000     
  0.21249999999999999       0.96250000000000002        0.0000000000000000     
  0.16875000000000001       0.95625000000000004        0.0000000000000000     
   6.2500000000000000E-002  0.75000000000000000        0.0000000000000000     
  0.12500000000000000       0.75000000000000000        0.0000000000000000     
  0.12500000000000000       0.81250000000000000        0.0000000000000000     
   3.7499999999999999E-002  0.78749999999999998        0.0000000000000000     
   8.1250000000000003E-002  0.79374999999999996        0.0000000000000000     
   8.7499999999999994E-002  0.83750000000000002        0.0000000000000000     
   4.3749999999999997E-002  0.83125000000000004        0.0000000000000000     
  0.18750000000000000       0.75000000000000000        0.0000000000000000     
  0.25000000000000000       0.75000000000000000        0.0000000000000000     
  0.25000000000000000       0.81250000000000000        0.0000000000000000     
  0.16250000000000001       0.78749999999999998        0.0000000000000000     
  0.20624999999999999       0.79374999999999996        0.0000000000000000     
  0.21249999999999999       0.83750000000000002        0.0000000000000000     
  0.16875000000000001       0.83125000000000004        0.0000000000000000     
  0.31250000000000000       0.87500000000000000        0.0000000000000000     
  0.37500000000000000       0.87500000000000000        0.0000000000000000     
  0.37500000000000000       0.93750000000000000        0.0000000000000000     
  0.28749999999999998       0.91249999999999998        0.0000000000000000     
  0.33124999999999999       0.91874999999999996        0.0000000000000000     
  0.33750000000000002       0.96250000000000002        0.0000000000000000     
  0.29375000000000001       0.95625000000000004        0.0000000000000000     
  0.43750000000000000       0.87500000000000000        0.0000000000000000     
  0.50000000000000000       0.87500000000000000        0.0000000000000000     
  0.50000000000000000       0.93750000000000000        0.0000000000000000     
  0.41249999999999998       0.91249999999999998        0.0000000000000000     
  0.45624999999999999       0.91874999999999996        0.0000000000000000     
  0.46250000000000002       0.96250000000000002        0.0000000000000000     
  0.41875000000000001       0.95625000000000004        0.0000000000000000     
  0.31250000000000000       0.75000000000000000        0.0000000000000000     
  0.37500000000000000       0.75000000000000000        0.0000000000000000     
  0.37500000000000000       0.81250000000000000        0.0000000000000000     
  0.28749999999999998       0.78749999999999998        0.0000000000000000     
  0.33124999999999999       0.79374999999999996        0.0000000000000000     
  0.33750000000000002       0.83750000000000002        0.0000000000000000     
  0.29375000000000001       0.83125000000000004        0.0000000000000000     
  0.43750000000000000       0.75000000000000000        0.0000000000000000     
  0.50000000000000000       0.75000000000000000        0.0000000000000000     
  0.50000000000000000       0.81250000000000000        0.0000000000000000     
  0.41249999999999998       0.78749999999999998        0.0000000000000000     
  0.45624999999999999       0.79374999999999996        0.0000000000000000     
  0.46250000000000002       0.83750000000000002        0.0000000000000000     
  0.41875000000000001       0.83125000000000004        0.0000000000000000     
   6.2500000000000000E-002  0.62500000000000000        0.0000000000000000     
  0.12500000000000000       0.62500000000000000        0.0000000000000000     
  0.12500000000000000       0.68750000000000000        0.0000000000000000     
   3.7499999999999999E-002  0.66249999999999998        0.0000000000000000     
   8.1250000000000003E-002  0.66874999999999996        0.0000000000000000     
   8.7499999999999994E-002  0.71250000000000002        0.0000000000000000     
   4.3749999999999997E-002  0.70625000000000004        0.0000000000000000     
  0.18750000000000000       0.62500000000000000        0.0000000000000000     
  0.25000000000000000       0.62500000000000000        0.0000000000000000     
  0.25000000000000000       0.68750000000000000        0.0000000000000000     
  0.16250000000000001       0.66249999999999998        0.0000000000000000     
  0.20624999999999999       0.66874999999999996        0.0000000000000000     
  0.21249999999999999       0.71250000000000002        0.0000000000000000     
  0.16875000000000001       0.70625000000000004        0.0000000000000000     
   6.2500000000000000E-002  0.50000000000000000        0.0000000000000000     
  0.12500000000000000       0.50000000000000000        0.0000000000000000     
  0.12500000000000000       0.56250000000000000        0.0000000000000000     
   3.7499999999999999E-002  0.53749999999999998        0.0000000000000000     
   8.1250000000000003E-002  0.54374999999999996        0.0000000000000000     
   8.7499999999999994E-002  0.58750000000000002        0.0000000000000000     
   4.3749999999999997E-002  0.58125000000000004        0.0000000000000000     
  0.18750000000000000       0.50000000000000000        0.0000000000000000     
  0.25000000000000000       0.50000000000000000        0.0000000000000000     
  0.25000000000000000       0.56250000000000000        0.0000000000000000     
  0.16250000000000001       0.53749999999999998        0.0000000000000000     
  0.20624999999999999       0.54374999999999996        0.0000000000000000     
  0.21249999999999999       0.58750000000000002        0.0000000000000000     
  0.16875000000000001       0.58125000000000004        0.0000000000000000     
  0.31250000000000000       0.62500000000000000        0.0000000000000000     
  0.37500000000000000       0.62500000000000000        0.0000000000000000     
  0.37500000000000000       0.68750000000000000        0.0000000000000000     
  0.28749999999999998       0.66249999999999998        0.0000000000000000     
  0.33124999999999999       0.66874999999999996        0.0000000000000000     
  0.33750000000000002       0.71250000000000002        0.0000000000000000     
  0.29375000000000001       0.70625000000000004        0.0000000000000000     
  0.43750000000000000       0.62500000000000000        0.0000000000000000     
  0.50000000000000000       0.62500000000000000        0.0000000000000000     
  0.50000000000000000       0.68750000000000000        0.0000000000000000     
  0.41249999999999998       0.66249999999999998        0.0000000000000000     
  0.45624999999999999       0.66874999999999996        0.0000000000000000     
  0.46250000000000002       0.71250000000000002        0.0000000000000000     
  0.41875000000000001       0.70625000000000004        0.0000000000000000     
  0.31250000000000000       0.50000000000000000        0.0000000000000000     
  0.37500000000000000       0.50000000000000000        0.0000000000000000     
  0.37500000000000000       0.56250000000000000        0.0000000000000000     
  0.28749999999999998       0.53749999999999998        0.0000000000000000     
  0.33124999999999999       0.54374999999999996        0.0000000000000000     
  0.33750000000000002       0.58750000000000002        0.0000000000000000     
  0.29375000000000001       0.58125000000000004        0.0000000000000000     
  0.43750000000000000       0.50000000000000000        0.0000000000000000     
  0.50000000000000000       0.50000000000000000        0.0000000000000000     
  0.50000000000000000       0.56250000000000000        0.0000000000000000     
  0.41249999999999998       0.53749999999999998        0.0000000000000000     
  0.45624999999999999       0.54374999999999996        0.0000000000000000     
  0.46250000000000002       0.58750000000000002        0.0000000000000000     
  0.41875000000000001       0.58125000000000004        0.0000000000000000     
  0.56250000000000000       0.87500000000000000        0.0000000000000000     
  0.62500000000000000       0.87500000000000000        0.0000000000000000     
  0.62500000000000000       0.93750000000000000        0.0000000000000000     
  0.53749999999999998       0.91249999999999998        0.0000000000000000     
  0.58125000000000004       0.91874999999999996        0.0000000000000000     
  0.58750000000000002       0.96250000000000002        0.0000000000000000     
  0.54374999999999996       0.95625000000000004        0.0000000000000000     
  0.68750000000000000       0.87500000000000000        0.0000000000000000     
  0.75000000000000000       0.87500000000000000        0.0000000000000000     
  0.75000000000000000       0.93750000000000000        0.0000000000000000     
  0.66249999999999998       0.91249999999999998        0.0000000000000000     
  0.70625000000000004       0.91874999999999996        0.0000000000000000     
  0.71250000000000002       0.96250000000000002        0.0000000000000000     
[...]
 CELL_DATA         896
 SCALARS Cells_density float
 LOOKUP_TABLE default
    0.98999763034141619045E+00
    0.98999528258756863686E+00
    0.98998566097100515471E+00
    0.98998388731968367527E+00
    0.98999428178490045394E+00
    0.98999883554257361862E+00
    0.98999709631800036913E+00
    0.99000149836050010954E+00
    0.99000468463043200806E+00
    0.99000342920398021196E+00
    0.99000098418779713949E+00
    0.98999825936093366341E+00
    0.99000665299414647436E+00
    0.99000648247424016812E+00
    0.98994590638017243567E+00
    0.98993849075070172727E+00
    0.98988489895189624157E+00
    0.98989765615424440970E+00
    0.98994528968739559094E+00
    0.98995812074041977802E+00
    0.98996685629299097098E+00
    0.98997665141369217690E+00
    0.98998617935309074500E+00
    0.98999331989732497483E+00
    0.98997804116094390015E+00
    0.98997654523149103412E+00
    0.98997135612116571313E+00
    0.98997218013230747768E+00
    0.98995661462228623506E+00
    0.98994575357657121906E+00
    0.98989977708383636301E+00
    0.98988343869305184253E+00
    0.98993793617900183168E+00
    0.98994594086302878377E+00
    0.98997621213839237519E+00
    0.98997895991428785933E+00
    0.98999390501012674015E+00
    0.98998449849654779342E+00
    0.98997637612650668526E+00
    0.98996820279773489748E+00
    0.98997231738773283638E+00
    0.98997147997933132579E+00
    0.98963448079868898688E+00
    0.98948343703622365641E+00
    0.98890612554810208845E+00
    0.98890415636446826753E+00
    0.98948286143331121156E+00
    0.98963453250781707737E+00
    0.98982987869924643487E+00
    0.98983649110522153869E+00
    0.98992613890412473054E+00
    0.98992370351528957695E+00
    0.98983546145974021790E+00
    0.98983022165400147419E+00
    0.98971869095224696000E+00
    0.98971868053207934235E+00
    0.98973328569389051879E+00
    0.98976433572665889482E+00
    0.98960942278336749833E+00
    0.98971220672461424073E+00
    0.98984322626822851543E+00
    0.98989399380638432024E+00
    0.98991345739211822341E+00
    0.98991898775259135057E+00
    0.98994093111344427793E+00
    0.98994695669069721067E+00
    0.98990267124708031243E+00
    0.98987140266181261605E+00
    0.98987567887115490706E+00
    0.98988911068624008127E+00
    0.98935959063651979228E+00
    0.98954892953072182138E+00
    0.98934856991469666276E+00
    0.98957809787557815540E+00
    0.98976469743693085146E+00
    0.98985505400754714156E+00
    0.98987402424696602221E+00
    0.98986341002412070456E+00
    0.98988797263481431710E+00
    0.98988303273936673055E+00
    0.98979204890006955431E+00
    0.98967609211189067064E+00
    0.98976415126417360835E+00
    0.98980341233837920711E+00
    0.98538011521288371153E+00
    0.98561138168175688179E+00
    0.97924639563786131102E+00
    0.98378165055417199358E+00
    0.98746762314201841360E+00
    0.98872618006347323671E+00
    0.98938466269343472437E+00
    0.98922981591553604819E+00
    0.98961554438889398622E+00
    0.98953576751828264957E+00
    0.98884009625160118606E+00
    0.98836360837381787015E+00
    0.98819741311703201969E+00
    0.98843051700522954750E+00
    0.94721420335225126053E+00
    0.97235535043203014105E+00
    0.94333205482857895863E+00
    0.97688394056614680228E+00
    0.98497308071158906628E+00
    0.98802842082296282733E+00
    0.98894279509049398680E+00
    0.98832633927889002035E+00
    0.98902733724085356570E+00
    0.98858791562895309557E+00
    0.98596752009842181241E+00
    0.98207662077092228170E+00
    0.98514464360788966957E+00
    0.98621153061522026650E+00
    0.98989247753489206794E+00
    0.98984369716991582600E+00
    0.98971436835105708330E+00
    0.98960790907700546537E+00
    0.98976378358413885650E+00
    0.98973333419069420280E+00
    0.98987105858947443959E+00
    0.98990359524791149415E+00
    0.98994763205247549021E+00
    0.98993932971298892465E+00
    0.98991841525626256271E+00
    0.98991458392995956839E+00
    0.98988924397294242308E+00
    0.98987579713457085617E+00
    0.98872609567362501615E+00
    0.98746831629848275114E+00
    0.98378510169268318375E+00
    0.97924304261114580861E+00
    0.98561062778039421062E+00
    0.98538033858294038492E+00
    0.98836310683868677796E+00
    0.98884117966166240610E+00
    0.98953755796177733650E+00
    0.98961226785870515243E+00
    0.98922912227040538102E+00
    0.98938532828380731932E+00
    0.98843068905530917512E+00
    0.98819751153351931272E+00
    0.98985444052491788902E+00
    0.98976517334318858676E+00
    0.98958028913727036358E+00
    0.98934699927836922129E+00
    0.98954836612370289384E+00
    0.98935965783607981994E+00
    0.98967573595167257494E+00
    0.98979298170995311246E+00
    0.98988378628842821350E+00
    0.98988643595753533777E+00
    0.98986279312067437797E+00
    0.98987512512820163835E+00
    0.98980354773657708289E+00
    0.98976427015624135475E+00
    0.98802916667636853099E+00
    0.98497384421709177627E+00
    0.97688880464262628500E+00
    0.94332375774728594031E+00
    0.97235407298380360785E+00
    0.94721566237748144879E+00
    0.98207561599825177190E+00
    0.98596875839702080579E+00
    0.98858994761370877491E+00
    0.98902384839635160141E+00
    0.98832560524667611990E+00
    0.98894352346342506710E+00
    0.98621177997638098667E+00
    0.98514473461008045252E+00
    0.73474260121101075960E+00
    0.28902332568481547970E+00
    0.95124444768772131731E-02
    0.95123354516176202716E-02
    0.28901308994441032851E+00
    0.73474567041358496144E+00
    0.95462566082403976786E+00
    0.85604722731714633088E+00
    0.98192517082892250002E+00
    0.98192070251870200437E+00
    0.85604417369029017770E+00
    0.95462982393003015247E+00
    0.17243201594580942482E+00
    0.17243200587095652843E+00
    0.99710948782579991029E-02
    0.46315660239584957591E-01
    0.73020743849189828634E-01
    0.41422604065857832056E+00
    0.43219559651581362925E+00
    0.50671990645561926225E+00
    0.72270891772835754718E+00
    0.41795979203211980346E+00
    0.87403199995621827512E+00
    0.82822931188686055304E+00
    0.41601710428194782487E+00
    0.62479416638832573072E-01
    0.41578878236974858851E+00
    0.41866266878705676868E+00
    0.50672488344031552110E+00
    0.43215148528567781661E+00
    0.41423222052411468042E+00
    0.73060807442231881503E-01
    0.46332622277003042421E-01
    0.99712177314901055680E-02
    0.62464801104366446394E-01
    0.41601960941741045197E+00
    0.82828043434203912909E+00
    0.87399690995104617475E+00
    0.41794209148358218986E+00
    0.72272893479479860535E+00
    0.41873466711841383914E+00
    0.41573916609458089200E+00
    0.12397563333839884889E-01
    0.12732966859211965541E-01
    0.13152458851846219115E-01
    0.13152482957680702164E-01
    0.12733002261975746860E-01
    0.12397572427396639713E-01
    0.12044940195349154027E-01
    0.11588292454796377678E-01
    0.10271903624053214249E-01
    0.10271992299857632402E-01
    0.11588403115025349213E-01
    0.12045561383271221820E-01
    0.12328487545683997073E-01
    0.12328488281669486640E-01
    0.98924073239550702752E+00
    0.98954733026702612619E+00
    0.98945378331683120354E+00
    0.98967365286796982193E+00
    0.98980210967807091826E+00
    0.98988770773832801542E+00
    0.98988953539792290393E+00
    0.98986544145760435587E+00
    0.98987288961079367144E+00
    0.98985410256773098681E+00
    0.98975433979535876183E+00
    0.98957630909381200102E+00
    0.98975888423248115089E+00
    0.98980776251814850397E+00
    0.98955795501228094313E+00
    0.98976396958773005252E+00
    0.98977229949063194603E+00
    0.98986865639534737937E+00
    0.98990848050942203962E+00
    0.98995223039329061088E+00
    0.98994199470097155036E+00
    0.98992413248047328445E+00
    0.98991556733295349435E+00
    0.98989639258313966153E+00
    0.98984090920716338857E+00
    0.98970807684261308257E+00
    0.98986983303427977798E+00
    0.98989795781037892564E+00
    0.90644009182055707008E+00
    0.97208157115326054853E+00
    0.96313862893004342780E+00
    0.98198868344725520618E+00
    0.98633957263997984466E+00
    0.98863700782153385305E+00
    0.98913047335692871886E+00
    0.98836467049799725526E+00
    0.98883016132922396668E+00
    0.98804625545157720445E+00
    0.98462330647754425783E+00
    0.97642915881095571073E+00
    0.98484250586290034146E+00
    0.98639285511176622023E+00
    0.97571888738443968148E+00
    0.98557480120927432043E+00
    0.98628139469923237215E+00
    0.98832356890336092725E+00
    0.98895868706460332564E+00
    0.98957827359995598204E+00
    0.98965999818829242241E+00
    0.98928334457761246679E+00
    0.98933537021669992750E+00
    0.98879636311279806016E+00
    0.98741880524920611073E+00
    0.98346366856099232123E+00
    0.98797684466229551692E+00
    0.98863385325530428460E+00
    0.98987582419193087535E+00
    0.98993874794100711334E+00
    0.98995464649567299631E+00
    0.98997579456243423035E+00
    0.98998062174173950822E+00
    0.98999670534967953994E+00
    0.98998632175105039099E+00
    0.98997918461669698331E+00
    0.98996930074518130205E+00
    0.98996037938042358295E+00
    0.98994563078706021564E+00
    0.98989626474707237413E+00
    0.98996901030396045051E+00
    0.98997621444716010775E+00
    0.98998509163282366607E+00
    0.98999660929398325404E+00
    0.99000003345282872047E+00
    0.98999835925795653946E+00
    0.99000193881332365642E+00
    0.99000557143660850024E+00
    0.99000456558954996744E+00
    0.99000279193125417798E+00
    0.98999959459685105134E+00
    0.98999941176251293751E+00
    0.98999581973457539963E+00
    0.98998511027446600696E+00
    0.99000900624007293072E+00
    0.99000816513080847070E+00
    0.98883714400801869804E+00
    0.98948264312110978391E+00
    0.98967412059352788400E+00
    0.98982101333250405162E+00
    0.98985097915742725760E+00
    0.98993505812167437163E+00
    0.98993430523909931029E+00
    0.98985141140361432299E+00
    0.98982361610278934982E+00
    0.98967275928170317378E+00
    0.98948223614755725919E+00
    0.98883718175874213419E+00
    0.98967514911438525527E+00
    0.98977328495440508593E+00
    0.98989644426343526007E+00
    0.98994593304233047260E+00
    0.98996084393594718787E+00
    0.98996816698009049151E+00
    0.98997848686614986491E+00
    0.98998786342302302899E+00
    0.98999495870622844507E+00
    0.98998091798970744293E+00
    0.98997833944809177087E+00
    0.98995333380993510985E+00
    0.98993833434590006171E+00
    0.98987604253125427434E+00
    0.98996902295114452830E+00
    0.98997618011380406067E+00
    0.13187684321690029687E+00
    0.12722585749901438312E+00
    0.92044220911062912122E-02
    0.45621058113096482622E-01
    0.41367588985954428793E+00
    0.83200401663137191210E+00
    0.85899922991768107305E+00
    0.41470943599560516901E+00
    0.77162989901288037142E+00
    0.47305809988930991317E+00
    0.46589320538398321103E+00
    0.41392478500070900571E+00
    0.41369769553519075700E+00
    0.41544298171712268353E+00
    0.98541081368564119314E-02
    0.32206505393384560199E+00
    0.74558099908453190352E+00
    0.95687304579022680606E+00
    0.88094270025581655759E+00
    0.98301553788669615574E+00
    0.98301389396743654725E+00
    0.88094704131535817027E+00
    0.95688466721059928233E+00
    0.74555063417760925049E+00
    0.32207668578123482828E+00
    0.98543324101445887997E-02
    0.26256823197927457725E-01
    0.23880982202169884210E+00
    0.13157007998007582902E-01
    0.12788525013146220463E-01
    0.12389359493135928755E-01
    0.12311695842189145783E-01
    0.11430484909256331122E-01
    0.96865625696572199566E-02
    0.96866860444380434303E-02
    0.11430459852186275124E-01
    0.12311639947750155355E-01
    0.12389358702162246370E-01
    0.12788553240573702699E-01
    0.13157075274744198592E-01
    0.12523456086073487398E-01
    0.12128522148820403137E-01
    0.41392764067959653129E+00
    0.46589789703123951625E+00
    0.47309278894270501148E+00
    0.77158323716689103389E+00
    0.41472456276693159261E+00
    0.85901579115253468011E+00
    0.83197695299142060410E+00
    0.41367546442967056963E+00
    0.45628051643112552127E-01
    0.92039368198739597571E-02
    0.12722914672173310513E+00
    0.13187535653524823376E+00
    0.41373450924288923680E+00
    0.41539477351278664141E+00
    0.98346387795317291580E+00
    0.98741921653361763855E+00
    0.98879791873521583057E+00
    0.98933233035066747707E+00
    0.98928242651353837100E+00
    0.98966091431411840063E+00
    0.98957759589999250149E+00
    0.98895916927630544979E+00
    0.98832659644650444619E+00
    0.98627928326534886061E+00
    0.98557427586617452064E+00
    0.97571972420230357326E+00
    0.98797684416975539712E+00
    0.98863386843018685735E+00
    0.98970825665309758445E+00
    0.98984121302023098110E+00
    0.98989686043094049506E+00
    0.98991442681344454790E+00
    0.98992342859488702267E+00
    0.98994339379302331849E+00
    0.98995032275863137361E+00
    0.98990877687743739077E+00
    0.98987122481687650488E+00
    0.98977094556516342916E+00
    0.98976354637111718660E+00
    0.98955818684383689554E+00
    0.98986984436705194312E+00
    0.98989792180997637772E+00
    0.97643132269190680006E+00
    0.98462404634257782998E+00
    0.98804796068329636682E+00
    0.98882695936794395841E+00
    0.98836370701010944906E+00
    0.98913147686514302226E+00
    0.98863623031575398326E+00
    0.98634021770391078210E+00
    0.98199340209436458693E+00
    0.96313282727846538656E+00
    0.97208077100194456577E+00
    0.90644116789430284609E+00
    0.98484283346620649091E+00
    0.98639292570638492652E+00
    0.98957732212896165613E+00
    0.98975484582685313573E+00
    0.98985457165552193093E+00
    0.98987165847586011669E+00
    0.98986460388860275650E+00
    0.98989089730085078056E+00
    0.98988574308251187084E+00
    0.98980272935469704176E+00
    0.98967627252406997762E+00
    0.98945240709899906495E+00
    0.98954696469003877723E+00
    0.98924096920677340172E+00
    0.98975908661935108057E+00
    0.98980803062690880800E+00
    0.98988709268398455965E+00
    0.98980311219924732580E+00
    0.98967504003929807066E+00
    0.98945223630814105320E+00
    0.98954676650044537389E+00
    0.98924080635415112539E+00
    0.98957595463037406613E+00
    0.98975527939581109393E+00
    0.98985564050954311099E+00
    0.98987135559178751620E+00
    0.98986482491613592138E+00
    0.98989063135311872177E+00
    0.98980840431529770740E+00
    0.98975900910005953914E+00
    0.98863768777493277184E+00
    0.98634058263867196992E+00
    0.98199132075869244307E+00
    0.96313293016603429564E+00
    0.97208032320077797372E+00
    0.90644252939740688202E+00
    0.97642826497897794447E+00
    0.98462453870680266554E+00
    0.98804916449734792039E+00
    0.98882660260771870764E+00
    0.98836390096131909733E+00
    0.98913117399646022232E+00
    0.98639338917488394998E+00
    0.98484262630251606652E+00
    0.98995161248217744543E+00
    0.98990915343370933233E+00
    0.98987001617372782913E+00
    0.98977079010544088966E+00
    0.98976338235589655934E+00
    0.98955801623873396178E+00
    0.98970681434420293421E+00
    0.98984160190351733188E+00
    0.98989792363792139529E+00
    0.98991415104525648516E+00
    0.98992368729515589632E+00
    0.98994307816341531314E+00
    0.98989828799980605911E+00
    0.98986972750280355360E+00
    0.98957892522299861771E+00
    0.98895952428277178470E+00
    0.98832522206082717986E+00
    0.98627918211608178733E+00
    0.98557403650186670152E+00
    0.97571972682695140566E+00
    0.98346150445153546205E+00
    0.98741962140859773633E+00
    0.98879903833176552297E+00
    0.98933199252514059108E+00
    0.98928259825804321093E+00
    0.98966062812203681176E+00
    0.98863425378188507509E+00
    0.98797665106533105739E+00
    0.83200202425303071418E+00
    0.41367338993600449859E+00
    0.45630092931744317686E-01
    0.92044552541393452605E-02
    0.12722627526520602359E+00
    0.13188168237333908195E+00
    0.41392828996869546199E+00
    0.46590322095217684417E+00
    0.47311610354293831548E+00
    0.77157825695940962518E+00
    0.41470664357030095903E+00
    0.85901209204217077176E+00
    0.41546174372738259306E+00
    0.41368086736056963737E+00
    0.96865030696418868289E-02
    0.11430553009545475068E-01
    0.12312185751238789722E-01
    0.12389571369621347682E-01
    0.12788613106267545869E-01
    0.13157092896817648361E-01
    0.13157089213819375684E-01
    0.12788525885973405991E-01
    0.12389276535564578210E-01
    0.12311782357296414958E-01
    0.11430475734750483383E-01
    0.96866646493736184576E-02
    0.12128535920023683289E-01
    0.12523479402617360146E-01
    0.98301642722475213176E+00
    0.88094701154396404252E+00
    0.95688079092696731731E+00
    0.74555007459502342648E+00
    0.32207462264546432573E+00
    0.98540128405206258572E-02
    0.98543168627943066029E-02
    0.32206934472491310917E+00
    0.74559673732098796783E+00
    0.95687188662621713853E+00
    0.88094385359341798036E+00
    0.98301565564503290418E+00
    0.23881101005198107634E+00
    0.26256984965191874914E-01
    0.85900904313930737111E+00
    0.41471436314623472130E+00
    0.77160501760283872752E+00
    0.47305123035465834747E+00
    0.46588205807119048574E+00
    0.41393271370850243107E+00
    0.13189096119577689570E+00
    0.12724272372598854908E+00
    0.92038456037420932065E-02
    0.45618722724253615852E-01
    0.41367215016244457404E+00
    0.83199807436337680500E+00
    0.41540563329596302822E+00
    0.41372630374167618239E+00
    0.98999619282952844301E+00
    0.98998128751595393382E+00
    0.98997713433315925879E+00
    0.98995317115610070857E+00
    0.98993817021086261132E+00
    0.98987586653443038198E+00
    0.98989502944262464101E+00
    0.98994631874993355147E+00
    0.98996189932570222147E+00
    0.98996789158682074738E+00
    0.98997874162768562112E+00
    0.98998750301858995382E+00
    0.98997654092371001333E+00
    0.98996890615871369068E+00
    0.98993589319567742990E+00
    0.98985175676724634908E+00
    0.98982238283860779493E+00
    0.98967259284075992376E+00
    0.98948205274959610822E+00
    0.98883695876604338348E+00
    0.98883553017374237193E+00
    0.98948301770251056997E+00
    0.98967514381974408533E+00
    0.98982071065362264850E+00
    0.98985116399229677864E+00
    0.98993508913086869505E+00
    0.98977362737789398306E+00
    0.98967500369657135373E+00
    0.99000454597339115903E+00
    0.99000281132251888305E+00
    0.98999991295976685901E+00
    0.98999849173986376183E+00
    0.98999599251941183820E+00
    0.98998509868257889011E+00
    0.98998386272064242686E+00
    0.98999658799869005854E+00
    0.99000088388812623741E+00
    0.98999801929075759155E+00
    0.99000209349972045914E+00
    0.99000553942856395206E+00
    0.99000845104221846249E+00
    0.99000900515352718845E+00
    0.98998662994602415477E+00
    0.98997911043666508846E+00
    0.98996956359962684502E+00
    0.98995930860477154845E+00
    0.98994533467820855499E+00
    0.98989639006493113094E+00
    0.98987471346315158982E+00
    0.98993908707971833838E+00
    0.98995562119475011276E+00
    0.98997547247889494670E+00
    0.98998065868716567106E+00
    0.98999547121812869754E+00
    0.98997650302811590617E+00
    0.98996886301081898907E+00
    0.98966164177209969832E+00
    0.98928327053773157385E+00
    0.98933381102036921373E+00
    0.98879620671050882930E+00
    0.98741856819251982991E+00
    0.98346392531980275642E+00
    0.97571609727049268823E+00
    0.98557530473924337411E+00
    0.98628276518648227977E+00
    0.98832320770042836333E+00
    0.98895888541083765144E+00
    0.98957831490805170382E+00
    0.98863423547659567969E+00
    0.98797664015046549046E+00
    0.98913219022586151841E+00
    0.98836459499884499191E+00
    0.98882854188657876016E+00
    0.98804609409022858824E+00
    0.98462294798754035341E+00
    0.97642957361031701424E+00
    0.90642816898145051052E+00
    0.97208126193850608043E+00
    0.96314093342150408628E+00
    0.98198799583279516856E+00
    0.98633979551514949780E+00
    0.98863702045074575153E+00