# vtk DataFile Version 3.0
LAPLACIEN  2D
ASCII
DATASET UNSTRUCTURED_GRID
 POINTS         481  float
   6.2500000000000000E-002  0.87500000000000000        0.0000000000000000     
  0.12500000000000000       0.87500000000000000        0.0000000000000000     
  0.12500000000000000       0.93750000000000000        0.0000000000000000     
   3.7499999999999999E-002  0.91249999999999998        0.0000000000000000     
   8.1250000000000003E-002  0.91874999999999996        0.0000000000000000     
   8.7499999999999994E-002  0.96250000000000002        0.0000000000000000     
   4.3749999999999997E-002  0.95625000000000004        0.0000000000000000     
  0.18750000000000000       0.87500000000000000        0.0000000000000000     
  0.25000000000000000       0.87500000000000000        0.0000000000000000     
  0.25000000000000000       0.93750000000000000        0.0000000000000000     
  0.16250000000000001       0.91249999999999998        0.0000000000000000     
  0.20624999999999999       0.91874999999999996        0.0000000000000000     
  0.21249999999999999       0.96250000000000002        0.0000000000000000     
  0.16875000000000001       0.95625000000000004        0.0000000000000000     
   6.2500000000000000E-002  0.75000000000000000        0.0000000000000000     
  0.12500000000000000       0.75000000000000000        0.0000000000000000     
  0.12500000000000000       0.81250000000000000        0.0000000000000000     
   3.7499999999999999E-002  0.78749999999999998        0.0000000000000000     
   8.1250000000000003E-002  0.79374999999999996        0.0000000000000000     
   8.7499999999999994E-002  0.83750000000000002        0.0000000000000000     
   4.3749999999999997E-002  0.83125000000000004        0.0000000000000000     
  0.18750000000000000       0.75000000000000000        0.0000000000000000     
  0.25000000000000000       0.75000000000000000        0.0000000000000000     
  0.25000000000000000       0.81250000000000000        0.0000000000000000     
  0.16250000000000001       0.78749999999999998        0.0000000000000000     
  0.20624999999999999       0.79374999999999996        0.0000000000000000     
  0.21249999999999999       0.83750000000000002        0.0000000000000000     
  0.16875000000000001       0.83125000000000004        0.0000000000000000     
  0.31250000000000000       0.87500000000000000        0.0000000000000000     
  0.37500000000000000       0.87500000000000000        0.0000000000000000     
  0.37500000000000000       0.93750000000000000        0.0000000000000000     
  0.28749999999999998       0.91249999999999998        0.0000000000000000     
  0.33124999999999999       0.91874999999999996        0.0000000000000000     
  0.33750000000000002       0.96250000000000002        0.0000000000000000     
  0.29375000000000001       0.95625000000000004        0.0000000000000000     
  0.43750000000000000       0.87500000000000000        0.0000000000000000     
  0.50000000000000000       0.87500000000000000        0.0000000000000000     
  0.50000000000000000       0.93750000000000000        0.0000000000000000     
  0.41249999999999998       0.91249999999999998        0.0000000000000000     
  0.45624999999999999       0.91874999999999996        0.0000000000000000     
  0.46250000000000002       0.96250000000000002        0.0000000000000000     
  0.41875000000000001       0.95625000000000004        0.0000000000000000     
  0.31250000000000000       0.75000000000000000        0.0000000000000000     
  0.37500000000000000       0.75000000000000000        0.0000000000000000     
  0.37500000000000000       0.81250000000000000        0.0000000000000000     
  0.28749999999999998       0.78749999999999998        0.0000000000000000     
  0.33124999999999999       0.79374999999999996        0.0000000000000000     
  0.33750000000000002       0.83750000000000002        0.0000000000000000     
  0.29375000000000001       0.83125000000000004        0.0000000000000000     
  0.43750000000000000       0.75000000000000000        0.0000000000000000     
  0.50000000000000000       0.75000000000000000        0.0000000000000000     
  0.50000000000000000       0.81250000000000000        0.0000000000000000     
  0.41249999999999998       0.78749999999999998        0.0000000000000000     
  0.45624999999999999       0.79374999999999996        0.0000000000000000     
  0.46250000000000002       0.83750000000000002        0.0000000000000000     
  0.41875000000000001       0.83125000000000004        0.0000000000000000     
   6.2500000000000000E-002  0.62500000000000000        0.0000000000000000     
  0.12500000000000000       0.62500000000000000        0.0000000000000000     
  0.12500000000000000       0.68750000000000000        0.0000000000000000     
   3.7499999999999999E-002  0.66249999999999998        0.0000000000000000     
   8.1250000000000003E-002  0.66874999999999996        0.0000000000000000     
   8.7499999999999994E-002  0.71250000000000002        0.0000000000000000     
   4.3749999999999997E-002  0.70625000000000004        0.0000000000000000     
  0.18750000000000000       0.62500000000000000        0.0000000000000000     
  0.25000000000000000       0.62500000000000000        0.0000000000000000     
  0.25000000000000000       0.68750000000000000        0.0000000000000000     
  0.16250000000000001       0.66249999999999998        0.0000000000000000     
  0.20624999999999999       0.66874999999999996        0.0000000000000000     
  0.21249999999999999       0.71250000000000002        0.0000000000000000     
  0.16875000000000001       0.70625000000000004        0.0000000000000000     
   6.2500000000000000E-002  0.50000000000000000        0.0000000000000000     
  0.12500000000000000       0.50000000000000000        0.0000000000000000     
  0.12500000000000000       0.56250000000000000        0.0000000000000000     
   3.7499999999999999E-002  0.53749999999999998        0.0000000000000000     
   8.1250000000000003E-002  0.54374999999999996        0.0000000000000000     
   8.7499999999999994E-002  0.58750000000000002        0.0000000000000000     
   4.3749999999999997E-002  0.58125000000000004        0.0000000000000000     
  0.18750000000000000       0.50000000000000000        0.0000000000000000     
  0.25000000000000000       0.50000000000000000        0.0000000000000000     
  0.25000000000000000       0.56250000000000000        0.0000000000000000     
  0.16250000000000001       0.53749999999999998        0.0000000000000000     
  0.20624999999999999       0.54374999999999996        0.0000000000000000     
  0.21249999999999999       0.58750000000000002        0.0000000000000000     
  0.16875000000000001       0.58125000000000004        0.0000000000000000     
  0.31250000000000000       0.62500000000000000        0.0000000000000000     
  0.37500000000000000       0.62500000000000000        0.0000000000000000     
  0.37500000000000000       0.68750000000000000        0.0000000000000000     
  0.28749999999999998       0.66249999999999998        0.0000000000000000     
  0.33124999999999999       0.66874999999999996        0.0000000000000000     
  0.33750000000000002       0.71250000000000002        0.0000000000000000     
  0.29375000000000001       0.70625000000000004        0.0000000000000000     
  0.43750000000000000       0.62500000000000000        0.0000000000000000     
  0.50000000000000000       0.62500000000000000        0.0000000000000000     
  0.50000000000000000       0.68750000000000000        0.0000000000000000     
  0.41249999999999998       0.66249999999999998        0.0000000000000000     
  0.45624999999999999       0.66874999999999996        0.0000000000000000     
  0.46250000000000002       0.71250000000000002        0.0000000000000000     
  0.41875000000000001       0.70625000000000004        0.0000000000000000     
  0.31250000000000000       0.50000000000000000        0.0000000000000000     
  0.37500000000000000       0.50000000000000000        0.0000000000000000     
  0.37500000000000000       0.56250000000000000        0.0000000000000000     
  0.28749999999999998       0.53749999999999998        0.0000000000000000     
  0.33124999999999999       0.54374999999999996        0.0000000000000000     
  0.33750000000000002       0.58750000000000002        0.0000000000000000     
  0.29375000000000001       0.58125000000000004        0.0000000000000000     
  0.43750000000000000       0.50000000000000000        0.0000000000000000     
  0.50000000000000000       0.50000000000000000        0.0000000000000000     
  0.50000000000000000       0.56250000000000000        0.0000000000000000     
  0.41249999999999998       0.53749999999999998        0.0000000000000000     
  0.45624999999999999       0.54374999999999996        0.0000000000000000     
  0.46250000000000002       0.58750000000000002        0.0000000000000000     
  0.41875000000000001       0.58125000000000004        0.0000000000000000     
  0.56250000000000000       0.87500000000000000        0.0000000000000000     
  0.62500000000000000       0.87500000000000000        0.0000000000000000     
  0.62500000000000000       0.93750000000000000        0.0000000000000000     
  0.53749999999999998       0.91249999999999998        0.0000000000000000     
  0.58125000000000004       0.91874999999999996        0.0000000000000000     
  0.58750000000000002       0.96250000000000002        0.0000000000000000     
  0.54374999999999996       0.95625000000000004        0.0000000000000000     
  0.68750000000000000       0.87500000000000000        0.0000000000000000     
  0.75000000000000000       0.87500000000000000        0.0000000000000000     
  0.75000000000000000       0.93750000000000000        0.0000000000000000     
  0.66249999999999998       0.91249999999999998        0.0000000000000000     
  0.70625000000000004       0.91874999999999996        0.0000000000000000     
  0.71250000000000002       0.96250000000000002        0.0000000000000000     
[...]
 CELL_DATA         896
 SCALARS Endothelial_cells float
 LOOKUP_TABLE default
    0.98997332289581818632E+00
    0.98997086208994811152E+00
    0.98996155125070406378E+00
    0.98995982260467296765E+00
    0.98996987179467199613E+00
    0.98997448887272654350E+00
    0.98997256434315195062E+00
    0.98997706090799564294E+00
    0.98998009137641385102E+00
    0.98997886732458095782E+00
    0.98997652148599202260E+00
    0.98997366873305814305E+00
    0.98998240513164870169E+00
    0.98998223511329852542E+00
    0.98992231226095039887E+00
    0.98991486946709394967E+00
    0.98986238547458760273E+00
    0.98987489253119131938E+00
    0.98992150297557479632E+00
    0.98993419971206986219E+00
    0.98994255569844891163E+00
    0.98995239855851779875E+00
    0.98996170251126258677E+00
    0.98996904877961133806E+00
    0.98995385211520514623E+00
    0.98995250388714783885E+00
    0.98994752097492533238E+00
    0.98994831216422118914E+00
    0.98993273290259198305E+00
    0.98992195587818343494E+00
    0.98987695895647631605E+00
    0.98986096229669495727E+00
    0.98991432765263620563E+00
    0.98992234320833294436E+00
    0.98995217891363374019E+00
    0.98995474777530700905E+00
    0.98996967544460756638E+00
    0.98996011952884344076E+00
    0.98995214834467748499E+00
    0.98994388199233129821E+00
    0.98994844596422637562E+00
    0.98994764186468864331E+00
    0.98961685033798407751E+00
    0.98946886359839214542E+00
    0.98890447309350715255E+00
    0.98890255884782818363E+00
    0.98946830260867169038E+00
    0.98961689776780881189E+00
    0.98980837308677727115E+00
    0.98981474108473388451E+00
    0.98990292915777855498E+00
    0.98990055378041186263E+00
    0.98981373682871420794E+00
    0.98980870686308075612E+00
    0.98969955416248944768E+00
    0.98969954470650600697E+00
    0.98971360323907997536E+00
    0.98974384990740515988E+00
    0.98959237020339463342E+00
    0.98969294738749591378E+00
    0.98982110385885868631E+00
    0.98987098462098466189E+00
    0.98988984734453955294E+00
    0.98989549134632204286E+00
    0.98991699112800923821E+00
    0.98992325463346664272E+00
    0.98987955986997588909E+00
    0.98984904649119997977E+00
    0.98985332782942248020E+00
    0.98986648012961631071E+00
    0.98934827129827151992E+00
    0.98953307860364558834E+00
    0.98933763050938383632E+00
    0.98956172587495505599E+00
    0.98974406318143903771E+00
    0.98983267639231420354E+00
    0.98985098855015629660E+00
    0.98984076574751556077E+00
    0.98986477654910887125E+00
    0.98986027451904834429E+00
    0.98977090903182651793E+00
    0.98965754556964502520E+00
    0.98974389899809767090E+00
    0.98978231775878700027E+00
    0.98547931242856479095E+00
    0.98570595257891535645E+00
    0.97959924586571234251E+00
    0.98393737765491207092E+00
    0.98750632891963208149E+00
    0.98873000141976941091E+00
    0.98937260436770946281E+00
    0.98922108021235310993E+00
    0.98959834412106462143E+00
    0.98952024007210481749E+00
    0.98884046276495340955E+00
    0.98837537271395159433E+00
    0.98821384233823206245E+00
    0.98844156893047607770E+00
    0.94885706793956181571E+00
    0.97308921362794953414E+00
    0.94285302390240577353E+00
    0.97733521975205117638E+00
    0.98510294376985529929E+00
    0.98805208598251026419E+00
    0.98894204086453108005E+00
    0.98834202602810417027E+00
    0.98902399505025540005E+00
    0.98859527848002459738E+00
    0.98605704539428074007E+00
    0.98230684003303847529E+00
    0.98525949014706115658E+00
    0.98629302285056819066E+00
    0.98986950815349095123E+00
    0.98982156322450509656E+00
    0.98969505242946442802E+00
    0.98959089716666293057E+00
    0.98974331121302028258E+00
    0.98971364830014141312E+00
    0.98984871116589423501E+00
    0.98988046050549194366E+00
    0.98992391225883979988E+00
    0.98991542869523840853E+00
    0.98989493400252726030E+00
    0.98989094588764681149E+00
    0.98986660987349028851E+00
    0.98985344316148127231E+00
    0.98872992314286978210E+00
    0.98750699853799517314E+00
    0.98394069649090631913E+00
    0.97959607951782756707E+00
    0.98570522910368307823E+00
    0.98547952503029911941E+00
    0.98837489420679613961E+00
    0.98884151888542048958E+00
    0.98952198356827492098E+00
    0.98959515290819743960E+00
    0.98922040138011213539E+00
    0.98937324925731495728E+00
    0.98844173311910610291E+00
    0.98821394052873590130E+00
    0.98983207811652973440E+00
    0.98974452721000405475E+00
    0.98956385899994925293E+00
    0.98933610513911340867E+00
    0.98953252948751391216E+00
    0.98934833424949375491E+00
    0.98965719906934568328E+00
    0.98977181803093228218E+00
    0.98986101002944115734E+00
    0.98986327914554383955E+00
    0.98984016417311249114E+00
    0.98985206109779888539E+00
    0.98978244943486148877E+00
    0.98974401491874974823E+00
    0.98805281107351417003E+00
    0.98510368210890719709E+00
    0.97733985628537722867E+00
    0.94284569233745640915E+00
    0.97308802719739451170E+00
    0.94885843453512730417E+00
    0.98230591347183249251E+00
    0.98605825167316762947E+00
    0.98859724428514794692E+00
    0.98902060544467274017E+00
    0.98834130797211816599E+00
    0.98894274311419738677E+00
    0.98629325753174956759E+00
    0.98525958438118066418E+00
    0.74233810175177028512E+00
    0.26695072936470859437E+00
    0.24399047485140724564E-02
    0.24397904144777037352E-02
    0.26694071589099205299E+00
    0.74234073124721655645E+00
    0.95612317883961162046E+00
    0.86215500595650051974E+00
    0.98215563494611912709E+00
    0.98215136467991914770E+00
    0.86215205562122565475E+00
    0.95612698904218473839E+00
    0.15864224010034758128E+00
    0.15864237542163367456E+00
    0.38090620640759234085E-04
    0.96465072199006639958E-02
    0.30374345565600920777E-01
    0.40000124929211150482E+00
    0.40905362896161434616E+00
    0.49876723250849336333E+00
    0.72482853051220863527E+00
    0.40000405059122989826E+00
    0.87151344139219000251E+00
    0.81906868586693437617E+00
    0.39999951030177210987E+00
    0.43023649533978969295E-01
    0.40000575147882350135E+00
    0.39999243885348784167E+00
    0.49877332130299228963E+00
    0.40901471209099971027E+00
    0.40000087421594193726E+00
    0.30415004718166844394E-01
    0.96461159304784740293E-02
    0.38076413942078035624E-04
    0.43016376482450546792E-01
    0.39999016525862318705E+00
    0.81911502427084681432E+00
    0.87148172154016811941E+00
    0.39999676468039052635E+00
    0.72484751966228977427E+00
    0.40001272278427862927E+00
    0.39998913640402311565E+00
    0.11698611096397203095E-04
    0.11716728783652266083E-04
    0.11692024592722314425E-04
    0.11692024544999309271E-04
    0.11716728834058603851E-04
    0.11698611077410849468E-04
    0.21138731517136981770E-04
    0.11716695467621317042E-04
    0.11691843018498633474E-04
    0.11691842853625372827E-04
    0.11716695492651576008E-04
    0.21163807262698528596E-04
    0.11672466591293336919E-04
    0.11672466595721577734E-04
    0.98923228036631638549E+00
    0.98953141276540568239E+00
    0.98944005885311780979E+00
    0.98965509076614210926E+00
    0.98978071397931588482E+00
    0.98986478941644695517E+00
    0.98986624967848135803E+00
    0.98984275078464034614E+00
    0.98984991246109088614E+00
    0.98983180894030553532E+00
    0.98973391950793876415E+00
    0.98955989413989664527E+00
    0.98973870428596588678E+00
    0.98978657748916898385E+00
    0.98954173969161463020E+00
    0.98974339944287714754E+00
    0.98975177684255766231E+00
    0.98984634255302950123E+00
    0.98988522558464187018E+00
    0.98992838106770397744E+00
    0.98991798632116290158E+00
    0.98990052847053200402E+00
    0.98989194713127215408E+00
    0.98987340887526131805E+00
    0.98981879160064356604E+00
    0.98968871598541130474E+00
    0.98984753445029571850E+00
    0.98987516986000545494E+00
    0.90891968540716849834E+00
    0.97281771646483750082E+00
    0.96401151702127974019E+00
    0.98220914729759045692E+00
    0.98641195575083551184E+00
    0.98864206074191007811E+00
    0.98912422455052040338E+00
    0.98837826293610631101E+00
    0.98883188703834279387E+00
    0.98806930433851947182E+00
    0.98476431461750513208E+00
    0.97691474363142394299E+00
    0.98496798596012968829E+00
    0.98646521344370774464E+00
    0.97622659591807281476E+00
    0.98566592193015345469E+00
    0.98634828791102380219E+00
    0.98833480905618009693E+00
    0.98895528630284623706E+00
    0.98956153748946795723E+00
    0.98964165702586848194E+00
    0.98927282619492173943E+00
    0.98932398832404766509E+00
    0.98879757745173990635E+00
    0.98745604251964524956E+00
    0.98362557901849434483E+00
    0.98799796797793026926E+00
    0.98863863318657663193E+00
    0.98985336948935687129E+00
    0.98991510503288804301E+00
    0.98993096324355878135E+00
    0.98995182471151088599E+00
    0.98995639707953109188E+00
    0.98997239063471365039E+00
    0.98996186767258342876E+00
    0.98995491272360180979E+00
    0.98994502085646451928E+00
    0.98993651099999924181E+00
    0.98992182502334558070E+00
    0.98987340887487196284E+00
    0.98994516665533371924E+00
    0.98995231020436580405E+00
    0.98996092819701708709E+00
    0.98997218614432991313E+00
    0.98997576876469972618E+00
    0.98997384609027028191E+00
    0.98997747499721278075E+00
    0.98998092537908155553E+00
    0.98997994482818563178E+00
    0.98997831202593888911E+00
    0.98997505347273517806E+00
    0.98997516081029968138E+00
    0.98997140428657492972E+00
    0.98996094460524131087E+00
    0.98998471792534092906E+00
    0.98998394413019552562E+00
    0.98883619018065471717E+00
    0.98946774148551897010E+00
    0.98965553983620846434E+00
    0.98979962976523927498E+00
    0.98982887364128258056E+00
    0.98991162992292658362E+00
    0.98991089602364523703E+00
    0.98982929570053257429E+00
    0.98980216735163606412E+00
    0.98965421683683862941E+00
    0.98946734461273821992E+00
    0.98883622456192643568E+00
    0.98965668725254862803E+00
    0.98975295708450872212E+00
    0.98987358610607389942E+00
    0.98992211958941556116E+00
    0.98993696196881775240E+00
    0.98994391566920558745E+00
    0.98995423180520036865E+00
    0.98996332657632302165E+00
    0.98997064256854938602E+00
    0.98995668632653432972E+00
    0.98995430726418254253E+00
    0.98992968501396627623E+00
    0.98991470167140771519E+00
    0.98985358084626751118E+00
    0.98994517912429302875E+00
    0.98995227687977505049E+00
    0.92236415976273383732E-01
    0.96029216283596355308E-01
    0.10519204588366442687E-03
    0.26567854799266394511E-01
    0.39999783297045088393E+00
    0.82595879780718561847E+00
    0.86007453366856156940E+00
    0.39999107212958157076E+00
    0.77021355075247222022E+00
    0.46637046093347278575E+00
    0.44435085698795923070E+00
    0.39999961151672125403E+00
    0.39997998162960229918E+00
    0.40001708438909766574E+00
    0.35286142496673599325E-02
    0.30004066311259192101E+00
    0.75552552375291592845E+00
    0.95843131430563111017E+00
    0.88659767556663382493E+00
    0.98323667115665547289E+00
    0.98323511092406690182E+00
    0.88660170082133282765E+00
    0.95844222429342640357E+00
    0.75549691132612961653E+00
    0.30005095929901220986E+00
    0.35287183838974816447E-02
    0.20525906671221852418E-01
    0.22518718951635269265E+00
    0.11698623749251665100E-04
    0.11716738429052179289E-04
    0.11692171784634928884E-04
    0.15438406211670821174E-03
    0.11716860542749917034E-04
    0.11698593698645466115E-04
    0.11698593891351660203E-04
    0.11716860563756840652E-04
    0.15437489885839858375E-03
    0.11692171624718891292E-04
    0.11716738426275791635E-04
    0.11698623752782754027E-04
    0.11672493329257356025E-04
    0.11672477770925521653E-04
    0.39999209152025017033E+00
    0.44434694691703474634E+00
    0.46640453293473316254E+00
    0.77017086788052990798E+00
    0.40000403491403146994E+00
    0.86008835261574745346E+00
    0.82593398082896996026E+00
    0.39999858960949402631E+00
    0.26575692454448702345E-01
    0.10514972237329292971E-03
    0.96009003978165363691E-01
    0.92244822791677061335E-01
    0.40000809002018838934E+00
    0.39999876862405492339E+00
    0.98362579034191899297E+00
    0.98745644737753945908E+00
    0.98879908084400203183E+00
    0.98932103111632396786E+00
    0.98927193373877564397E+00
    0.98964254815807173316E+00
    0.98956087835370565298E+00
    0.98895575463805895922E+00
    0.98833774416250164130E+00
    0.98634627303864685910E+00
    0.98566541584419131716E+00
    0.97622741436859572506E+00
    0.98799796882300416900E+00
    0.98863864705931525645E+00
    0.98968889359567036035E+00
    0.98981908770007931420E+00
    0.98987386298587887179E+00
    0.98989083545801370700E+00
    0.98989984174988965293E+00
    0.98991935068711478518E+00
    0.98992652074773213045E+00
    0.98988551477357389352E+00
    0.98984884723659261052E+00
    0.98975046010288181275E+00
    0.98974298708750441111E+00
    0.98954196439500030635E+00
    0.98984754569237320965E+00
    0.98987513490615974820E+00
    0.97691681749782999233E+00
    0.98476504405812392839E+00
    0.98807094549991436594E+00
    0.98882878017652853231E+00
    0.98837732888352236582E+00
    0.98912519723609237943E+00
    0.98864131024177404061E+00
    0.98641257746407873253E+00
    0.98221366964039658054E+00
    0.96400611887234310959E+00
    0.97281700882657262675E+00
    0.90892087904044860380E+00
    0.98496830829863479817E+00
    0.98646527984651266596E+00
    0.98956088198268354894E+00
    0.98973441261543382286E+00
    0.98983226418816283587E+00
    0.98984871254728945544E+00
    0.98984193381511154097E+00
    0.98986757663938140794E+00
    0.98986287269512951426E+00
    0.98978132586828049266E+00
    0.98965764409366285825E+00
    0.98943872355185313872E+00
    0.98953105659167728270E+00
    0.98923251102373110921E+00
    0.98973890188643076637E+00
    0.98978684648177406302E+00
    0.98986418948461019074E+00
    0.98978169956339423496E+00
    0.98965644216225068241E+00
    0.98943855502072075581E+00
    0.98953086333170270361E+00
    0.98923234981086816120E+00
    0.98955954895249975678E+00
    0.98973483535569006797E+00
    0.98983330737976371605E+00
    0.98984841761112285496E+00
    0.98984214959251026755E+00
    0.98986731737827493571E+00
    0.98978721055522367323E+00
    0.98973882611357777428E+00
    0.98864272500068905991E+00
    0.98641293544801333937E+00
    0.98221166567260775881E+00
    0.96400619783234020588E+00
    0.97281654780353621348E+00
    0.90892170274130135166E+00
    0.97691390432642100095E+00
    0.98476552296141517395E+00
    0.98807210935561418097E+00
    0.98882843247244578411E+00
    0.98837751404459051052E+00
    0.98912490180682255403E+00
    0.98646572354788841785E+00
    0.98496810880970864233E+00
    0.98992777808555221242E+00
    0.98988588220201478851E+00
    0.98984766793272183083E+00
    0.98975030730281565727E+00
    0.98974282706541139021E+00
    0.98954179673567876918E+00
    0.98968748730994438034E+00
    0.98981946695907063738E+00
    0.98987490077062789684E+00
    0.98989056677321995981E+00
    0.98990009405460421821E+00
    0.98991904172671218998E+00
    0.98987549173568611938E+00
    0.98984743163168831259E+00
    0.98956217429419290887E+00
    0.98895610249145149417E+00
    0.98833640854828941347E+00
    0.98634616577584810493E+00
    0.98566518289899685001E+00
    0.97622739007753611684E+00
    0.98362350994532821158E+00
    0.98745684184299920005E+00
    0.98880016742638066063E+00
    0.98932070209189371113E+00
    0.98927210049661595814E+00
    0.98964226932264143244E+00
    0.98863902107700651900E+00
    0.98799778310537300641E+00
    0.82595688924560128896E+00
    0.39999466988052245764E+00
    0.26576699829847928724E-01
    0.10518952537389597048E-03
    0.96014881676691976597E-01
    0.92242338613716112761E-01
    0.39999944535503323406E+00
    0.44435806725220911018E+00
    0.46642711236209921655E+00
    0.77016576649753287764E+00
    0.39999889729163706775E+00
    0.86008578679472147410E+00
    0.40000822340438035862E+00
    0.39999419182379669646E+00
    0.11698593796122910458E-04
    0.11716860724396656039E-04
    0.15444626973188432112E-03
    0.11692171794241263370E-04
    0.11716738442937515855E-04
    0.11698623729106207871E-04
    0.11698623743564377572E-04
    0.11716738475520084903E-04
    0.11692171771451511582E-04
    0.15439860176336606037E-03
    0.11716860531094259177E-04
    0.11698593852644273840E-04
    0.11672477721331068353E-04
    0.11672493335743985157E-04
    0.98323756235050185914E+00
    0.88660182120462427413E+00
    0.95843855226044483153E+00
    0.75549685080700124118E+00
    0.30004912767259017681E+00
    0.35286881039497080929E-02
    0.35286907256242274963E-02
    0.30004490007813933161E+00
    0.75554011660900588510E+00
    0.95843020871821316131E+00
    0.88659876270232196305E+00
    0.98323678917945944722E+00
    0.22518827430104101928E+00
    0.20526023255517663463E-01
    0.86008374724611103002E+00
    0.40000741369630515853E+00
    0.77019186484902513179E+00
    0.46636573530734731774E+00
    0.44433120204746423543E+00
    0.39999923020512412331E+00
    0.92253392701865472025E-01
    0.96036397548673463342E-01
    0.10517000800796708982E-03
    0.26566956662293320091E-01
    0.39999995953127609472E+00
    0.82595484083267689535E+00
    0.39998450322128747958E+00
    0.40000288708637565804E+00
    0.98997183589415149729E+00
    0.98995704688894670120E+00
    0.98995313109886573510E+00
    0.98992952550837809422E+00
    0.98991454157170633010E+00
    0.98985340858636894357E+00
    0.98987220586311586157E+00
    0.98992249576874380423E+00
    0.98993799233421686523E+00
    0.98994364736954132411E+00
    0.98995448035319433266E+00
    0.98996296403135031206E+00
    0.98995262855723376028E+00
    0.98994506508844193338E+00
    0.98991244499662989220E+00
    0.98982963300227044812E+00
    0.98980096425170938090E+00
    0.98965405330398970030E+00
    0.98946716608814666571E+00
    0.98883600696261630958E+00
    0.98883462137942013115E+00
    0.98946810684388697421E+00
    0.98965653752947901900E+00
    0.98979933496821359551E+00
    0.98982905398112652762E+00
    0.98991165976867112608E+00
    0.98975329082388141533E+00
    0.98965654590194851448E+00
    0.98997992566053916175E+00
    0.98997833241558641504E+00
    0.98997536456643364655E+00
    0.98997426587098147355E+00
    0.98997158390566342145E+00
    0.98996093747543356667E+00
    0.98995973380401636188E+00
    0.98997215559862739021E+00
    0.98997659465065357409E+00
    0.98997351373620523507E+00
    0.98997762408552325564E+00
    0.98998089415454115780E+00
    0.98998422214627224136E+00
    0.98998471971882229248E+00
    0.98996212698881813630E+00
    0.98995484045072523749E+00
    0.98994527702728152274E+00
    0.98993546584347580364E+00
    0.98992153598447107932E+00
    0.98987353044646608780E+00
    0.98985228596635110865E+00
    0.98991543584699281944E+00
    0.98993191477702535686E+00
    0.98995151082113830299E+00
    0.98995643263384103250E+00
    0.98997114491211346543E+00
    0.98995259151373249384E+00
    0.98994502305201192982E+00
    0.98964325991808976823E+00
    0.98927275671842640481E+00
    0.98932246965803538608E+00
    0.98879742297300987630E+00
    0.98745581574035046213E+00
    0.98362583572867334780E+00
    0.97622398971352930541E+00
    0.98566641218140271796E+00
    0.98634960879217703500E+00
    0.98833445961923327427E+00
    0.98895548002336375326E+00
    0.98956157837728775384E+00
    0.98863900521719039194E+00
    0.98799777408145428303E+00
    0.98912589678598106246E+00
    0.98837819514167635226E+00
    0.98883031331075110781E+00
    0.98806914525909950164E+00
    0.98476398145074017787E+00
    0.97691518072932093109E+00
    0.90890938655744013541E+00
    0.97281749238379544575E+00
    0.96401369695892291656E+00
    0.98220851055114888339E+00
    0.98641217852419715850E+00
    0.98864207783728230705E+00