# vtk DataFile Version 3.0
LAPLACIEN  2D
ASCII
DATASET UNSTRUCTURED_GRID
 POINTS         481  float
   6.2500000000000000E-002  0.87500000000000000        0.0000000000000000     
  0.12500000000000000       0.87500000000000000        0.0000000000000000     
  0.12500000000000000       0.93750000000000000        0.0000000000000000     
   3.7499999999999999E-002  0.91249999999999998        0.0000000000000000     
   8.1250000000000003E-002  0.91874999999999996        0.0000000000000000     
   8.7499999999999994E-002  0.96250000000000002        0.0000000000000000     
   4.3749999999999997E-002  0.95625000000000004        0.0000000000000000     
  0.18750000000000000       0.87500000000000000        0.0000000000000000     
  0.25000000000000000       0.87500000000000000        0.0000000000000000     
  0.25000000000000000       0.93750000000000000        0.0000000000000000     
  0.16250000000000001       0.91249999999999998        0.0000000000000000     
  0.20624999999999999       0.91874999999999996        0.0000000000000000     
  0.21249999999999999       0.96250000000000002        0.0000000000000000     
  0.16875000000000001       0.95625000000000004        0.0000000000000000     
   6.2500000000000000E-002  0.75000000000000000        0.0000000000000000     
  0.12500000000000000       0.75000000000000000        0.0000000000000000     
  0.12500000000000000       0.81250000000000000        0.0000000000000000     
   3.7499999999999999E-002  0.78749999999999998        0.0000000000000000     
   8.1250000000000003E-002  0.79374999999999996        0.0000000000000000     
   8.7499999999999994E-002  0.83750000000000002        0.0000000000000000     
   4.3749999999999997E-002  0.83125000000000004        0.0000000000000000     
  0.18750000000000000       0.75000000000000000        0.0000000000000000     
  0.25000000000000000       0.75000000000000000        0.0000000000000000     
  0.25000000000000000       0.81250000000000000        0.0000000000000000     
  0.16250000000000001       0.78749999999999998        0.0000000000000000     
  0.20624999999999999       0.79374999999999996        0.0000000000000000     
  0.21249999999999999       0.83750000000000002        0.0000000000000000     
  0.16875000000000001       0.83125000000000004        0.0000000000000000     
  0.31250000000000000       0.87500000000000000        0.0000000000000000     
  0.37500000000000000       0.87500000000000000        0.0000000000000000     
  0.37500000000000000       0.93750000000000000        0.0000000000000000     
  0.28749999999999998       0.91249999999999998        0.0000000000000000     
  0.33124999999999999       0.91874999999999996        0.0000000000000000     
  0.33750000000000002       0.96250000000000002        0.0000000000000000     
  0.29375000000000001       0.95625000000000004        0.0000000000000000     
  0.43750000000000000       0.87500000000000000        0.0000000000000000     
  0.50000000000000000       0.87500000000000000        0.0000000000000000     
  0.50000000000000000       0.93750000000000000        0.0000000000000000     
  0.41249999999999998       0.91249999999999998        0.0000000000000000     
  0.45624999999999999       0.91874999999999996        0.0000000000000000     
  0.46250000000000002       0.96250000000000002        0.0000000000000000     
  0.41875000000000001       0.95625000000000004        0.0000000000000000     
  0.31250000000000000       0.75000000000000000        0.0000000000000000     
  0.37500000000000000       0.75000000000000000        0.0000000000000000     
  0.37500000000000000       0.81250000000000000        0.0000000000000000     
  0.28749999999999998       0.78749999999999998        0.0000000000000000     
  0.33124999999999999       0.79374999999999996        0.0000000000000000     
  0.33750000000000002       0.83750000000000002        0.0000000000000000     
  0.29375000000000001       0.83125000000000004        0.0000000000000000     
  0.43750000000000000       0.75000000000000000        0.0000000000000000     
  0.50000000000000000       0.75000000000000000        0.0000000000000000     
  0.50000000000000000       0.81250000000000000        0.0000000000000000     
  0.41249999999999998       0.78749999999999998        0.0000000000000000     
  0.45624999999999999       0.79374999999999996        0.0000000000000000     
  0.46250000000000002       0.83750000000000002        0.0000000000000000     
  0.41875000000000001       0.83125000000000004        0.0000000000000000     
   6.2500000000000000E-002  0.62500000000000000        0.0000000000000000     
  0.12500000000000000       0.62500000000000000        0.0000000000000000     
  0.12500000000000000       0.68750000000000000        0.0000000000000000     
   3.7499999999999999E-002  0.66249999999999998        0.0000000000000000     
   8.1250000000000003E-002  0.66874999999999996        0.0000000000000000     
   8.7499999999999994E-002  0.71250000000000002        0.0000000000000000     
   4.3749999999999997E-002  0.70625000000000004        0.0000000000000000     
  0.18750000000000000       0.62500000000000000        0.0000000000000000     
  0.25000000000000000       0.62500000000000000        0.0000000000000000     
  0.25000000000000000       0.68750000000000000        0.0000000000000000     
  0.16250000000000001       0.66249999999999998        0.0000000000000000     
  0.20624999999999999       0.66874999999999996        0.0000000000000000     
  0.21249999999999999       0.71250000000000002        0.0000000000000000     
  0.16875000000000001       0.70625000000000004        0.0000000000000000     
   6.2500000000000000E-002  0.50000000000000000        0.0000000000000000     
  0.12500000000000000       0.50000000000000000        0.0000000000000000     
  0.12500000000000000       0.56250000000000000        0.0000000000000000     
   3.7499999999999999E-002  0.53749999999999998        0.0000000000000000     
   8.1250000000000003E-002  0.54374999999999996        0.0000000000000000     
   8.7499999999999994E-002  0.58750000000000002        0.0000000000000000     
   4.3749999999999997E-002  0.58125000000000004        0.0000000000000000     
  0.18750000000000000       0.50000000000000000        0.0000000000000000     
  0.25000000000000000       0.50000000000000000        0.0000000000000000     
  0.25000000000000000       0.56250000000000000        0.0000000000000000     
  0.16250000000000001       0.53749999999999998        0.0000000000000000     
  0.20624999999999999       0.54374999999999996        0.0000000000000000     
  0.21249999999999999       0.58750000000000002        0.0000000000000000     
  0.16875000000000001       0.58125000000000004        0.0000000000000000     
  0.31250000000000000       0.62500000000000000        0.0000000000000000     
  0.37500000000000000       0.62500000000000000        0.0000000000000000     
  0.37500000000000000       0.68750000000000000        0.0000000000000000     
  0.28749999999999998       0.66249999999999998        0.0000000000000000     
  0.33124999999999999       0.66874999999999996        0.0000000000000000     
  0.33750000000000002       0.71250000000000002        0.0000000000000000     
  0.29375000000000001       0.70625000000000004        0.0000000000000000     
  0.43750000000000000       0.62500000000000000        0.0000000000000000     
  0.50000000000000000       0.62500000000000000        0.0000000000000000     
  0.50000000000000000       0.68750000000000000        0.0000000000000000     
  0.41249999999999998       0.66249999999999998        0.0000000000000000     
  0.45624999999999999       0.66874999999999996        0.0000000000000000     
  0.46250000000000002       0.71250000000000002        0.0000000000000000     
  0.41875000000000001       0.70625000000000004        0.0000000000000000     
  0.31250000000000000       0.50000000000000000        0.0000000000000000     
  0.37500000000000000       0.50000000000000000        0.0000000000000000     
  0.37500000000000000       0.56250000000000000        0.0000000000000000     
  0.28749999999999998       0.53749999999999998        0.0000000000000000     
  0.33124999999999999       0.54374999999999996        0.0000000000000000     
  0.33750000000000002       0.58750000000000002        0.0000000000000000     
  0.29375000000000001       0.58125000000000004        0.0000000000000000     
  0.43750000000000000       0.50000000000000000        0.0000000000000000     
  0.50000000000000000       0.50000000000000000        0.0000000000000000     
  0.50000000000000000       0.56250000000000000        0.0000000000000000     
  0.41249999999999998       0.53749999999999998        0.0000000000000000     
  0.45624999999999999       0.54374999999999996        0.0000000000000000     
  0.46250000000000002       0.58750000000000002        0.0000000000000000     
  0.41875000000000001       0.58125000000000004        0.0000000000000000     
  0.56250000000000000       0.87500000000000000        0.0000000000000000     
  0.62500000000000000       0.87500000000000000        0.0000000000000000     
  0.62500000000000000       0.93750000000000000        0.0000000000000000     
  0.53749999999999998       0.91249999999999998        0.0000000000000000     
  0.58125000000000004       0.91874999999999996        0.0000000000000000     
  0.58750000000000002       0.96250000000000002        0.0000000000000000     
  0.54374999999999996       0.95625000000000004        0.0000000000000000     
  0.68750000000000000       0.87500000000000000        0.0000000000000000     
  0.75000000000000000       0.87500000000000000        0.0000000000000000     
  0.75000000000000000       0.93750000000000000        0.0000000000000000     
  0.66249999999999998       0.91249999999999998        0.0000000000000000     
  0.70625000000000004       0.91874999999999996        0.0000000000000000     
  0.71250000000000002       0.96250000000000002        0.0000000000000000     
[...]
 CELL_DATA         896
 SCALARS Endothelial_cells float
 LOOKUP_TABLE default
    0.98996745630077720435E+00
    0.98996561380345582393E+00
    0.98995644749332556422E+00
    0.98995572666828512975E+00
    0.98996529306473124432E+00
    0.98996800214340419100E+00
    0.98997085493783543164E+00
    0.98997327522425526691E+00
    0.98997629931423902772E+00
    0.98997582769927394697E+00
    0.98997309499332375449E+00
    0.98997130246614017945E+00
    0.98997219462534602474E+00
    0.98997216340573168658E+00
    0.98992150432493497547E+00
    0.98991558447330474380E+00
    0.98986990037053479430E+00
    0.98988106288103605568E+00
    0.98992116770312776897E+00
    0.98993078077567575601E+00
    0.98994250233692460128E+00
    0.98994978245141662665E+00
    0.98995973159022010446E+00
    0.98996343728504387904E+00
    0.98995133280133196241E+00
    0.98994865849116620016E+00
    0.98994027976370291277E+00
    0.98994082468891464455E+00
    0.98993010511785262118E+00
    0.98992132288112955063E+00
    0.98988191366470523747E+00
    0.98986930216937329963E+00
    0.98991544439108647424E+00
    0.98992171565676534417E+00
    0.98994843543456356727E+00
    0.98995166033549619744E+00
    0.98996370963747903904E+00
    0.98995909950446026038E+00
    0.98994948353128653373E+00
    0.98994285880354160323E+00
    0.98994089638836424427E+00
    0.98994029457795407190E+00
    0.98966308277723080700E+00
    0.98954107895008247553E+00
    0.98907554706450828697E+00
    0.98907476457509724277E+00
    0.98954093526287745242E+00
    0.98966330626230547551E+00
    0.98982463809804499544E+00
    0.98983115793634945945E+00
    0.98990449901426991186E+00
    0.98990358742292716698E+00
    0.98983084140954757935E+00
    0.98982487129224028255E+00
    0.98972945453517313652E+00
    0.98972941390007873608E+00
    0.98974356546969222137E+00
    0.98976908249195061362E+00
    0.98964162762160345910E+00
    0.98972576891575747560E+00
    0.98983356564894753316E+00
    0.98987457508261644801E+00
    0.98989531777898109866E+00
    0.98989896242314423525E+00
    0.98991883085124610098E+00
    0.98992168564865179459E+00
    0.98988551182488626612E+00
    0.98985846939880006712E+00
    0.98985761005902173082E+00
    0.98986857530861460663E+00
    0.98943957581863273276E+00
    0.98959207596032161547E+00
    0.98943022821653436871E+00
    0.98961524757321317480E+00
    0.98976739392353918490E+00
    0.98984120391812324691E+00
    0.98986079239610680336E+00
    0.98985064932529598369E+00
    0.98987231476237369510E+00
    0.98986590866509782671E+00
    0.98979168902743497327E+00
    0.98969556538163516723E+00
    0.98976365567963309200E+00
    0.98979574904715073025E+00
    0.98639930213950599569E+00
    0.98658528074395634988E+00
    0.98223762662291558279E+00
    0.98523724800207157504E+00
    0.98797252842034655185E+00
    0.98893610807751186620E+00
    0.98946068170868106684E+00
    0.98933769442218200130E+00
    0.98964655684570901339E+00
    0.98958285472198859178E+00
    0.98902881801689801478E+00
    0.98864962959410285226E+00
    0.98851515519598709414E+00
    0.98870067805085515289E+00
    0.96436230738087114212E+00
    0.97810767532212539166E+00
    0.96284044211713637473E+00
    0.98065478916294701595E+00
    0.98616361774530891804E+00
    0.98839386327456801862E+00
    0.98910924936755761916E+00
    0.98862988422566788760E+00
    0.98917322054714695856E+00
    0.98882614318404493670E+00
    0.98687014325848765317E+00
    0.98410462921936736613E+00
    0.98623076146395471930E+00
    0.98703147019008630192E+00
    0.98987389584523544084E+00
    0.98983372259259838621E+00
    0.98972663312315689588E+00
    0.98964101368002377335E+00
    0.98976891983206249925E+00
    0.98974376891806126189E+00
    0.98985824352405060722E+00
    0.98988584151745662165E+00
    0.98992194339453920549E+00
    0.98991817995052810986E+00
    0.98989878976683232104E+00
    0.98989577386247518120E+00
    0.98986864257839868309E+00
    0.98985761962455631746E+00
    0.98893585084972424060E+00
    0.98797269572676005289E+00
    0.98523849814924890911E+00
    0.98223650435798504077E+00
    0.98658510712041347368E+00
    0.98639966971088555159E+00
    0.98864934743086563262E+00
    0.98902914531850782964E+00
    0.98958355586991220143E+00
    0.98964537881615344261E+00
    0.98933748017740685832E+00
    0.98946101694425447892E+00
    0.98870076825579189528E+00
    0.98851515040437576420E+00
    0.98984089790212514970E+00
    0.98976755212948885898E+00
    0.98961612130604192927E+00
    0.98942959893838844376E+00
    0.98959191228268528207E+00
    0.98943979540149684659E+00
    0.98969533476847815212E+00
    0.98979202108904940083E+00
    0.98986624113093202304E+00
    0.98987173391826743796E+00
    0.98985043472378442253E+00
    0.98986121878527721929E+00
    0.98979581687857998151E+00
    0.98976366484736710838E+00
    0.98839395960653830819E+00
    0.98616380249971757888E+00
    0.98065643088730114485E+00
    0.96283818993448866408E+00
    0.97810748991542373343E+00
    0.96436377202980094747E+00
    0.98410420436181444970E+00
    0.98687049972075624460E+00
    0.98882689752508434733E+00
    0.98917198419724150504E+00
    0.98862965779937661548E+00
    0.98910960368782196994E+00
    0.98703157392515739055E+00
    0.98623073697129370885E+00
    0.84569535333425760459E+00
    0.15990289844968344490E+00
    0.74662410209893519467E-03
    0.74659436078120748181E-03
    0.15989775406203443620E+00
    0.84569998884988994980E+00
    0.96950176713101188231E+00
    0.91783109490790037999E+00
    0.98422939522248265032E+00
    0.98422790528056947057E+00
    0.91783032705779354909E+00
    0.96950298681009539070E+00
    0.95016803864361398801E-01
    0.95017107825929994491E-01
    0.52160077253493194362E-05
    0.23745403983832492033E-02
    0.12718768267709398140E-02
    0.21824440714434381605E+00
    0.40000370532332313322E+00
    0.63015669824837805546E+00
    0.84956217998732941332E+00
    0.40000476470624801717E+00
    0.92262275044218100550E+00
    0.87363013952052159805E+00
    0.31525983456083794820E+00
    0.33259106596321519160E-02
    0.26514299863539564361E+00
    0.39998752150188060517E+00
    0.63015576996177991020E+00
    0.40001488062375645249E+00
    0.21824683534200606250E+00
    0.12719825799960551502E-02
    0.23745650053960459455E-02
    0.52160053086344682278E-05
    0.33258736694619273240E-02
    0.31525630702762180713E+00
    0.87364204220308194770E+00
    0.92261397301817071881E+00
    0.40000272951219095763E+00
    0.84956746594544774176E+00
    0.39998912654429913394E+00
    0.26514372450968343164E+00
    0.48369911286872253843E-05
    0.48439614396019440743E-05
    0.48344262024828636313E-05
    0.48344261919952057633E-05
    0.48439614922818537981E-05
    0.48369911227089820390E-05
    0.48777033728975608564E-05
    0.48439779737447818307E-05
    0.48344057480803613285E-05
    0.48344056768743451881E-05
    0.48439780063692535991E-05
    0.48777104483184747572E-05
    0.48269009064150851157E-05
    0.48269008964701636086E-05
    0.98934410649653825587E+00
    0.98959046256003713182E+00
    0.98951429901812282264E+00
    0.98969328165751291326E+00
    0.98979979444175680836E+00
    0.98986939202593882126E+00
    0.98987423405136920618E+00
    0.98985235617259892393E+00
    0.98985910953878242236E+00
    0.98984111477351932606E+00
    0.98975999502093914284E+00
    0.98961326550067107988E+00
    0.98975916975474076409E+00
    0.98980050799786323257E+00
    0.98959870051393472590E+00
    0.98976827976646930551E+00
    0.98977507292169408792E+00
    0.98985599917940525483E+00
    0.98989014853330381527E+00
    0.98992581433656234857E+00
    0.98992040702539951802E+00
    0.98990261100488186052E+00
    0.98989591457833936428E+00
    0.98987765084329015775E+00
    0.98983149768723244222E+00
    0.98972104911351044265E+00
    0.98985139156814760941E+00
    0.98987715244218565935E+00
    0.94496362608964445950E+00
    0.97799357779498308219E+00
    0.97292351070233362709E+00
    0.98397523543877640773E+00
    0.98712246307780648902E+00
    0.98886081026422556484E+00
    0.98925567982130324651E+00
    0.98865623363451837768E+00
    0.98901704672396784090E+00
    0.98840759532344102389E+00
    0.98591426196760167944E+00
    0.98047789268872653778E+00
    0.98602025141100313466E+00
    0.98715741739362916629E+00
    0.97993056308269088639E+00
    0.98653186803745140931E+00
    0.98704010516225848537E+00
    0.98860811040445739639E+00
    0.98911691655757183472E+00
    0.98961570314645264101E+00
    0.98968306421942053852E+00
    0.98937746191164432918E+00
    0.98941732187932018849E+00
    0.98898801022896065671E+00
    0.98792063522798112540E+00
    0.98498941159153485803E+00
    0.98833696401629189676E+00
    0.98885538999934741167E+00
    0.98986187588223406575E+00
    0.98991584847873037578E+00
    0.98992923039848579325E+00
    0.98994832726180537197E+00
    0.98995362403932907203E+00
    0.98996614626602508213E+00
    0.98996074382359189325E+00
    0.98995172852682866704E+00
    0.98994381345089466073E+00
    0.98993389010436183550E+00
    0.98992140274797069122E+00
    0.98987883012119748383E+00
    0.98993694586123115453E+00
    0.98994553564535325840E+00
    0.98995579163753866236E+00
    0.98996681583523826742E+00
    0.98996999403437779819E+00
    0.98997186510894230604E+00
    0.98997407851018259795E+00
    0.98997730217810930853E+00
    0.98997692284507665672E+00
    0.98997440903991751338E+00
    0.98997234411812584653E+00
    0.98996960603985428850E+00
    0.98996660506666123158E+00
    0.98995593297140616063E+00
    0.98997345377457679483E+00
    0.98997478365927293886E+00
    0.98901473523369642926E+00
    0.98953825214833113222E+00
    0.98969450921027879442E+00
    0.98981680542092942421E+00
    0.98984313229234299758E+00
    0.98991252447410682525E+00
    0.98991216692317385295E+00
    0.98984324435487680560E+00
    0.98981773940283745983E+00
    0.98969383728303339520E+00
    0.98953810474114101137E+00
    0.98901490585786788756E+00
    0.98969132374384460871E+00
    0.98977467804780505656E+00
    0.98987872128431797503E+00
    0.98992155889333022234E+00
    0.98993424336015167775E+00
    0.98994339964566513412E+00
    0.98995150182331181909E+00
    0.98996132588134355679E+00
    0.98996548379943916096E+00
    0.98995375544991770500E+00
    0.98994925367841934971E+00
    0.98992857742887485628E+00
    0.98991570014583896153E+00
    0.98986205901394141993E+00
    0.98993695130993608622E+00
    0.98994552868076790553E+00
    0.13338505804534567072E-02
    0.27518029013581389759E-02
    0.51037380685675073824E-05
    0.24087557153985119686E-02
    0.29219157214470803385E+00
    0.87515468870374335530E+00
    0.91969537835560866146E+00
    0.42553998209442922551E+00
    0.87025440916193996799E+00
    0.60670720566572478027E+00
    0.40000125235106503974E+00
    0.25159454930998509381E+00
    0.33581677720673613896E+00
    0.40001102450135228583E+00
    0.11290098503973309413E-02
    0.18280785566044865931E+00
    0.85329927382671244551E+00
    0.97001862024624563308E+00
    0.92914639710991819843E+00
    0.98495595835899063530E+00
    0.98495527883979128170E+00
    0.92914717057311080328E+00
    0.97002171048828145228E+00
    0.85329091069394102931E+00
    0.18281019382194971246E+00
    0.11290259050815657643E-02
    0.67984581745543044493E-02
    0.14294668720364300807E+00
    0.48369729432207565019E-05
    0.48439670163415697539E-05
    0.48344514999881015995E-05
    0.48711785749536934959E-05
    0.48439886361310982360E-05
    0.48369372294563428780E-05
    0.48369371560341997094E-05
    0.48439886265857543573E-05
    0.48711809113941167507E-05
    0.48344514831292770485E-05
    0.48439670360855181192E-05
    0.48369730041611678494E-05
    0.48269088873676699514E-05
    0.48269222220321150824E-05
    0.25159510143476110366E+00
    0.40000182843550974310E+00
    0.60672264057583913388E+00
    0.87024288902865387652E+00
    0.42553683528523555957E+00
    0.91969989003460417276E+00
    0.87514576482872996621E+00
    0.29219820052088607554E+00
    0.24088248706627553818E-02
    0.51037407051355486738E-05
    0.27516555902581075685E-02
    0.13338630145848749935E-02
    0.33581292336354218175E+00
    0.40000793220989655508E+00
    0.98498917544313036032E+00
    0.98792076864897515609E+00
    0.98898873882374149780E+00
    0.98941625135441435557E+00
    0.98937719197070117527E+00
    0.98968349941180477902E+00
    0.98961539078503624189E+00
    0.98911703634976477773E+00
    0.98860915618513345304E+00
    0.98703921894745128007E+00
    0.98653170023678127265E+00
    0.97993119810277773407E+00
    0.98833696476127608221E+00
    0.98885538876176670708E+00
    0.98972093633883717612E+00
    0.98983165426641828155E+00
    0.98987800641639733801E+00
    0.98989549895435791083E+00
    0.98990238341487624130E+00
    0.98992099340233752347E+00
    0.98992515096103306238E+00
    0.98989028099963516372E+00
    0.98985693415532838291E+00
    0.98977440826293328069E+00
    0.98976812960395121888E+00
    0.98959889561935199254E+00
    0.98985139723922310750E+00
    0.98987714557249195657E+00
    0.98047817437733952861E+00
    0.98591444233126857011E+00
    0.98840836675573773284E+00
    0.98901593893594452744E+00
    0.98865595566829866936E+00
    0.98925614597024669195E+00
    0.98886046295393070782E+00
    0.98712260449109823224E+00
    0.98397670509456425236E+00
    0.97292173072126419964E+00
    0.97799353727108828682E+00
    0.94496562986979981691E+00
    0.98602032073864798178E+00
    0.98715740681060470951E+00
    0.98961346566886532194E+00
    0.98976021224067500803E+00
    0.98984147068388106394E+00
    0.98985866599250926789E+00
    0.98985208750583197901E+00
    0.98987477903628728892E+00
    0.98986868071461953100E+00
    0.98980018183995877035E+00
    0.98969423063327333079E+00
    0.98951365848507610856E+00
    0.98959037942193883719E+00
    0.98934431225257868370E+00
    0.98975923361674478240E+00
    0.98980074415417373945E+00
    0.98986908334680090427E+00
    0.98980026211890503873E+00
    0.98969385379608465492E+00
    0.98951367612369756088E+00
    0.98959029859096858672E+00
    0.98934433098987284438E+00
    0.98961303419023527450E+00
    0.98976033283633646498E+00
    0.98984177273846585265E+00
    0.98985853143067870086E+00
    0.98985214173028412965E+00
    0.98987465664783158559E+00
    0.98980087283530326925E+00
    0.98975918422663899943E+00
    0.98886090060031495153E+00
    0.98712270371185573126E+00
    0.98397619603958708101E+00
    0.97292181940088839909E+00
    0.97799340327873351963E+00
    0.94496591971066823401E+00
    0.98047746638699373456E+00
    0.98591461395163526582E+00
    0.98840869391131147559E+00
    0.98901579149036367156E+00
    0.98865600382999874185E+00
    0.98925602642812560106E+00
    0.98715757224044886620E+00
    0.98602024292523826610E+00
    0.98992550066459861213E+00
    0.98989036266350194371E+00
    0.98985656177361136532E+00
    0.98977443656701247221E+00
    0.98976806909793013656E+00
    0.98959891186412474173E+00
    0.98972047613192304372E+00
    0.98983175695911052028E+00
    0.98987830642861074359E+00
    0.98989538159467016509E+00
    0.98990246270645598781E+00
    0.98992082077558707365E+00
    0.98987727541114112206E+00
    0.98985133238283773416E+00
    0.98961580483205779935E+00
    0.98911712055719014369E+00
    0.98860875880220133727E+00
    0.98703926570063305057E+00
    0.98653162376333081163E+00
    0.97993129982408722078E+00
    0.98498855588461953214E+00
    0.98792089040614061712E+00
    0.98898905222631661172E+00
    0.98941611403583384909E+00
    0.98937723932301302465E+00
    0.98968338908997466330E+00
    0.98885553247076163341E+00
    0.98833688398965691135E+00
    0.87515077359535486945E+00
    0.29219979013401703449E+00
    0.24088424930364124923E-02
    0.51037461383471897171E-05
    0.27517727663512029680E-02
    0.13338450649692348057E-02
    0.25159519766765409132E+00
    0.40000626055931676195E+00
    0.60672928778538104400E+00
    0.87024032360878744718E+00
    0.42553889540154687943E+00
    0.91969868440947888377E+00
    0.39999491799120473479E+00
    0.33583208550908233425E+00
    0.48369372354577263163E-05
    0.48439886261504090686E-05
    0.48711789323511191558E-05
    0.48344514544916902601E-05
    0.48439670482446625245E-05
    0.48369729530104888676E-05
    0.48369729325799627002E-05
    0.48439670749997888914E-05
    0.48344515092935284780E-05
    0.48711787937334556655E-05
    0.48439886100591920325E-05
    0.48369371616137344820E-05
    0.48269221749877899954E-05
    0.48269089362863662953E-05
    0.98495602217876887519E+00
    0.92914751734645606440E+00
    0.97002075695861489368E+00
    0.85329155329066275204E+00
    0.18280926861218857460E+00
    0.11290183146105796375E-02
    0.11290227742715315800E-02
    0.18281024330904419029E+00
    0.85330200623087582024E+00
    0.97001804554073467468E+00
    0.92914675312472638780E+00
    0.98495593148829607699E+00
    0.14294690769860124435E+00
    0.67984666880960041915E-02
    0.91969777623520310161E+00
    0.42554064806229613405E+00
    0.87025065213039065615E+00
    0.60670670758219702456E+00
    0.39999990872923552043E+00
    0.25159419129090349054E+00
    0.13338574518566843723E-02
    0.27517051860914613741E-02
    0.51037339052969515459E-05
    0.24087576854909583529E-02
    0.29219162919662072797E+00
    0.87515448304807352820E+00
    0.39999373630992957063E+00
    0.33582960810319278933E+00
    0.98996583180353281417E+00
    0.98995383682825588423E+00
    0.98994888402491221235E+00
    0.98992860524307979553E+00
    0.98991564036353496547E+00
    0.98986207305091422626E+00
    0.98987826687839430839E+00
    0.98992166072066778426E+00
    0.98993454191213825499E+00
    0.98994328303302492333E+00
    0.98995158098434099525E+00
    0.98996115350613167472E+00
    0.98994565792387179126E+00
    0.98993688743241869954E+00
    0.98991264754315577701E+00
    0.98984332401788910349E+00
    0.98981736588742674776E+00
    0.98969386633012446097E+00
    0.98953804077046625398E+00
    0.98901490046727125183E+00
    0.98901422513837189410E+00
    0.98953835514273291718E+00
    0.98969480822287458910E+00
    0.98981668870485972622E+00
    0.98984319603522841202E+00
    0.98991249498051325784E+00
    0.98977480809082063473E+00
    0.98969125587608763883E+00
    0.98997691889366656870E+00
    0.98997441426913956875E+00
    0.98997247590891301883E+00
    0.98996932997857722825E+00
    0.98996659692856092683E+00
    0.98995601906420527261E+00
    0.98995540955760819024E+00
    0.98996685119082339366E+00
    0.98997024871368255461E+00
    0.98997173588518094789E+00
    0.98997414304999553636E+00
    0.98997728973741838665E+00
    0.98997490370717522445E+00
    0.98997339416731788830E+00
    0.98996090382865464807E+00
    0.98995170811330568394E+00
    0.98994392741276970860E+00
    0.98993358240478679377E+00
    0.98992134739395254428E+00
    0.98987894193897008055E+00
    0.98986151551091317025E+00
    0.98991594735250909576E+00
    0.98992952478812856754E+00
    0.98994821668605970100E+00
    0.98995371214504335189E+00
    0.98996580303573356030E+00
    0.98994566587001286972E+00
    0.98993688350661135367E+00
    0.98968357306381427030E+00
    0.98937743712971093490E+00
    0.98941686625875746586E+00
    0.98898804256367001120E+00
    0.98792055103814324646E+00
    0.98498959563679289175E+00
    0.97992998500500727577E+00
    0.98653199949554604142E+00
    0.98704045213245550361E+00
    0.98860797514459142210E+00
    0.98911698649641321968E+00
    0.98961569031256502171E+00
    0.98885553292675143489E+00
    0.98833688352526105625E+00
    0.98925620190344765170E+00
    0.98865621844663298390E+00
    0.98901658731094987953E+00
    0.98840762798626891072E+00
    0.98591415140768556835E+00
    0.98047808007350911730E+00
    0.94496252292667670680E+00
    0.97799362563527225678E+00
    0.97292391363821983941E+00
    0.98397503369740357826E+00
    0.98712254798592802274E+00
    0.98886079643367930103E+00