# vtk DataFile Version 3.0
LAPLACIEN  2D
ASCII
DATASET UNSTRUCTURED_GRID
 POINTS         481  float
   6.2500000000000000E-002  0.87500000000000000        0.0000000000000000     
  0.12500000000000000       0.87500000000000000        0.0000000000000000     
  0.12500000000000000       0.93750000000000000        0.0000000000000000     
   3.7499999999999999E-002  0.91249999999999998        0.0000000000000000     
   8.1250000000000003E-002  0.91874999999999996        0.0000000000000000     
   8.7499999999999994E-002  0.96250000000000002        0.0000000000000000     
   4.3749999999999997E-002  0.95625000000000004        0.0000000000000000     
  0.18750000000000000       0.87500000000000000        0.0000000000000000     
  0.25000000000000000       0.87500000000000000        0.0000000000000000     
  0.25000000000000000       0.93750000000000000        0.0000000000000000     
  0.16250000000000001       0.91249999999999998        0.0000000000000000     
  0.20624999999999999       0.91874999999999996        0.0000000000000000     
  0.21249999999999999       0.96250000000000002        0.0000000000000000     
  0.16875000000000001       0.95625000000000004        0.0000000000000000     
   6.2500000000000000E-002  0.75000000000000000        0.0000000000000000     
  0.12500000000000000       0.75000000000000000        0.0000000000000000     
  0.12500000000000000       0.81250000000000000        0.0000000000000000     
   3.7499999999999999E-002  0.78749999999999998        0.0000000000000000     
   8.1250000000000003E-002  0.79374999999999996        0.0000000000000000     
   8.7499999999999994E-002  0.83750000000000002        0.0000000000000000     
   4.3749999999999997E-002  0.83125000000000004        0.0000000000000000     
  0.18750000000000000       0.75000000000000000        0.0000000000000000     
  0.25000000000000000       0.75000000000000000        0.0000000000000000     
  0.25000000000000000       0.81250000000000000        0.0000000000000000     
  0.16250000000000001       0.78749999999999998        0.0000000000000000     
  0.20624999999999999       0.79374999999999996        0.0000000000000000     
  0.21249999999999999       0.83750000000000002        0.0000000000000000     
  0.16875000000000001       0.83125000000000004        0.0000000000000000     
  0.31250000000000000       0.87500000000000000        0.0000000000000000     
  0.37500000000000000       0.87500000000000000        0.0000000000000000     
  0.37500000000000000       0.93750000000000000        0.0000000000000000     
  0.28749999999999998       0.91249999999999998        0.0000000000000000     
  0.33124999999999999       0.91874999999999996        0.0000000000000000     
  0.33750000000000002       0.96250000000000002        0.0000000000000000     
  0.29375000000000001       0.95625000000000004        0.0000000000000000     
  0.43750000000000000       0.87500000000000000        0.0000000000000000     
  0.50000000000000000       0.87500000000000000        0.0000000000000000     
  0.50000000000000000       0.93750000000000000        0.0000000000000000     
  0.41249999999999998       0.91249999999999998        0.0000000000000000     
  0.45624999999999999       0.91874999999999996        0.0000000000000000     
  0.46250000000000002       0.96250000000000002        0.0000000000000000     
  0.41875000000000001       0.95625000000000004        0.0000000000000000     
  0.31250000000000000       0.75000000000000000        0.0000000000000000     
  0.37500000000000000       0.75000000000000000        0.0000000000000000     
  0.37500000000000000       0.81250000000000000        0.0000000000000000     
  0.28749999999999998       0.78749999999999998        0.0000000000000000     
  0.33124999999999999       0.79374999999999996        0.0000000000000000     
  0.33750000000000002       0.83750000000000002        0.0000000000000000     
  0.29375000000000001       0.83125000000000004        0.0000000000000000     
  0.43750000000000000       0.75000000000000000        0.0000000000000000     
  0.50000000000000000       0.75000000000000000        0.0000000000000000     
  0.50000000000000000       0.81250000000000000        0.0000000000000000     
  0.41249999999999998       0.78749999999999998        0.0000000000000000     
  0.45624999999999999       0.79374999999999996        0.0000000000000000     
  0.46250000000000002       0.83750000000000002        0.0000000000000000     
  0.41875000000000001       0.83125000000000004        0.0000000000000000     
   6.2500000000000000E-002  0.62500000000000000        0.0000000000000000     
  0.12500000000000000       0.62500000000000000        0.0000000000000000     
  0.12500000000000000       0.68750000000000000        0.0000000000000000     
   3.7499999999999999E-002  0.66249999999999998        0.0000000000000000     
   8.1250000000000003E-002  0.66874999999999996        0.0000000000000000     
   8.7499999999999994E-002  0.71250000000000002        0.0000000000000000     
   4.3749999999999997E-002  0.70625000000000004        0.0000000000000000     
  0.18750000000000000       0.62500000000000000        0.0000000000000000     
  0.25000000000000000       0.62500000000000000        0.0000000000000000     
  0.25000000000000000       0.68750000000000000        0.0000000000000000     
  0.16250000000000001       0.66249999999999998        0.0000000000000000     
  0.20624999999999999       0.66874999999999996        0.0000000000000000     
  0.21249999999999999       0.71250000000000002        0.0000000000000000     
  0.16875000000000001       0.70625000000000004        0.0000000000000000     
   6.2500000000000000E-002  0.50000000000000000        0.0000000000000000     
  0.12500000000000000       0.50000000000000000        0.0000000000000000     
  0.12500000000000000       0.56250000000000000        0.0000000000000000     
   3.7499999999999999E-002  0.53749999999999998        0.0000000000000000     
   8.1250000000000003E-002  0.54374999999999996        0.0000000000000000     
   8.7499999999999994E-002  0.58750000000000002        0.0000000000000000     
   4.3749999999999997E-002  0.58125000000000004        0.0000000000000000     
  0.18750000000000000       0.50000000000000000        0.0000000000000000     
  0.25000000000000000       0.50000000000000000        0.0000000000000000     
  0.25000000000000000       0.56250000000000000        0.0000000000000000     
  0.16250000000000001       0.53749999999999998        0.0000000000000000     
  0.20624999999999999       0.54374999999999996        0.0000000000000000     
  0.21249999999999999       0.58750000000000002        0.0000000000000000     
  0.16875000000000001       0.58125000000000004        0.0000000000000000     
  0.31250000000000000       0.62500000000000000        0.0000000000000000     
  0.37500000000000000       0.62500000000000000        0.0000000000000000     
  0.37500000000000000       0.68750000000000000        0.0000000000000000     
  0.28749999999999998       0.66249999999999998        0.0000000000000000     
  0.33124999999999999       0.66874999999999996        0.0000000000000000     
  0.33750000000000002       0.71250000000000002        0.0000000000000000     
  0.29375000000000001       0.70625000000000004        0.0000000000000000     
  0.43750000000000000       0.62500000000000000        0.0000000000000000     
  0.50000000000000000       0.62500000000000000        0.0000000000000000     
  0.50000000000000000       0.68750000000000000        0.0000000000000000     
  0.41249999999999998       0.66249999999999998        0.0000000000000000     
  0.45624999999999999       0.66874999999999996        0.0000000000000000     
  0.46250000000000002       0.71250000000000002        0.0000000000000000     
  0.41875000000000001       0.70625000000000004        0.0000000000000000     
  0.31250000000000000       0.50000000000000000        0.0000000000000000     
  0.37500000000000000       0.50000000000000000        0.0000000000000000     
  0.37500000000000000       0.56250000000000000        0.0000000000000000     
  0.28749999999999998       0.53749999999999998        0.0000000000000000     
  0.33124999999999999       0.54374999999999996        0.0000000000000000     
  0.33750000000000002       0.58750000000000002        0.0000000000000000     
  0.29375000000000001       0.58125000000000004        0.0000000000000000     
  0.43750000000000000       0.50000000000000000        0.0000000000000000     
  0.50000000000000000       0.50000000000000000        0.0000000000000000     
  0.50000000000000000       0.56250000000000000        0.0000000000000000     
  0.41249999999999998       0.53749999999999998        0.0000000000000000     
  0.45624999999999999       0.54374999999999996        0.0000000000000000     
  0.46250000000000002       0.58750000000000002        0.0000000000000000     
  0.41875000000000001       0.58125000000000004        0.0000000000000000     
  0.56250000000000000       0.87500000000000000        0.0000000000000000     
  0.62500000000000000       0.87500000000000000        0.0000000000000000     
  0.62500000000000000       0.93750000000000000        0.0000000000000000     
  0.53749999999999998       0.91249999999999998        0.0000000000000000     
  0.58125000000000004       0.91874999999999996        0.0000000000000000     
  0.58750000000000002       0.96250000000000002        0.0000000000000000     
  0.54374999999999996       0.95625000000000004        0.0000000000000000     
  0.68750000000000000       0.87500000000000000        0.0000000000000000     
  0.75000000000000000       0.87500000000000000        0.0000000000000000     
  0.75000000000000000       0.93750000000000000        0.0000000000000000     
  0.66249999999999998       0.91249999999999998        0.0000000000000000     
  0.70625000000000004       0.91874999999999996        0.0000000000000000     
  0.71250000000000002       0.96250000000000002        0.0000000000000000     
[...]
 CELL_DATA         896
 SCALARS Endothelial_cells float
 LOOKUP_TABLE default
    0.98997292158751293289E+00
    0.98997053814208046951E+00
    0.98996138044717763016E+00
    0.98995973655634128541E+00
    0.98996956852670225935E+00
    0.98997401495515502390E+00
    0.98997242453493627945E+00
    0.98997673279207576424E+00
    0.98997973746220990776E+00
    0.98997857339819717026E+00
    0.98997619398054992335E+00
    0.98997345447936391238E+00
    0.98998167525624125584E+00
    0.98998150593285771937E+00
    0.98992309573886561047E+00
    0.98991587846335771239E+00
    0.98986486755826974537E+00
    0.98987696483094289590E+00
    0.98992223717188021492E+00
    0.98993443229473998546E+00
    0.98994279328247403171E+00
    0.98995236641653028276E+00
    0.98996160705618641007E+00
    0.98996866672576955271E+00
    0.98995393173232548722E+00
    0.98995254838854152002E+00
    0.98994747697015639254E+00
    0.98994821312074454678E+00
    0.98993303823956324550E+00
    0.98992266853283583661E+00
    0.98987892872379490417E+00
    0.98986351406122052854E+00
    0.98991536214203268429E+00
    0.98992312338917154424E+00
    0.98995223773578278070E+00
    0.98995478321723706649E+00
    0.98996930420075834878E+00
    0.98996014196394743756E+00
    0.98995216422578169446E+00
    0.98994408121399302125E+00
    0.98994834053902858173E+00
    0.98994759174756141729E+00
    0.98962750673811883395E+00
    0.98948488242598497955E+00
    0.98894141793802481377E+00
    0.98893960534974512111E+00
    0.98948435007488022563E+00
    0.98962754975454836348E+00
    0.98981263100077454542E+00
    0.98981887821761427304E+00
    0.98990425200577925047E+00
    0.98990199121107946834E+00
    0.98981792324445738718E+00
    0.98981294873277625435E+00
    0.98970730881623414366E+00
    0.98970730049174304721E+00
    0.98972083339246508249E+00
    0.98975000124910683663E+00
    0.98960372446239630584E+00
    0.98970069456564890853E+00
    0.98982455314067141483E+00
    0.98987270647782188426E+00
    0.98989123335779038992E+00
    0.98989671969789283512E+00
    0.98991773290660667328E+00
    0.98992376106028012739E+00
    0.98988142198377482295E+00
    0.98985187938875918157E+00
    0.98985571829950602663E+00
    0.98986840862171243671E+00
    0.98936885578365418858E+00
    0.98954661222617967820E+00
    0.98935866406666506112E+00
    0.98957406484268795044E+00
    0.98974989373046740049E+00
    0.98983542276104796720E+00
    0.98985330850933728186E+00
    0.98984337324492843724E+00
    0.98986673304556360709E+00
    0.98986231620435871648E+00
    0.98977595095459269814E+00
    0.98966651136499406149E+00
    0.98974964457382230698E+00
    0.98978670528000589623E+00
    0.98568043565775476100E+00
    0.98589901402735846681E+00
    0.98020690984875313845E+00
    0.98422703576567149852E+00
    0.98760849492905888880E+00
    0.98877524759261559151E+00
    0.98939219292910085546E+00
    0.98924649926669583344E+00
    0.98960955246631476800E+00
    0.98953425802278915935E+00
    0.98888097626574222865E+00
    0.98843441249141739124E+00
    0.98827967347981038326E+00
    0.98849848967259568155E+00
    0.95280356644080899109E+00
    0.97432652517813655990E+00
    0.94831976365490922021E+00
    0.97814198036008759285E+00
    0.98534890695840693375E+00
    0.98812893440231253095E+00
    0.98897953981052366679E+00
    0.98840623048003184437E+00
    0.98905733777157389675E+00
    0.98864607842404039761E+00
    0.98623967057826045224E+00
    0.98272167373693564141E+00
    0.98548207138667487381E+00
    0.98646154797394192126E+00
    0.98987130361318897975E+00
    0.98982499007529789470E+00
    0.98970269357269857746E+00
    0.98960232700196193445E+00
    0.98974948877696344862E+00
    0.98972087501787464614E+00
    0.98985155940006319675E+00
    0.98988227799120964701E+00
    0.98992438519753667148E+00
    0.98991624477677808702E+00
    0.98989619160768338446E+00
    0.98989227880498964485E+00
    0.98986853185348000483E+00
    0.98985582757741652493E+00
    0.98877517606266029926E+00
    0.98760912063738481859E+00
    0.98423012023018041639E+00
    0.98020404942714089991E+00
    0.98589834406013476809E+00
    0.98568063369273373198E+00
    0.98843397219029971446E+00
    0.98888197947224365514E+00
    0.98953591328235845914E+00
    0.98960652269961191241E+00
    0.98924585021393962592E+00
    0.98939280111991967370E+00
    0.98849864046381497040E+00
    0.98827976954406648868E+00
    0.98983485264288717520E+00
    0.98975033477236462609E+00
    0.98957608933966767495E+00
    0.98935722145084892265E+00
    0.98954609069358256956E+00
    0.98936891400014670417E+00
    0.98966618162453923180E+00
    0.98977681457598476467E+00
    0.98986301774418317123E+00
    0.98986531049876802513E+00
    0.98984280122773260491E+00
    0.98985432739218170983E+00
    0.98978683016443436138E+00
    0.98974975436563938924E+00
    0.98812961757005157715E+00
    0.98534959459954640781E+00
    0.97814621814947877443E+00
    0.94831337688752159742E+00
    0.97432546423347055065E+00
    0.95280489327450734738E+00
    0.98272086324502372356E+00
    0.98624081200876945186E+00
    0.98864792457459904629E+00
    0.98905413204341430244E+00
    0.98840554382476653039E+00
    0.98898019669510517371E+00
    0.98646175587276896390E+00
    0.98548216366472052297E+00
    0.76619770499385864149E+00
    0.24254471587352721684E+00
    0.19320856437383914211E-02
    0.19319837527853312136E-02
    0.24253515393309621473E+00
    0.76620039202622070018E+00
    0.95958064351045968543E+00
    0.87563823117387906692E+00
    0.98265767938136483473E+00
    0.98265375015178890727E+00
    0.87563548131249258066E+00
    0.95958386799063155603E+00
    0.14318849324645754884E+00
    0.14318886752562201559E+00
    0.18301806162102042861E-04
    0.72481733046374507978E-02
    0.60827511604339152412E-02
    0.37284899781779073935E+00
    0.40051064245885309445E+00
    0.52516755784587709766E+00
    0.75599461511385623869E+00
    0.40000248917061048681E+00
    0.88390819685359967028E+00
    0.83088476696717550318E+00
    0.39999664844248467022E+00
    0.25704548491600379134E-01
    0.36423402842152402537E+00
    0.39998653873343387177E+00
    0.52517407090120560298E+00
    0.40047445821962401880E+00
    0.37288230645182163236E+00
    0.60833767619467076990E-02
    0.72479303635955153254E-02
    0.18297771658137827359E-04
    0.25697076809050839463E-01
    0.39999495626507886037E+00
    0.83092415891012139095E+00
    0.88388057346481985199E+00
    0.39999240388460560736E+00
    0.75601062343299496593E+00
    0.40002677834960576053E+00
    0.36420361568897702265E+00
    0.11063763161752384156E-04
    0.11081055432900666853E-04
    0.11057475795422417006E-04
    0.11057475751699862064E-04
    0.11081055482185485565E-04
    0.11063763156891965109E-04
    0.12943841738302948167E-04
    0.11081023975980600427E-04
    0.11057288558624456612E-04
    0.11057288395445280494E-04
    0.11081023976758037759E-04
    0.12944201830259423062E-04
    0.11038810958687819791E-04
    0.11038810960892378891E-04
    0.98925754219770778430E+00
    0.98954496529294633245E+00
    0.98945690787770024244E+00
    0.98966405725169559471E+00
    0.98978539491088790570E+00
    0.98986667915960824260E+00
    0.98986817424389494935E+00
    0.98984529931516573864E+00
    0.98985223071426597929E+00
    0.98983460927404276486E+00
    0.98974013619564493727E+00
    0.98957228054147838847E+00
    0.98974461412685443840E+00
    0.98979087557412248621E+00
    0.98955474835165369019E+00
    0.98974948355656078292E+00
    0.98975758181420792070E+00
    0.98984917223458823710E+00
    0.98988686203559073107E+00
    0.98992873764147804039E+00
    0.98991871986747215217E+00
    0.98990157803603939790E+00
    0.98989321529042018089E+00
    0.98987510594972893951E+00
    0.98982229049273762200E+00
    0.98969648875717253222E+00
    0.98985002319280934735E+00
    0.98987687545970959313E+00
    0.91857264055890575083E+00
    0.97409080708195172615E+00
    0.96625179239958247646E+00
    0.98260836331622225526E+00
    0.98656927865412080703E+00
    0.98868996024373145826E+00
    0.98915340411949947974E+00
    0.98843977788954084929E+00
    0.98887346995490899015E+00
    0.98814513262407921435E+00
    0.98502897990383619931E+00
    0.97778996799574835475E+00
    0.98520825680810864000E+00
    0.98662077303418671548E+00
    0.97708298790819869684E+00
    0.98585562334924214944E+00
    0.98649847080166086499E+00
    0.98839348468512400192E+00
    0.98899001322099289180E+00
    0.98957377979045568761E+00
    0.98965120479711210510E+00
    0.98929564475161058112E+00
    0.98934487999965747829E+00
    0.98883917731922787997E+00
    0.98755729900078714767E+00
    0.98392857648860587716E+00
    0.98807225494547834543E+00
    0.98868604154335593126E+00
    0.98985606051169916508E+00
    0.98991608291851485024E+00
    0.98993150385913364353E+00
    0.98995189418886297972E+00
    0.98995641691249003369E+00
    0.98997197314612705998E+00
    0.98996185783904477873E+00
    0.98995485170441688272E+00
    0.98994519333651365134E+00
    0.98993674696179545514E+00
    0.98992253054245527011E+00
    0.98987542815064810675E+00
    0.98994509534374386384E+00
    0.98995216475899017183E+00
    0.98996076907806929146E+00
    0.98997185940149734495E+00
    0.98997534544002885326E+00
    0.98997363597811638414E+00
    0.98997709848815207412E+00
    0.98998057870558864302E+00
    0.98997964646611291695E+00
    0.98997790440912813992E+00
    0.98997479002542265736E+00
    0.98997476080288993039E+00
    0.98997109186132514758E+00
    0.98996078361317629835E+00
    0.98998390713297768073E+00
    0.98998327274044206625E+00
    0.98887474268013253464E+00
    0.98948334298870477266E+00
    0.98966460341358797326E+00
    0.98980402123186139729E+00
    0.98983244242909562693E+00
    0.98991269701258333136E+00
    0.98991199827469733563E+00
    0.98983284422214956599E+00
    0.98980643440690396773E+00
    0.98966334983005921355E+00
    0.98948296554180814599E+00
    0.98887477362397968594E+00
    0.98966560405047843130E+00
    0.98975878497090019614E+00
    0.98987559797962543229E+00
    0.98992281089960076912E+00
    0.98993717493368726945E+00
    0.98994414267050279133E+00
    0.98995420331147976345E+00
    0.98996315864276107632E+00
    0.98997022242829535443E+00
    0.98995669273909725483E+00
    0.98995425728130148624E+00
    0.98993028870438937172E+00
    0.98991569918249400217E+00
    0.98985626040806184989E+00
    0.98994510734444496336E+00
    0.98995213323698649788E+00
    0.44716595334444185494E-01
    0.63332154717084102047E-01
    0.40553496185468278560E-04
    0.79244161856188155557E-02
    0.39999819065667963081E+00
    0.83601543062812011531E+00
    0.87460895331957977383E+00
    0.39999737723529804612E+00
    0.79443248549744105436E+00
    0.49319065850295579212E+00
    0.43354509000130792007E+00
    0.39999958398891427569E+00
    0.39999463867624246438E+00
    0.40000966357700129539E+00
    0.28405630396675660490E-02
    0.27323231285218252395E+00
    0.77805199172612582448E+00
    0.96138982880914269913E+00
    0.89671060254245882337E+00
    0.98364916940219615515E+00
    0.98364774839946700347E+00
    0.89671412073344136662E+00
    0.96139957288836952465E+00
    0.77802619000106931768E+00
    0.27324050711963410176E+00
    0.28406421816608378415E-02
    0.16625058812301012762E-01
    0.20605199150591713142E+00
    0.11063774472510144647E-04
    0.11081064922486119943E-04
    0.11057473563905692875E-04
    0.27740566368808953704E-04
    0.11081034559122586821E-04
    0.11063577352605677949E-04
    0.11063577340426225082E-04
    0.11081034566703621484E-04
    0.27737945230200326645E-04
    0.11057473447428403364E-04
    0.11081064907858652072E-04
    0.11063774468687056357E-04
    0.11038836575704011743E-04
    0.11038823053845618153E-04
    0.39999129122406140713E+00
    0.43353469043044406961E+00
    0.49322338001351268000E+00
    0.79439598580606685108E+00
    0.40000079647576841646E+00
    0.87462126771491954802E+00
    0.83599432583325428148E+00
    0.39999590229835940702E+00
    0.79328713506279166512E-02
    0.40525721325186175252E-04
    0.63315716567696952999E-01
    0.44726646590370754131E-01
    0.40002901490734316114E+00
    0.39998300338136660859E+00
    0.98392878245470527521E+00
    0.98755768871151250465E+00
    0.98884058809257291411E+00
    0.98934207783393302016E+00
    0.98929480061480368214E+00
    0.98965205028316693969E+00
    0.98957315457641792378E+00
    0.98899045492931403345E+00
    0.98839624947962245738E+00
    0.98649661997361537402E+00
    0.98585515125279066240E+00
    0.97708377066560492263E+00
    0.98807225731102188426E+00
    0.98868605288196609315E+00
    0.98969665891925662216E+00
    0.98982257229045378377E+00
    0.98987553680989504024E+00
    0.98989215862423951542E+00
    0.98990092442439381326E+00
    0.98992001827090270183E+00
    0.98992696810056823864E+00
    0.98988713754817236889E+00
    0.98985155510602729212E+00
    0.98975633268084051153E+00
    0.98974909183672010737E+00
    0.98955496120665398241E+00
    0.98985003410822891556E+00
    0.98987684239970963329E+00
    0.97779189082000539379E+00
    0.98502968296741866272E+00
    0.98814666315087418269E+00
    0.98887053794251300598E+00
    0.98843889783899763213E+00
    0.98915432145101289674E+00
    0.98868925667562068682E+00
    0.98656985673772046308E+00
    0.98261254224824468029E+00
    0.96624716700916368772E+00
    0.97409024588488157814E+00
    0.91857459902448113098E+00
    0.98520856637227849362E+00
    0.98662083106082787420E+00
    0.98957321815876964077E+00
    0.98974060494850579772E+00
    0.98983504108465081295E+00
    0.98985109032496698678E+00
    0.98984452200669015287E+00
    0.98986943482634859315E+00
    0.98986485425362147339E+00
    0.98978599208231787809E+00
    0.98966648422668468399E+00
    0.98945564608776193083E+00
    0.98954462740542803445E+00
    0.98925776243180940650E+00
    0.98974480224260741323E+00
    0.98979114618380636959E+00
    0.98986610723500667586E+00
    0.98978634763418216203E+00
    0.98966534151431440058E+00
    0.98945548373683778198E+00
    0.98954444354276049900E+00
    0.98925760651296024140E+00
    0.98957195155769228645E+00
    0.98974100673184273180E+00
    0.98983603415567711359E+00
    0.98985081056588586357E+00
    0.98984472769623799149E+00
    0.98986918840785009799E+00
    0.98979149216927064803E+00
    0.98974472971404747756E+00
    0.98869059190914654334E+00
    0.98657020086507929424E+00
    0.98261067923440148508E+00
    0.96624710273479996747E+00
    0.97408977304746879877E+00
    0.91857478284035587457E+00
    0.97778921541688645913E+00
    0.98503013399306971198E+00
    0.98814775354738071389E+00
    0.98887020732559494096E+00
    0.98843906797807923326E+00
    0.98915404034873088968E+00
    0.98662124069466361487E+00
    0.98520837894847557159E+00
    0.98992816235417235848E+00
    0.98988748682018612435E+00
    0.98985043279395301674E+00
    0.98975618635629913911E+00
    0.98974893943608666103E+00
    0.98955480077444424314E+00
    0.98969532214097100109E+00
    0.98982293277302368928E+00
    0.98987652485459409757E+00
    0.98989190360620449294E+00
    0.98990116464364907856E+00
    0.98991972209513612313E+00
    0.98987718149234416032E+00
    0.98984992518972003683E+00
    0.98957438614281834077E+00
    0.98899078811870100303E+00
    0.98839498748860710187E+00
    0.98649650615027295597E+00
    0.98585493138383484268E+00
    0.97708371221261769435E+00
    0.98392666958697794222E+00
    0.98755806392268186134E+00
    0.98884161312809804034E+00
    0.98934176554280361948E+00
    0.98929495818040458222E+00
    0.98965178531847852739E+00
    0.98868640640841076728E+00
    0.98807208497212262177E+00
    0.83601426930947075888E+00
    0.39999449648092388898E+00
    0.79330112905028199455E-02
    0.40549408951231196839E-04
    0.63332238857098308027E-01
    0.44725011734002229069E-01
    0.39999614382690201753E+00
    0.43355101009807628376E+00
    0.49324423701599257042E+00
    0.79439030679409228242E+00
    0.39999397787443796703E+00
    0.87461849320969065058E+00
    0.40001127351143306310E+00
    0.39999423308174036906E+00
    0.11063577353280974966E-04
    0.11081034566422245610E-04
    0.27754891862667169239E-04
    0.11057473446166796917E-04
    0.11081064936210769276E-04
    0.11063774464023260762E-04
    0.11063774458303015182E-04
    0.11081064977592433471E-04
    0.11057473545572460942E-04
    0.27742798382554271266E-04
    0.11081034515324994925E-04
    0.11063577329058987025E-04
    0.11038823013456151411E-04
    0.11038836596188326196E-04
    0.98365004805092104423E+00
    0.89671446812227706413E+00
    0.96139625310291032534E+00
    0.77802680260401446688E+00
    0.27323888325935430377E+00
    0.28406176175355445437E-02
    0.28406245542338327999E-02
    0.27323667311997895668E+00
    0.77806458496286368121E+00
    0.96138877977428816024E+00
    0.89671160616154754752E+00
    0.98364928454756872522E+00
    0.20605293075321670648E+00
    0.16625145450422141452E-01
    0.87461805362125499830E+00
    0.40000442405272762514E+00
    0.79441481957182580320E+00
    0.49318659908420248161E+00
    0.43351816611357535391E+00
    0.39998938240180836878E+00
    0.44741644507673747344E-01
    0.63344082729627312900E-01
    0.40535578386224992750E-04
    0.79326531553396452401E-02
    0.39998543060017865969E+00
    0.83601253514872242434E+00
    0.39998724902888127541E+00
    0.40000572178421028857E+00
    0.98997139702455549948E+00
    0.98995703554902048094E+00
    0.98995313753918989796E+00
    0.98993013652365702271E+00
    0.98991554675609017000E+00
    0.98985609647505978792E+00
    0.98987428465312299330E+00
    0.98992316845809624759E+00
    0.98993815625300141114E+00
    0.98994388807854383217E+00
    0.98995444015334954635E+00
    0.98996285248288484748E+00
    0.98995246762889110848E+00
    0.98994499840778360511E+00
    0.98991347146514629962E+00
    0.98983316542924326686E+00
    0.98980528998328098922E+00
    0.98966319338750752266E+00
    0.98948279623591706144E+00
    0.98887456734617107390E+00
    0.98887325890043897836E+00
    0.98948369039993955276E+00
    0.98966555159714153511E+00
    0.98980374133923310076E+00
    0.98983261417233137092E+00
    0.98991272426480725333E+00
    0.98975910233592134801E+00
    0.98966547015803185694E+00
    0.98997962822591856202E+00
    0.98997792636389192467E+00
    0.98997508704055137141E+00
    0.98997391482838048571E+00
    0.98997128497885134024E+00
    0.98996077930153258961E+00
    0.98995963470888559410E+00
    0.98997181088024721607E+00
    0.98997612325669792632E+00
    0.98997333774207474377E+00
    0.98997726657556794905E+00
    0.98998054911327859617E+00
    0.98998353574510322694E+00
    0.98998391415834618989E+00
    0.98996210699037168190E+00
    0.98995478274262616036E+00
    0.98994543659384226508E+00
    0.98993575183502358072E+00
    0.98992225555891777411E+00
    0.98987554362085494741E+00
    0.98985502965084237736E+00
    0.98991639750849191870E+00
    0.98993241006450372055E+00
    0.98995159592666026604E+00
    0.98995645068884807749E+00
    0.98997078971947993775E+00
    0.98995243231910501347E+00
    0.98994495851700292643E+00
    0.98965272893321676317E+00
    0.98929558286141716650E+00
    0.98934343920710099418E+00
    0.98883902835521986230E+00
    0.98755709004228153791E+00
    0.98392883273763953600E+00
    0.97708068659428681801E+00
    0.98585608790030110349E+00
    0.98649970176584556025E+00
    0.98839315666791049964E+00
    0.98899019802586163319E+00
    0.98957381934912302945E+00
    0.98868639445905848184E+00
    0.98807207893010151611E+00
    0.98915499092416570015E+00
    0.98843972311453209834E+00
    0.98887198327375336326E+00
    0.98814498182235555035E+00
    0.98502869399067571887E+00
    0.97779045734661385048E+00
    0.91856495876131716294E+00
    0.97409073153717895543E+00
    0.96625380484678191628E+00
    0.98260781204011271583E+00
    0.98656950027642398293E+00
    0.98868998387619533297E+00