# vtk DataFile Version 3.0
LAPLACIEN  2D
ASCII
DATASET UNSTRUCTURED_GRID
 POINTS         481  float
   6.2500000000000000E-002  0.87500000000000000        0.0000000000000000     
  0.12500000000000000       0.87500000000000000        0.0000000000000000     
  0.12500000000000000       0.93750000000000000        0.0000000000000000     
   3.7499999999999999E-002  0.91249999999999998        0.0000000000000000     
   8.1250000000000003E-002  0.91874999999999996        0.0000000000000000     
   8.7499999999999994E-002  0.96250000000000002        0.0000000000000000     
   4.3749999999999997E-002  0.95625000000000004        0.0000000000000000     
  0.18750000000000000       0.87500000000000000        0.0000000000000000     
  0.25000000000000000       0.87500000000000000        0.0000000000000000     
  0.25000000000000000       0.93750000000000000        0.0000000000000000     
  0.16250000000000001       0.91249999999999998        0.0000000000000000     
  0.20624999999999999       0.91874999999999996        0.0000000000000000     
  0.21249999999999999       0.96250000000000002        0.0000000000000000     
  0.16875000000000001       0.95625000000000004        0.0000000000000000     
   6.2500000000000000E-002  0.75000000000000000        0.0000000000000000     
  0.12500000000000000       0.75000000000000000        0.0000000000000000     
  0.12500000000000000       0.81250000000000000        0.0000000000000000     
   3.7499999999999999E-002  0.78749999999999998        0.0000000000000000     
   8.1250000000000003E-002  0.79374999999999996        0.0000000000000000     
   8.7499999999999994E-002  0.83750000000000002        0.0000000000000000     
   4.3749999999999997E-002  0.83125000000000004        0.0000000000000000     
  0.18750000000000000       0.75000000000000000        0.0000000000000000     
  0.25000000000000000       0.75000000000000000        0.0000000000000000     
  0.25000000000000000       0.81250000000000000        0.0000000000000000     
  0.16250000000000001       0.78749999999999998        0.0000000000000000     
  0.20624999999999999       0.79374999999999996        0.0000000000000000     
  0.21249999999999999       0.83750000000000002        0.0000000000000000     
  0.16875000000000001       0.83125000000000004        0.0000000000000000     
  0.31250000000000000       0.87500000000000000        0.0000000000000000     
  0.37500000000000000       0.87500000000000000        0.0000000000000000     
  0.37500000000000000       0.93750000000000000        0.0000000000000000     
  0.28749999999999998       0.91249999999999998        0.0000000000000000     
  0.33124999999999999       0.91874999999999996        0.0000000000000000     
  0.33750000000000002       0.96250000000000002        0.0000000000000000     
  0.29375000000000001       0.95625000000000004        0.0000000000000000     
  0.43750000000000000       0.87500000000000000        0.0000000000000000     
  0.50000000000000000       0.87500000000000000        0.0000000000000000     
  0.50000000000000000       0.93750000000000000        0.0000000000000000     
  0.41249999999999998       0.91249999999999998        0.0000000000000000     
  0.45624999999999999       0.91874999999999996        0.0000000000000000     
  0.46250000000000002       0.96250000000000002        0.0000000000000000     
  0.41875000000000001       0.95625000000000004        0.0000000000000000     
  0.31250000000000000       0.75000000000000000        0.0000000000000000     
  0.37500000000000000       0.75000000000000000        0.0000000000000000     
  0.37500000000000000       0.81250000000000000        0.0000000000000000     
  0.28749999999999998       0.78749999999999998        0.0000000000000000     
  0.33124999999999999       0.79374999999999996        0.0000000000000000     
  0.33750000000000002       0.83750000000000002        0.0000000000000000     
  0.29375000000000001       0.83125000000000004        0.0000000000000000     
  0.43750000000000000       0.75000000000000000        0.0000000000000000     
  0.50000000000000000       0.75000000000000000        0.0000000000000000     
  0.50000000000000000       0.81250000000000000        0.0000000000000000     
  0.41249999999999998       0.78749999999999998        0.0000000000000000     
  0.45624999999999999       0.79374999999999996        0.0000000000000000     
  0.46250000000000002       0.83750000000000002        0.0000000000000000     
  0.41875000000000001       0.83125000000000004        0.0000000000000000     
   6.2500000000000000E-002  0.62500000000000000        0.0000000000000000     
  0.12500000000000000       0.62500000000000000        0.0000000000000000     
  0.12500000000000000       0.68750000000000000        0.0000000000000000     
   3.7499999999999999E-002  0.66249999999999998        0.0000000000000000     
   8.1250000000000003E-002  0.66874999999999996        0.0000000000000000     
   8.7499999999999994E-002  0.71250000000000002        0.0000000000000000     
   4.3749999999999997E-002  0.70625000000000004        0.0000000000000000     
  0.18750000000000000       0.62500000000000000        0.0000000000000000     
  0.25000000000000000       0.62500000000000000        0.0000000000000000     
  0.25000000000000000       0.68750000000000000        0.0000000000000000     
  0.16250000000000001       0.66249999999999998        0.0000000000000000     
  0.20624999999999999       0.66874999999999996        0.0000000000000000     
  0.21249999999999999       0.71250000000000002        0.0000000000000000     
  0.16875000000000001       0.70625000000000004        0.0000000000000000     
   6.2500000000000000E-002  0.50000000000000000        0.0000000000000000     
  0.12500000000000000       0.50000000000000000        0.0000000000000000     
  0.12500000000000000       0.56250000000000000        0.0000000000000000     
   3.7499999999999999E-002  0.53749999999999998        0.0000000000000000     
   8.1250000000000003E-002  0.54374999999999996        0.0000000000000000     
   8.7499999999999994E-002  0.58750000000000002        0.0000000000000000     
   4.3749999999999997E-002  0.58125000000000004        0.0000000000000000     
  0.18750000000000000       0.50000000000000000        0.0000000000000000     
  0.25000000000000000       0.50000000000000000        0.0000000000000000     
  0.25000000000000000       0.56250000000000000        0.0000000000000000     
  0.16250000000000001       0.53749999999999998        0.0000000000000000     
  0.20624999999999999       0.54374999999999996        0.0000000000000000     
  0.21249999999999999       0.58750000000000002        0.0000000000000000     
  0.16875000000000001       0.58125000000000004        0.0000000000000000     
  0.31250000000000000       0.62500000000000000        0.0000000000000000     
  0.37500000000000000       0.62500000000000000        0.0000000000000000     
  0.37500000000000000       0.68750000000000000        0.0000000000000000     
  0.28749999999999998       0.66249999999999998        0.0000000000000000     
  0.33124999999999999       0.66874999999999996        0.0000000000000000     
  0.33750000000000002       0.71250000000000002        0.0000000000000000     
  0.29375000000000001       0.70625000000000004        0.0000000000000000     
  0.43750000000000000       0.62500000000000000        0.0000000000000000     
  0.50000000000000000       0.62500000000000000        0.0000000000000000     
  0.50000000000000000       0.68750000000000000        0.0000000000000000     
  0.41249999999999998       0.66249999999999998        0.0000000000000000     
  0.45624999999999999       0.66874999999999996        0.0000000000000000     
  0.46250000000000002       0.71250000000000002        0.0000000000000000     
  0.41875000000000001       0.70625000000000004        0.0000000000000000     
  0.31250000000000000       0.50000000000000000        0.0000000000000000     
  0.37500000000000000       0.50000000000000000        0.0000000000000000     
  0.37500000000000000       0.56250000000000000        0.0000000000000000     
  0.28749999999999998       0.53749999999999998        0.0000000000000000     
  0.33124999999999999       0.54374999999999996        0.0000000000000000     
  0.33750000000000002       0.58750000000000002        0.0000000000000000     
  0.29375000000000001       0.58125000000000004        0.0000000000000000     
  0.43750000000000000       0.50000000000000000        0.0000000000000000     
  0.50000000000000000       0.50000000000000000        0.0000000000000000     
  0.50000000000000000       0.56250000000000000        0.0000000000000000     
  0.41249999999999998       0.53749999999999998        0.0000000000000000     
  0.45624999999999999       0.54374999999999996        0.0000000000000000     
  0.46250000000000002       0.58750000000000002        0.0000000000000000     
  0.41875000000000001       0.58125000000000004        0.0000000000000000     
  0.56250000000000000       0.87500000000000000        0.0000000000000000     
  0.62500000000000000       0.87500000000000000        0.0000000000000000     
  0.62500000000000000       0.93750000000000000        0.0000000000000000     
  0.53749999999999998       0.91249999999999998        0.0000000000000000     
  0.58125000000000004       0.91874999999999996        0.0000000000000000     
  0.58750000000000002       0.96250000000000002        0.0000000000000000     
  0.54374999999999996       0.95625000000000004        0.0000000000000000     
  0.68750000000000000       0.87500000000000000        0.0000000000000000     
  0.75000000000000000       0.87500000000000000        0.0000000000000000     
  0.75000000000000000       0.93750000000000000        0.0000000000000000     
  0.66249999999999998       0.91249999999999998        0.0000000000000000     
  0.70625000000000004       0.91874999999999996        0.0000000000000000     
  0.71250000000000002       0.96250000000000002        0.0000000000000000     
[...]
 CELL_DATA         896
 SCALARS Endothelial_cells float
 LOOKUP_TABLE default
    0.98997352301051810830E+00
    0.98997101710887769332E+00
    0.98996161261269266518E+00
    0.98995983905218387644E+00
    0.98997001634141867932E+00
    0.98997472815627196585E+00
    0.98997263460973217164E+00
    0.98997723270846260668E+00
    0.98998027850895409241E+00
    0.98997902311038099565E+00
    0.98997671855358648774E+00
    0.98997379762881454468E+00
    0.98998277700385184374E+00
    0.98998260649390157351E+00
    0.98992180188109102357E+00
    0.98991422732656642047E+00
    0.98986085698177350700E+00
    0.98987361326279654783E+00
    0.98992102588923625017E+00
    0.98993401534670266706E+00
    0.98994239480650347840E+00
    0.98995238645756811202E+00
    0.98996177344240754437E+00
    0.98996927104695187083E+00
    0.98995377624568114960E+00
    0.98995243899882445771E+00
    0.98994748280811317720E+00
    0.98994830672520184311E+00
    0.98993250930301812662E+00
    0.98992148976849958508E+00
    0.98987573407878592935E+00
    0.98985939679491474763E+00
    0.98991367276983943668E+00
    0.98992183635149511023E+00
    0.98995210591699822622E+00
    0.98995469496546439903E+00
    0.98996985613989785247E+00
    0.98996009262710982224E+00
    0.98995211118012116369E+00
    0.98994374128187079265E+00
    0.98994844396985171020E+00
    0.98994760665822589818E+00
    0.98961039563954478204E+00
    0.98945919328912634860E+00
    0.98888215259182499217E+00
    0.98888018351340634116E+00
    0.98945861769930154583E+00
    0.98961044733554348607E+00
    0.98980578091404081142E+00
    0.98981223213360436386E+00
    0.98990209423909691910E+00
    0.98989965896121734357E+00
    0.98981120252689946959E+00
    0.98980612385525246211E+00
    0.98969483949678260792E+00
    0.98969482907865702348E+00
    0.98970919403831980610E+00
    0.98974007965072241522E+00
    0.98958539937512424167E+00
    0.98968817626832594758E+00
    0.98981896643454403417E+00
    0.98986989183152185312E+00
    0.98988899655692963453E+00
    0.98989472478441242753E+00
    0.98991652593783863168E+00
    0.98992291043172164766E+00
    0.98987840913886337990E+00
    0.98984730229309958460E+00
    0.98985181333135063841E+00
    0.98986524404655928944E+00
    0.98933552203842867190E+00
    0.98952468309323748930E+00
    0.98932456412828828629E+00
    0.98955407644908865983E+00
    0.98974044083653067716E+00
    0.98983095418323197023E+00
    0.98984956400845991453E+00
    0.98983914913906256849E+00
    0.98986356851012546887E+00
    0.98985899031097057676E+00
    0.98976779130764336312E+00
    0.98965200335679537336E+00
    0.98974029502918348111E+00
    0.98977955297553998903E+00
    0.98535612531832450500E+00
    0.98558728323284749973E+00
    0.97921727100791033926E+00
    0.98375802055618888353E+00
    0.98744345755773843543E+00
    0.98870215147974849224E+00
    0.98936059189684122384E+00
    0.98920558345141429424E+00
    0.98959152065334499149E+00
    0.98951174860940682709E+00
    0.98881588350392046749E+00
    0.98833959338550747553E+00
    0.98817368898032165170E+00
    0.98840678077437671423E+00
    0.94628803122329885333E+00
    0.97229495638001295355E+00
    0.93924213742842099784E+00
    0.97682417751933847683E+00
    0.98494891789296323825E+00
    0.98800442959395173848E+00
    0.98891875131807271959E+00
    0.98830214314362596628E+00
    0.98900335407999662163E+00
    0.98856395697799703814E+00
    0.98594342320074657149E+00
    0.98204644357664749865E+00
    0.98512102414525504201E+00
    0.98618799034234128076E+00
    0.98986837563577245724E+00
    0.98981943732523380852E+00
    0.98969033777744608305E+00
    0.98958388574483024946E+00
    0.98973952752521632270E+00
    0.98970924252110259456E+00
    0.98984695823313406660E+00
    0.98987933310547493448E+00
    0.98992358577573058565E+00
    0.98991492457865770671E+00
    0.98989415230708044380E+00
    0.98989012307008450442E+00
    0.98986537732423673930E+00
    0.98985193158639683819E+00
    0.98870206710761110447E+00
    0.98744415070944635548E+00
    0.98376147149743797815E+00
    0.97921391864600448862E+00
    0.98558652934178503369E+00
    0.98535634861017240560E+00
    0.98833909187119428630E+00
    0.98881696687113607158E+00
    0.98951353897760541134E+00
    0.98958824428283309604E+00
    0.98920488983230292490E+00
    0.98936125745629233119E+00
    0.98840695281233081904E+00
    0.98817378738787420289E+00
    0.98983034071994724368E+00
    0.98974091673231234800E+00
    0.98955626758991788172E+00
    0.98932299357252240224E+00
    0.98952411970578457723E+00
    0.98933558921838560263E+00
    0.98965164720937359721E+00
    0.98976872408163463213E+00
    0.98985974383496178053E+00
    0.98986203187060783915E+00
    0.98983853225640794360E+00
    0.98985066486664008423E+00
    0.98977968836489038651E+00
    0.98974041391315947802E+00
    0.98800517540665022675E+00
    0.98494968141002769979E+00
    0.97682903902755346959E+00
    0.93923412800064054462E+00
    0.97229367684660439330E+00
    0.94628936960661613753E+00
    0.98204543821044376628E+00
    0.98594466144583703393E+00
    0.98856598887835744893E+00
    0.98899986541077777868E+00
    0.98830140914095021554E+00
    0.98891947965953841404E+00
    0.98618823968692737036E+00
    0.98512111512603506291E+00
    0.72765241184084672454E+00
    0.28186700266293690520E+00
    0.27996932662897786558E-02
    0.27995783368134651882E-02
    0.28185680248294248118E+00
    0.72765513014809468650E+00
    0.95385022123189788790E+00
    0.85362800590637588627E+00
    0.98183286230511868098E+00
    0.98182839319443482307E+00
    0.85362495076834377095E+00
    0.95385440212182637243E+00
    0.16844086033170066474E+00
    0.16844084681091153755E+00
    0.63234600545846123150E-04
    0.34522796843397124400E-01
    0.60781978652140744579E-01
    0.40000114785862761480E+00
    0.41430235284823668795E+00
    0.48452771476173822629E+00
    0.70547691418228641869E+00
    0.40001062151632665875E+00
    0.86373124001607859412E+00
    0.81194193859101215782E+00
    0.39998982217985451504E+00
    0.53688045895847094635E-01
    0.40003225039130319018E+00
    0.39997254713020352623E+00
    0.48453327732500861558E+00
    0.41425816786912117440E+00
    0.40000479623730272882E+00
    0.60820726171913135072E-01
    0.34537690006721313840E-01
    0.63209753717717224010E-04
    0.53673466315678895755E-01
    0.39999251745118924450E+00
    0.81199261134026556874E+00
    0.86369688863639693110E+00
    0.39999265457293681214E+00
    0.70549724398629010125E+00
    0.40002011297332529249E+00
    0.39998334531518064949E+00
    0.12037058268985739826E-04
    0.12055587146031376635E-04
    0.12030302749846869846E-04
    0.12030302693096395911E-04
    0.12055587201955454734E-04
    0.12037058194462954422E-04
    0.68025689614519040333E-04
    0.12055570075575809829E-04
    0.12030155556216957073E-04
    0.12030155339814728295E-04
    0.12055570149985440101E-04
    0.68130602022565167793E-04
    0.12010283813574108407E-04
    0.12010283845173965077E-04
    0.98921667108668731583E+00
    0.98952308380404452315E+00
    0.98942977057087233561E+00
    0.98964962485091667599E+00
    0.98977785160632303363E+00
    0.98986360607251921984E+00
    0.98986507491135800052E+00
    0.98984118049403846396E+00
    0.98984848584131068794E+00
    0.98983006196781941899E+00
    0.98973008368747283914E+00
    0.98955222664706776747E+00
    0.98973502850065053771E+00
    0.98978390276022476524E+00
    0.98953387426257399806E+00
    0.98973971343916744559E+00
    0.98974826513369718040E+00
    0.98984461536248391500E+00
    0.98988421816194460678E+00
    0.98992812527890794438E+00
    0.98991753349767741543E+00
    0.98989986930632134499E+00
    0.98989116264406384893E+00
    0.98987234938063362044E+00
    0.98981664949429293276E+00
    0.98968398656884659648E+00
    0.98984596805398117336E+00
    0.98987409045660990081E+00
    0.90257734432439362671E+00
    0.97200063914346590543E+00
    0.96256137204805636287E+00
    0.98196234624289890913E+00
    0.98631545761128547323E+00
    0.98861298000243580386E+00
    0.98910641854105685322E+00
    0.98834047386583734340E+00
    0.98880619157238047734E+00
    0.98802233233298242254E+00
    0.98459914486720634397E+00
    0.97635448303408722825E+00
    0.98481886676220198318E+00
    0.98636929751001245492E+00
    0.97569279500249472825E+00
    0.98555068685730251588E+00
    0.98625755819908056399E+00
    0.98829963113588914503E+00
    0.98893446918738447948E+00
    0.98955419096587537986E+00
    0.98963591082066726390E+00
    0.98925911049601833458E+00
    0.98931136580014178428E+00
    0.98877239569056385449E+00
    0.98739464265071086313E+00
    0.98343995960825114633E+00
    0.98795314292201186213E+00
    0.98861009902001362182E+00
    0.98985172382266450875E+00
    0.98991448448579322239E+00
    0.98993060001628352396E+00
    0.98995174676007291481E+00
    0.98995635672199011612E+00
    0.98997259803766290975E+00
    0.98996186009004483175E+00
    0.98995491956433123715E+00
    0.98994489507012195517E+00
    0.98993633235990052821E+00
    0.98992136697628951847E+00
    0.98987216305703129571E+00
    0.98994513719503973714E+00
    0.98995234074440185967E+00
    0.98996098495395501438E+00
    0.98997234374640641352E+00
    0.98997598423451882432E+00
    0.98997395320267522756E+00
    0.98997767314197970823E+00
    0.98998110965428709473E+00
    0.98998010382652468220E+00
    0.98997852622972870584E+00
    0.98997518850985910532E+00
    0.98997536258122542652E+00
    0.98997155421647720086E+00
    0.98996100358724592461E+00
    0.98998513005239907603E+00
    0.98998428898897750106E+00
    0.98881311080558076387E+00
    0.98945839928360312943E+00
    0.98965009326838104808E+00
    0.98979697563469604127E+00
    0.98982671958687373781E+00
    0.98991095418309626996E+00
    0.98991020132775653373E+00
    0.98982715182248581787E+00
    0.98979957827779874169E+00
    0.98964873203227854415E+00
    0.98945799232857178929E+00
    0.98881314853895241335E+00
    0.98965130164829162585E+00
    0.98974942891920347776E+00
    0.98987234257717937602E+00
    0.98992166921762814180E+00
    0.98993679688276836615E+00
    0.98994376133340422630E+00
    0.98995422183392733917E+00
    0.98996340173061048162E+00
    0.98997085146415264578E+00
    0.98995665296116730492E+00
    0.98995429152311731347E+00
    0.98992928740189112258E+00
    0.98991407090884320219E+00
    0.98985194214582949979E+00
    0.98994514984104886590E+00
    0.98995230641264664317E+00
    0.11975880131195794365E+00
    0.11614977422148531350E+00
    0.17705544688056111145E-03
    0.37873350929538029952E-01
    0.39998892393306123560E+00
    0.82002388491130728809E+00
    0.85090777054656641099E+00
    0.39999708406220768619E+00
    0.75525984840618887173E+00
    0.45195959706945199041E+00
    0.45064903043026893759E+00
    0.40006147051429280515E+00
    0.39999691208445170565E+00
    0.40000886011903152850E+00
    0.40064351424455406370E-02
    0.31637168057272091470E+00
    0.74175626484232537461E+00
    0.95650775166881985001E+00
    0.88028558035005488591E+00
    0.98297448578612733883E+00
    0.98297284241309945685E+00
    0.88028991963510472285E+00
    0.95651935480771199671E+00
    0.74172613955947941378E+00
    0.31638325252785676200E+00
    0.40065523508315556769E-02
    0.23161395968786895744E-01
    0.23701393083966032505E+00
    0.12037056957347057299E-04
    0.12055596909403578951E-04
    0.12031156930581831527E-04
    0.32304638599115750386E-03
    0.12056459433517264609E-04
    0.12037459551129152055E-04
    0.12037459988535836075E-04
    0.12056459439384277282E-04
    0.32303790744969191782E-03
    0.12031156708355048449E-04
    0.12055596910402073248E-04
    0.12037056948787160869E-04
    0.12010311087012493845E-04
    0.12010294510138883555E-04
    0.40006379115040435757E+00
    0.45065181470670490071E+00
    0.45199422431635510877E+00
    0.75521345542900064629E+00
    0.40000906213625042618E+00
    0.85092246051674846896E+00
    0.81999678985647039831E+00
    0.39999172440307873000E+00
    0.37880723895031491455E-01
    0.17701232202646321285E-03
    0.11615530600594874133E+00
    0.11975753174998325645E+00
    0.40002070449748078351E+00
    0.39997508326283709446E+00
    0.98344016902169406613E+00
    0.98739505391635495890E+00
    0.98877395122772770986E+00
    0.98930832608877383727E+00
    0.98925819246415802599E+00
    0.98963682690598619995E+00
    0.98955351328713514469E+00
    0.98893495139047771225E+00
    0.98830265852139254079E+00
    0.98625544688554367401E+00
    0.98555016154134500450E+00
    0.97569363118322327555E+00
    0.98795314242904808122E+00
    0.98861011419475308681E+00
    0.98968416638406497832E+00
    0.98981695329354557611E+00
    0.98987281719567821181E+00
    0.98989002215321508782E+00
    0.98989916544119060937E+00
    0.98991893255920504480E+00
    0.98992621771561872812E+00
    0.98988451452364212280E+00
    0.98984718365772372817E+00
    0.98974691128307323851E+00
    0.98973929024191953374E+00
    0.98953410607191683024E+00
    0.98984597938646423643E+00
    0.98987405445720022534E+00
    0.97635664077136030681E+00
    0.98459988471400983201E+00
    0.98802403747498035447E+00
    0.98880298977392955262E+00
    0.98833951041301726370E+00
    0.98910742200169798899E+00
    0.98861220252324444324E+00
    0.98631610267708424988E+00
    0.98196706395252042476E+00
    0.96255547930717944016E+00
    0.97199983199247130816E+00
    0.90257792660574776011E+00
    0.98481919432749076559E+00
    0.98636936810654518570E+00
    0.98955323963556118816E+00
    0.98973058969854887934E+00
    0.98983053102358886655E+00
    0.98984725473649004535E+00
    0.98984034295141587467E+00
    0.98986643678563202009E+00
    0.98986164149289290748E+00
    0.98977847125915285886E+00
    0.98965224437764653942E+00
    0.98942839442612040557E+00
    0.98952271823919801808E+00
    0.98921690787217897434E+00
    0.98973523087447046187E+00
    0.98978417084162817474E+00
    0.98986299103860286852E+00
    0.98977885409099453096E+00
    0.98965101195366644848E+00
    0.98942822364043303551E+00
    0.98952252005744301133E+00
    0.98921674502445655630E+00
    0.98955187219649720642E+00
    0.98973102325176987026E+00
    0.98983159983063662146E+00
    0.98984695185985160926E+00
    0.98984056397373387792E+00
    0.98986617084250827503E+00
    0.98978454450663577724E+00
    0.98973515335973605289E+00
    0.98861365991877248049E+00
    0.98631646758941515785E+00
    0.98196498297647860642E+00
    0.96255566297937711351E+00
    0.97199938227762872067E+00
    0.90257917622703898175E+00
    0.97635358151753071088E+00
    0.98460037702741010079E+00
    0.98802524123557955438E+00
    0.98880263303345705683E+00
    0.98833970436032403395E+00
    0.98910711914849513970E+00
    0.98636983154275137409E+00
    0.98481898716388849291E+00
    0.98992750738810153521E+00
    0.98988489106790300553E+00
    0.98984597507450855502E+00
    0.98974675582755855530E+00
    0.98973912623242343845E+00
    0.98953393547151136111E+00
    0.98968272413924496256E+00
    0.98981734216298999929E+00
    0.98987388035605461400E+00
    0.98988974639147742085E+00
    0.98989942413443277047E+00
    0.98991861693757177143E+00
    0.98987442062454378267E+00
    0.98984586252921025196E+00
    0.98955484255107328817E+00
    0.98893530638278459577E+00
    0.98830128420434271153E+00
    0.98625534574009376954E+00
    0.98554992218643810986E+00
    0.97569363386103369340E+00
    0.98343779561918365228E+00
    0.98739545876613044051E+00
    0.98877507077317083883E+00
    0.98930798828058175154E+00
    0.98925836420467083698E+00
    0.98963654072541307194E+00
    0.98861049952015100928E+00
    0.98795294933502775248E+00
    0.82002147859566010268E+00
    0.39998610064948086906E+00
    0.37882327069053943480E-01
    0.17705660269050157063E-03
    0.11615008805680294979E+00
    0.11976330236681370645E+00
    0.40006313147923561191E+00
    0.45065828280329495170E+00
    0.45201732736582955763E+00
    0.75520864459305181438E+00
    0.39999388796077278707E+00
    0.85092008565211096904E+00
    0.40002733601433448918E+00
    0.39997981433594392842E+00
    0.12037459788786112409E-04
    0.12056460209271020547E-04
    0.32315431616919458807E-03
    0.12031157447635862140E-04
    0.12055596909711609259E-04
    0.12037056926059882842E-04
    0.12037056945034852346E-04
    0.12055596955241884975E-04
    0.12031157056294216229E-04
    0.32307705144742049873E-03
    0.12056459563459918198E-04
    0.12037459956756613402E-04
    0.12010294463580691005E-04
    0.12010311114752907571E-04
    0.98297537554537073312E+00
    0.88028988636307536897E+00
    0.95651548317741097449E+00
    0.74172566580805698866E+00
    0.31638125883653056558E+00
    0.40065179063571076598E-02
    0.40065193655815590015E-02
    0.31637588664367793934E+00
    0.74177207317592575020E+00
    0.95650661446189155779E+00
    0.88028672891302328640E+00
    0.98297460362168442849E+00
    0.23701509974007056725E+00
    0.23161531069120860904E-01
    0.85091698233121282335E+00
    0.40000154371826757149E+00
    0.75523587993744656366E+00
    0.45195434142246521114E+00
    0.45063520394970191241E+00
    0.40006569875766717637E+00
    0.11977217771729486984E+00
    0.11616839241420928719E+00
    0.17703750610688985577E-03
    0.37871931455066516758E-01
    0.39999125772918281418E+00
    0.82001929354885794154E+00
    0.39998834006325756363E+00
    0.40001283925397040919E+00
    0.98997208553657345398E+00
    0.98995702247655681383E+00
    0.98995308646630364446E+00
    0.98992912475213934442E+00
    0.98991390677932689091E+00
    0.98985176615392989063E+00
    0.98987092781906638184E+00
    0.98992205491315932164E+00
    0.98993785222617614039E+00
    0.98994348594668790664E+00
    0.98995447658781443590E+00
    0.98996304133403056902E+00
    0.98995266720007912831E+00
    0.98994503305610659361E+00
    0.98991178921439237914E+00
    0.98982749717530060796E+00
    0.98979834507383956943E+00
    0.98964856559517566659E+00
    0.98945780893664503353E+00
    0.98881292555296107505E+00
    0.98881149704193038730E+00
    0.98945877384824520995E+00
    0.98965111644820158432E+00
    0.98979667297047202457E+00
    0.98982690441644582968E+00
    0.98991098518843445575E+00
    0.98974977131972352584E+00
    0.98965115623922605970E+00
    0.98998008421114180866E+00
    0.98997854562101306186E+00
    0.98997550686426427635E+00
    0.98997444259920597265E+00
    0.98997172699617597136E+00
    0.98996099199352094455E+00
    0.98995975609693076525E+00
    0.98997232245315969212E+00
    0.98997683463225616407E+00
    0.98997361324275079397E+00
    0.98997782782267507162E+00
    0.98998107764694631694E+00
    0.98998457488195434895E+00
    0.98998512896704959907E+00
    0.98996216827758087842E+00
    0.98995484538579758826E+00
    0.98994515791822645934E+00
    0.98993526163183265254E+00
    0.98992107087805381038E+00
    0.98987228836478236005E+00
    0.98985061314186983950E+00
    0.98991482361228910758E+00
    0.98993157466955228330E+00
    0.98995142468870211960E+00
    0.98995639366351806387E+00
    0.98997136395658513752E+00
    0.98995262930425209635E+00
    0.98994498990915502645E+00
    0.98963755432983091520E+00
    0.98925903645933699337E+00
    0.98930980667998535960E+00
    0.98877223929139068659E+00
    0.98739440560517255374E+00
    0.98344021633998179865E+00
    0.97569000479911849322E+00
    0.98555119035519334059E+00
    0.98625892863699249347E+00
    0.98829926995422379132E+00
    0.98893466752606484782E+00
    0.98955423226963568073E+00
    0.98861048121395456167E+00
    0.98795293842343723245E+00
    0.98910813533040231604E+00
    0.98834039837033604847E+00
    0.98880457220798212425E+00
    0.98802217097491296105E+00
    0.98459878638409858986E+00
    0.97635489135326991583E+00
    0.90256536042634316619E+00
    0.97200032265500591055E+00
    0.96256365516961051032E+00
    0.98196165875488961028E+00
    0.98631568047425688395E+00
    0.98861299262896429330E+00