# vtk DataFile Version 3.0
LAPLACIEN  2D
ASCII
DATASET UNSTRUCTURED_GRID
 POINTS         481  float
   6.2500000000000000E-002  0.87500000000000000        0.0000000000000000     
  0.12500000000000000       0.87500000000000000        0.0000000000000000     
  0.12500000000000000       0.93750000000000000        0.0000000000000000     
   3.7499999999999999E-002  0.91249999999999998        0.0000000000000000     
   8.1250000000000003E-002  0.91874999999999996        0.0000000000000000     
   8.7499999999999994E-002  0.96250000000000002        0.0000000000000000     
   4.3749999999999997E-002  0.95625000000000004        0.0000000000000000     
  0.18750000000000000       0.87500000000000000        0.0000000000000000     
  0.25000000000000000       0.87500000000000000        0.0000000000000000     
  0.25000000000000000       0.93750000000000000        0.0000000000000000     
  0.16250000000000001       0.91249999999999998        0.0000000000000000     
  0.20624999999999999       0.91874999999999996        0.0000000000000000     
  0.21249999999999999       0.96250000000000002        0.0000000000000000     
  0.16875000000000001       0.95625000000000004        0.0000000000000000     
   6.2500000000000000E-002  0.75000000000000000        0.0000000000000000     
  0.12500000000000000       0.75000000000000000        0.0000000000000000     
  0.12500000000000000       0.81250000000000000        0.0000000000000000     
   3.7499999999999999E-002  0.78749999999999998        0.0000000000000000     
   8.1250000000000003E-002  0.79374999999999996        0.0000000000000000     
   8.7499999999999994E-002  0.83750000000000002        0.0000000000000000     
   4.3749999999999997E-002  0.83125000000000004        0.0000000000000000     
  0.18750000000000000       0.75000000000000000        0.0000000000000000     
  0.25000000000000000       0.75000000000000000        0.0000000000000000     
  0.25000000000000000       0.81250000000000000        0.0000000000000000     
  0.16250000000000001       0.78749999999999998        0.0000000000000000     
  0.20624999999999999       0.79374999999999996        0.0000000000000000     
  0.21249999999999999       0.83750000000000002        0.0000000000000000     
  0.16875000000000001       0.83125000000000004        0.0000000000000000     
  0.31250000000000000       0.87500000000000000        0.0000000000000000     
  0.37500000000000000       0.87500000000000000        0.0000000000000000     
  0.37500000000000000       0.93750000000000000        0.0000000000000000     
  0.28749999999999998       0.91249999999999998        0.0000000000000000     
  0.33124999999999999       0.91874999999999996        0.0000000000000000     
  0.33750000000000002       0.96250000000000002        0.0000000000000000     
  0.29375000000000001       0.95625000000000004        0.0000000000000000     
  0.43750000000000000       0.87500000000000000        0.0000000000000000     
  0.50000000000000000       0.87500000000000000        0.0000000000000000     
  0.50000000000000000       0.93750000000000000        0.0000000000000000     
  0.41249999999999998       0.91249999999999998        0.0000000000000000     
  0.45624999999999999       0.91874999999999996        0.0000000000000000     
  0.46250000000000002       0.96250000000000002        0.0000000000000000     
  0.41875000000000001       0.95625000000000004        0.0000000000000000     
  0.31250000000000000       0.75000000000000000        0.0000000000000000     
  0.37500000000000000       0.75000000000000000        0.0000000000000000     
  0.37500000000000000       0.81250000000000000        0.0000000000000000     
  0.28749999999999998       0.78749999999999998        0.0000000000000000     
  0.33124999999999999       0.79374999999999996        0.0000000000000000     
  0.33750000000000002       0.83750000000000002        0.0000000000000000     
  0.29375000000000001       0.83125000000000004        0.0000000000000000     
  0.43750000000000000       0.75000000000000000        0.0000000000000000     
  0.50000000000000000       0.75000000000000000        0.0000000000000000     
  0.50000000000000000       0.81250000000000000        0.0000000000000000     
  0.41249999999999998       0.78749999999999998        0.0000000000000000     
  0.45624999999999999       0.79374999999999996        0.0000000000000000     
  0.46250000000000002       0.83750000000000002        0.0000000000000000     
  0.41875000000000001       0.83125000000000004        0.0000000000000000     
   6.2500000000000000E-002  0.62500000000000000        0.0000000000000000     
  0.12500000000000000       0.62500000000000000        0.0000000000000000     
  0.12500000000000000       0.68750000000000000        0.0000000000000000     
   3.7499999999999999E-002  0.66249999999999998        0.0000000000000000     
   8.1250000000000003E-002  0.66874999999999996        0.0000000000000000     
   8.7499999999999994E-002  0.71250000000000002        0.0000000000000000     
   4.3749999999999997E-002  0.70625000000000004        0.0000000000000000     
  0.18750000000000000       0.62500000000000000        0.0000000000000000     
  0.25000000000000000       0.62500000000000000        0.0000000000000000     
  0.25000000000000000       0.68750000000000000        0.0000000000000000     
  0.16250000000000001       0.66249999999999998        0.0000000000000000     
  0.20624999999999999       0.66874999999999996        0.0000000000000000     
  0.21249999999999999       0.71250000000000002        0.0000000000000000     
  0.16875000000000001       0.70625000000000004        0.0000000000000000     
   6.2500000000000000E-002  0.50000000000000000        0.0000000000000000     
  0.12500000000000000       0.50000000000000000        0.0000000000000000     
  0.12500000000000000       0.56250000000000000        0.0000000000000000     
   3.7499999999999999E-002  0.53749999999999998        0.0000000000000000     
   8.1250000000000003E-002  0.54374999999999996        0.0000000000000000     
   8.7499999999999994E-002  0.58750000000000002        0.0000000000000000     
   4.3749999999999997E-002  0.58125000000000004        0.0000000000000000     
  0.18750000000000000       0.50000000000000000        0.0000000000000000     
  0.25000000000000000       0.50000000000000000        0.0000000000000000     
  0.25000000000000000       0.56250000000000000        0.0000000000000000     
  0.16250000000000001       0.53749999999999998        0.0000000000000000     
  0.20624999999999999       0.54374999999999996        0.0000000000000000     
  0.21249999999999999       0.58750000000000002        0.0000000000000000     
  0.16875000000000001       0.58125000000000004        0.0000000000000000     
  0.31250000000000000       0.62500000000000000        0.0000000000000000     
  0.37500000000000000       0.62500000000000000        0.0000000000000000     
  0.37500000000000000       0.68750000000000000        0.0000000000000000     
  0.28749999999999998       0.66249999999999998        0.0000000000000000     
  0.33124999999999999       0.66874999999999996        0.0000000000000000     
  0.33750000000000002       0.71250000000000002        0.0000000000000000     
  0.29375000000000001       0.70625000000000004        0.0000000000000000     
  0.43750000000000000       0.62500000000000000        0.0000000000000000     
  0.50000000000000000       0.62500000000000000        0.0000000000000000     
  0.50000000000000000       0.68750000000000000        0.0000000000000000     
  0.41249999999999998       0.66249999999999998        0.0000000000000000     
  0.45624999999999999       0.66874999999999996        0.0000000000000000     
  0.46250000000000002       0.71250000000000002        0.0000000000000000     
  0.41875000000000001       0.70625000000000004        0.0000000000000000     
  0.31250000000000000       0.50000000000000000        0.0000000000000000     
  0.37500000000000000       0.50000000000000000        0.0000000000000000     
  0.37500000000000000       0.56250000000000000        0.0000000000000000     
  0.28749999999999998       0.53749999999999998        0.0000000000000000     
  0.33124999999999999       0.54374999999999996        0.0000000000000000     
  0.33750000000000002       0.58750000000000002        0.0000000000000000     
  0.29375000000000001       0.58125000000000004        0.0000000000000000     
  0.43750000000000000       0.50000000000000000        0.0000000000000000     
  0.50000000000000000       0.50000000000000000        0.0000000000000000     
  0.50000000000000000       0.56250000000000000        0.0000000000000000     
  0.41249999999999998       0.53749999999999998        0.0000000000000000     
  0.45624999999999999       0.54374999999999996        0.0000000000000000     
  0.46250000000000002       0.58750000000000002        0.0000000000000000     
  0.41875000000000001       0.58125000000000004        0.0000000000000000     
  0.56250000000000000       0.87500000000000000        0.0000000000000000     
  0.62500000000000000       0.87500000000000000        0.0000000000000000     
  0.62500000000000000       0.93750000000000000        0.0000000000000000     
  0.53749999999999998       0.91249999999999998        0.0000000000000000     
  0.58125000000000004       0.91874999999999996        0.0000000000000000     
  0.58750000000000002       0.96250000000000002        0.0000000000000000     
  0.54374999999999996       0.95625000000000004        0.0000000000000000     
  0.68750000000000000       0.87500000000000000        0.0000000000000000     
  0.75000000000000000       0.87500000000000000        0.0000000000000000     
  0.75000000000000000       0.93750000000000000        0.0000000000000000     
  0.66249999999999998       0.91249999999999998        0.0000000000000000     
  0.70625000000000004       0.91874999999999996        0.0000000000000000     
  0.71250000000000002       0.96250000000000002        0.0000000000000000     
[...]
 CELL_DATA         896
 SCALARS Endothelial_cells float
 LOOKUP_TABLE default
    0.98996538159803337820E+00
    0.98996364379546175627E+00
    0.98995460693682346687E+00
    0.98995428911794158822E+00
    0.98996353699760519795E+00
    0.98996568583447130951E+00
    0.98997024138369582591E+00
    0.98997199844983230221E+00
    0.98997491008171956128E+00
    0.98997473991794249226E+00
    0.98997197575526585389E+00
    0.98997043760843672633E+00
    0.98996839752092957720E+00
    0.98996836416773592582E+00
    0.98992115434705174604E+00
    0.98991574275973859276E+00
    0.98987247907575326433E+00
    0.98988322211774171233E+00
    0.98992098959611429798E+00
    0.98992953456160970305E+00
    0.98994229557003177167E+00
    0.98994867475225645226E+00
    0.98995902853132233812E+00
    0.98996146702879117552E+00
    0.98995044805793552811E+00
    0.98994728147686639197E+00
    0.98993757561786610566E+00
    0.98993804421869791010E+00
    0.98992916929567376094E+00
    0.98992101927157760688E+00
    0.98988358970239587187E+00
    0.98987221255503343720E+00
    0.98991577344277481565E+00
    0.98992145547850018961E+00
    0.98994710370352034801E+00
    0.98995054746356470066E+00
    0.98996157102083248702E+00
    0.98995875669189270507E+00
    0.98994858137021968236E+00
    0.98994243772600853948E+00
    0.98993809072524652226E+00
    0.98993754972223901856E+00
    0.98967907684922407086E+00
    0.98956603275405552456E+00
    0.98913448564665984453E+00
    0.98913414426328616358E+00
    0.98956606308396477534E+00
    0.98967938882563100123E+00
    0.98983029533213506834E+00
    0.98983685550218658555E+00
    0.98990495834008063181E+00
    0.98990464579526982192E+00
    0.98983681800242873106E+00
    0.98983048585125443797E+00
    0.98973972079310645888E+00
    0.98973966702075411028E+00
    0.98975389761019783030E+00
    0.98977773705666405313E+00
    0.98965854153278809413E+00
    0.98973711988440415954E+00
    0.98983784027814691875E+00
    0.98987579679705939295E+00
    0.98989725060854238947E+00
    0.98990024463616066441E+00
    0.98991946281405285291E+00
    0.98992113054056285470E+00
    0.98988759462327424732E+00
    0.98986172749061929199E+00
    0.98985893071892006034E+00
    0.98986914947024062794E+00
    0.98947061755512555337E+00
    0.98961225039235911627E+00
    0.98946180248217019404E+00
    0.98963378614743846562E+00
    0.98977549147889631875E+00
    0.98984422167304031426E+00
    0.98986428539288828787E+00
    0.98985420563378545555E+00
    0.98987496734443691793E+00
    0.98986789031793087634E+00
    0.98979891883436066369E+00
    0.98970865220410197960E+00
    0.98977035237665289547E+00
    0.98980029511773315321E+00
    0.98669987564118388779E+00
    0.98687074012663089650E+00
    0.98302878435827822923E+00
    0.98565236809658873796E+00
    0.98812620821648267100E+00
    0.98900564545697700058E+00
    0.98949079794926009246E+00
    0.98937756135989674000E+00
    0.98966313485863366406E+00
    0.98960454476715253858E+00
    0.98909312163060791878E+00
    0.98874307580245168747E+00
    0.98861703470827044793E+00
    0.98878813087515748936E+00
    0.96824546704489422577E+00
    0.97950109528018436400E+00
    0.96730843143387956751E+00
    0.98161841193463383881E+00
    0.98649498027190229976E+00
    0.98850730578399337301E+00
    0.98916557697340623534E+00
    0.98872531306412791974E+00
    0.98922359445315954929E+00
    0.98890383453158203775E+00
    0.98713024500107959813E+00
    0.98465361369072124109E+00
    0.98653951563949793258E+00
    0.98726831786659718926E+00
    0.98987542973534858870E+00
    0.98983787058493966082E+00
    0.98973749329386662144E+00
    0.98965826804908929581E+00
    0.98977773243170663608E+00
    0.98975418026558359408E+00
    0.98986154910171575416E+00
    0.98988769527988906827E+00
    0.98992121930392373841E+00
    0.98991917364691273118E+00
    0.98990022787491926959E+00
    0.98989745239279847144E+00
    0.98986919136943174458E+00
    0.98985889962527073838E+00
    0.98900529826279814927E+00
    0.98812618090391945991E+00
    0.98565290026771823495E+00
    0.98302827279414750627E+00
    0.98687076662613226752E+00
    0.98670032055504564017E+00
    0.98874285496201086421E+00
    0.98909315589247248646E+00
    0.98960482028624729978E+00
    0.98966276405309838715E+00
    0.98937754189671878180E+00
    0.98949101457541743798E+00
    0.98878819902516779106E+00
    0.98861698620746729649E+00
    0.98984403431216361202E+00
    0.98977552215849062822E+00
    0.98963416356985545175E+00
    0.98946152242818208311E+00
    0.98961224735033181954E+00
    0.98947091605419823512E+00
    0.98970847060592459510E+00
    0.98979902000244623927E+00
    0.98986805286761769818E+00
    0.98987474995209501216E+00
    0.98985414761066925493E+00
    0.98986445645478338129E+00
    0.98980033730490779575E+00
    0.98977032063224901215E+00
    0.98850715229914287718E+00
    0.98649495370160911190E+00
    0.98161910561785570284E+00
    0.96730742129655877815E+00
    0.97950120922448491445E+00
    0.96824690483208231129E+00
    0.98465330396372963140E+00
    0.98713026968600059430E+00
    0.98890412392930360230E+00
    0.98922320314135370189E+00
    0.98872529162721567442E+00
    0.98916580487233651819E+00
    0.98726838976543918047E+00
    0.98653944300689722091E+00
    0.87439094172479747691E+00
    0.12967478545886834684E+00
    0.46239669034243903890E-03
    0.46238208042884203176E-03
    0.12967154070373862473E+00
    0.87439572989283786963E+00
    0.97268248695959003136E+00
    0.93218338047831517112E+00
    0.98480650667027458400E+00
    0.98480595200334064554E+00
    0.93218331251239994195E+00
    0.97268319323642205010E+00
    0.78553467271946536554E-01
    0.78553598370105198745E-01
    0.21004888597616384481E-05
    0.97794501472384088268E-03
    0.35184453054021828542E-03
    0.14262131371739208974E+00
    0.40001036238488868468E+00
    0.68119489503878483116E+00
    0.88166866800308418828E+00
    0.44434223897567109995E+00
    0.93616058898512111153E+00
    0.89168102738394006135E+00
    0.26610159072094258237E+00
    0.22290615512311614740E-02
    0.20438083590688529978E+00
    0.39998546817215263616E+00
    0.68118890907927143186E+00
    0.40001841623795775238E+00
    0.14262262662483529696E+00
    0.35187492134089735961E-03
    0.97795700745299525385E-03
    0.21004873310788400700E-05
    0.22290396893741410388E-02
    0.26609977060870992904E+00
    0.89168575327126742280E+00
    0.93615726468902804580E+00
    0.44434131178112928895E+00
    0.88167140543025712685E+00
    0.39998623639855213074E+00
    0.20438081746785383142E+00
    0.19670188049989283977E-05
    0.19690703780200588359E-05
    0.19662363027507635123E-05
    0.19662362919761118234E-05
    0.19690704265957305531E-05
    0.19670188029909249878E-05
    0.19689313591776353514E-05
    0.19691111512262300341E-05
    0.19663009680450225960E-05
    0.19663009242824267133E-05
    0.19691111836740945858E-05
    0.19689317921795744041E-05
    0.19640077884237113360E-05
    0.19640077559979793316E-05
    0.98938246334663815240E+00
    0.98961105491691103708E+00
    0.98954040034343004884E+00
    0.98970692842184326832E+00
    0.98980645235402286986E+00
    0.98987110317807580628E+00
    0.98987714459223052899E+00
    0.98985589403235574313E+00
    0.98986240431204919332E+00
    0.98984445978236867969E+00
    0.98976918780972134027E+00
    0.98963179021564817717E+00
    0.98976629358759049548E+00
    0.98980523335336390023E+00
    0.98961910899117344620E+00
    0.98977727643711321814E+00
    0.98978360076166227444E+00
    0.98985962401943272670E+00
    0.98989203174428519461E+00
    0.98992495589582019111E+00
    0.98992133185585007293E+00
    0.98990347066452821778E+00
    0.98989737028916802153E+00
    0.98987927646597506648E+00
    0.98983610188345538816E+00
    0.98973266842930451848E+00
    0.98985273243186433501E+00
    0.98987792858892043046E+00
    0.95316540326961285423E+00
    0.97942566502825245678E+00
    0.97524283360127572706E+00
    0.98453744003245013960E+00
    0.98735826558378225748E+00
    0.98893702121280224748E+00
    0.98930147076379526538E+00
    0.98875041541154951030E+00
    0.98907990911550514035E+00
    0.98852018312804357247E+00
    0.98627507110844103710E+00
    0.98148428733931458723E+00
    0.98635616698812456082E+00
    0.98738481872728300903E+00
    0.98105473579432933562E+00
    0.98682293786265029567E+00
    0.98727712288900393300E+00
    0.98870504421406879558E+00
    0.98917466867513004214E+00
    0.98963542803859594343E+00
    0.98969814259155430847E+00
    0.98941491211507370807E+00
    0.98945052841923808451E+00
    0.98905481275385476181E+00
    0.98807979051786132274E+00
    0.98543648512304049536E+00
    0.98845522362802629157E+00
    0.98893202460773887985E+00
    0.98986506413989672204E+00
    0.98991615738138294400E+00
    0.98992867568340836559E+00
    0.98994714343461975847E+00
    0.98995268867140429059E+00
    0.98996392722890380611E+00
    0.98996036089705063965E+00
    0.98995066157334832280E+00
    0.98994338739457343745E+00
    0.98993303960970102651E+00
    0.98992129407536144647E+00
    0.98988089939603762790E+00
    0.98993390963969651875E+00
    0.98994312143305729368E+00
    0.98995398371687370886E+00
    0.98996484602662471186E+00
    0.98996798126772567183E+00
    0.98997120340878363987E+00
    0.98997300226935946998E+00
    0.98997595796105175570E+00
    0.98997581754210828286E+00
    0.98997312459925013162E+00
    0.98997138796918660031E+00
    0.98996765931293417839E+00
    0.98996474923308463989E+00
    0.98995418837631132813E+00
    0.98996914479732978087E+00
    0.98997148964136028049E+00
    0.98907875645143361609E+00
    0.98956381285659977820E+00
    0.98970876507028060498E+00
    0.98982319497374915418E+00
    0.98984845263620624412E+00
    0.98991294570796761754E+00
    0.98991274070924462070E+00
    0.98984843183117199317E+00
    0.98982347464622633115E+00
    0.98970834366805282567E+00
    0.98956376897860065522E+00
    0.98907899564480683541E+00
    0.98970392278776309070E+00
    0.98978269066508695051E+00
    0.98988066092139137542E+00
    0.98992139184419625231E+00
    0.98993336351604299672E+00
    0.98994325175328401478E+00
    0.98995062098769404102E+00
    0.98996063754703067517E+00
    0.98996375340746711746E+00
    0.98995275020790551856E+00
    0.98994743115337535677E+00
    0.98992826820638346597E+00
    0.98991611460567685565E+00
    0.98986524814948995132E+00
    0.98993391124461727060E+00
    0.98994312352865576621E+00
    0.43870352320615930986E-03
    0.90461379232383920881E-03
    0.20507047798375984669E-05
    0.15766284679485417352E-02
    0.24587451689323774895E+00
    0.89259137340603889044E+00
    0.93493980096214746034E+00
    0.49481931021660019443E+00
    0.89616648411067112434E+00
    0.66170891900269290797E+00
    0.39998762424359080025E+00
    0.17036850049586982347E+00
    0.22824997139560901371E+00
    0.39999031470079549067E+00
    0.70298124017741374803E-03
    0.14914377396827510625E+00
    0.88086586375400433013E+00
    0.97290694315592840535E+00
    0.94075585840050546249E+00
    0.98545360188770103615E+00
    0.98545319461580804798E+00
    0.94075582089235099126E+00
    0.97290789229169560848E+00
    0.88086228139189604036E+00
    0.14914496560227707977E+00
    0.70298935482410336833E-03
    0.43243908427733693256E-02
    0.11955146209471799457E+00
    0.19669943411924938328E-05
    0.19690734384359885241E-05
    0.19662664446816548021E-05
    0.19688923964740456480E-05
    0.19691217758882091507E-05
    0.19670528431595101919E-05
    0.19670527901603537504E-05
    0.19691217665707031588E-05
    0.19688928589571739530E-05
    0.19662664771448832609E-05
    0.19690734473616214992E-05
    0.19669943982797616206E-05
    0.19640060864982108153E-05
    0.19640322556799658289E-05
    0.17036844494519515214E+00
    0.39998650742972674532E+00
    0.66171607078467009622E+00
    0.89616245554043783006E+00
    0.49481715623604605181E+00
    0.93494236925258744630E+00
    0.89258578969522650581E+00
    0.24587931881684260693E+00
    0.15766686448331899192E-02
    0.20507077742843224338E-05
    0.90461470424372191455E-03
    0.43869157992464558223E-03
    0.22825049284813242467E+00
    0.39999026568064355303E+00
    0.98543607187957193982E+00
    0.98807981154724844330E+00
    0.98905526279366295928E+00
    0.98945021079005923692E+00
    0.98941489198430165874E+00
    0.98969839813112614468E+00
    0.98963525415852116041E+00
    0.98917464632388873991E+00
    0.98870535967783024223E+00
    0.98727659567732262147E+00
    0.98682289881979401436E+00
    0.98105530726217715642E+00
    0.98845522439416733107E+00
    0.98893202130911883607E+00
    0.98973242467629618524E+00
    0.98983619973870484721E+00
    0.98987960251106754672E+00
    0.98989723438948939993E+00
    0.98990343063987495942E+00
    0.98992161260733479988E+00
    0.98992478511901371707E+00
    0.98989209487026685874E+00
    0.98985991636005521421E+00
    0.98978318850966240383E+00
    0.98977723394718342131E+00
    0.98961930435413736351E+00
    0.98985273467884682397E+00
    0.98987793134087787017E+00
    0.98148398488049892752E+00
    0.98627504014678879507E+00
    0.98852065520918530606E+00
    0.98907958336629175911E+00
    0.98875039861904601146E+00
    0.98930174563540995702E+00
    0.98893682630248691545E+00
    0.98735823454624227491E+00
    0.98453787808552273297E+00
    0.97524190624930773286E+00
    0.97942581330707778609E+00
    0.95316720433649604338E+00
    0.98635614904816737436E+00
    0.98738479594053352173E+00
    0.98963166897093102214E+00
    0.98976929291990212167E+00
    0.98984478688443378047E+00
    0.98986226413265099300E+00
    0.98985584810387683419E+00
    0.98987738256670976256E+00
    0.98987088722887017767E+00
    0.98980660347479532124E+00
    0.98970722441393521596E+00
    0.98954002462455392664E+00
    0.98961108569360300979E+00
    0.98938266960517218251E+00
    0.98976630337488114009E+00
    0.98980532000266097103E+00
    0.98987091285952311104E+00
    0.98980657006394623387E+00
    0.98970718819497127683E+00
    0.98954012342511543654E+00
    0.98961105159693696365E+00
    0.98938276632831279045E+00
    0.98963160794998727976E+00
    0.98976929421033976730E+00
    0.98984478052598945386E+00
    0.98986218996826724759E+00
    0.98985583608033234082E+00
    0.98987731220579111557E+00
    0.98980535891997101228E+00
    0.98976626706474213346E+00
    0.98893687481488201652E+00
    0.98735821719390670648E+00
    0.98453788556093757567E+00
    0.97524208141800372562E+00
    0.97942577823285903449E+00
    0.95316750537353489570E+00
    0.98148397029146738912E+00
    0.98627507947980952441E+00
    0.98852065609530226364E+00
    0.98907951119389081462E+00
    0.98875039430231226323E+00
    0.98930169405445556041E+00
    0.98738485792245478390E+00
    0.98635610417694763452E+00
    0.98992475993203599138E+00
    0.98989206289266196137E+00
    0.98985987924617246936E+00
    0.98978329544371379534E+00
    0.98977721605574953134E+00
    0.98961939877228821683E+00
    0.98973235343222143445E+00
    0.98983619314677695478E+00
    0.98987959612164833079E+00
    0.98989717446645952847E+00
    0.98990343988461848568E+00
    0.98992149179902866329E+00
    0.98987797150770540089E+00
    0.98985269189008939783E+00
    0.98963530527845811058E+00
    0.98917462086910656893E+00
    0.98870533533239712831E+00
    0.98727672316272530040E+00
    0.98682288086492708779E+00
    0.98105549213044962453E+00
    0.98543602690304388236E+00
    0.98807982079325717972E+00
    0.98905526629334317157E+00
    0.98945014601127212472E+00
    0.98941489023782369649E+00
    0.98969835333041578096E+00
    0.98893207474246236366E+00
    0.98845517911253166776E+00
    0.89258650264282413112E+00
    0.24588075925840846558E+00
    0.15766780870285551294E-02
    0.20507087164751964670E-05
    0.90463049840739198117E-03
    0.43870179739666426881E-03
    0.17036838787521924043E+00
    0.39998990528301792136E+00
    0.66171634455282857257E+00
    0.89616070111290158096E+00
    0.49481886947603814786E+00
    0.93494153907798971392E+00
    0.39999122836696221484E+00
    0.22825130160376669308E+00
    0.19670528377112744200E-05
    0.19691217802954998757E-05
    0.19688925342394313630E-05
    0.19662664518466289994E-05
    0.19690734570913517450E-05
    0.19669943562305571126E-05
    0.19669943409668383264E-05
    0.19690734616365381633E-05
    0.19662664706109752909E-05
    0.19688924868310616797E-05
    0.19691217526202437358E-05
    0.19670528077514641187E-05
    0.19640322238368637432E-05
    0.19640061323157031224E-05
    0.98545332909178728897E+00
    0.94075597695436719015E+00
    0.97290778063358662742E+00
    0.88086281139534494677E+00
    0.14914433828043974217E+00
    0.70298531921989915010E-03
    0.70298571739039615765E-03
    0.14914500163187904835E+00
    0.88086558573407625072E+00
    0.97290657867281160609E+00
    0.94075595876239070936E+00
    0.98545354779983118654E+00
    0.11955148341955684765E+00
    0.43243895370744167214E-02
    0.93493990277252703169E+00
    0.49481959098063343916E+00
    0.89616619908727002120E+00
    0.66170868611888278288E+00
    0.39998681816552217327E+00
    0.17036838154440042681E+00
    0.43870192405060908772E-03
    0.90458997511828410139E-03
    0.20507047532358718843E-05
    0.15766298805464111412E-02
    0.24587461915493419307E+00
    0.89259140341949372299E+00
    0.39998875101329856019E+00
    0.22824763169782935623E+00
    0.98996373040738261384E+00
    0.98995272011769297471E+00
    0.98994739673097376098E+00
    0.98992837614883844033E+00
    0.98991609762873900014E+00
    0.98986534040977480764E+00
    0.98988058950324953056E+00
    0.98992138523311179465E+00
    0.98993335755691058697E+00
    0.98994319258494256619E+00
    0.98995063112482084566E+00
    0.98996051807149343382E+00
    0.98994316446085406369E+00
    0.98993386973856878353E+00
    0.98991282310384831611E+00
    0.98984840662114725873E+00
    0.98982344354994800106E+00
    0.98970845514541017085E+00
    0.98956375218171421793E+00
    0.98907906294254754886E+00
    0.98907865385086535248E+00
    0.98956381092546852329E+00
    0.98970877417169578205E+00
    0.98982314631097623181E+00
    0.98984846724387542949E+00
    0.98991293362580190518E+00
    0.98978273866879429299E+00
    0.98970388422114352611E+00
    0.98997581903178699658E+00
    0.98997314758813936830E+00
    0.98997146713660177930E+00
    0.98996765458749236277E+00
    0.98996478814217214737E+00
    0.98995429447415783653E+00
    0.98995391858133874319E+00
    0.98996484049251787241E+00
    0.98996797653990886712E+00
    0.98997114035276512212E+00
    0.98997301509394930452E+00
    0.98997595235752633425E+00
    0.98997153434729678878E+00
    0.98996910697621198771E+00
    0.98996048282300119769E+00
    0.98995066044846458109E+00
    0.98994344609356688114E+00
    0.98993303705439228413E+00
    0.98992133501479151469E+00
    0.98988101014943230549E+00
    0.98986500395826237941E+00
    0.98991616227636713976E+00
    0.98992869314595877128E+00
    0.98994711083306996535E+00
    0.98995279874430941458E+00
    0.98996395719288154957E+00
    0.98994318983378237764E+00
    0.98993387953604816687E+00
    0.98969820228188110089E+00
    0.98941489835524476515E+00
    0.98945050343523210934E+00
    0.98905492815314277610E+00
    0.98807976002651365377E+00
    0.98543663828008409844E+00
    0.98105473345877036717E+00
    0.98682293438042056888E+00
    0.98727710850868066750E+00
    0.98870498657304006773E+00
    0.98917468667437735697E+00
    0.98963539095922092859E+00
    0.98893207791641424276E+00
    0.98845517970344609626E+00
    0.98930152765904255663E+00
    0.98875041125755191995E+00
    0.98907989413301167225E+00
    0.98852030096324050579E+00
    0.98627503037380481743E+00
    0.98148434509650228641E+00
    0.95316568587297556547E+00
    0.97942571541240708299E+00
    0.97524271215823743475E+00
    0.98453735218012039532E+00
    0.98735828848349671549E+00
    0.98893698526110740410E+00