# vtk DataFile Version 3.0
LAPLACIEN  2D
ASCII
DATASET UNSTRUCTURED_GRID
 POINTS         481  float
   6.2500000000000000E-002  0.87500000000000000        0.0000000000000000     
  0.12500000000000000       0.87500000000000000        0.0000000000000000     
  0.12500000000000000       0.93750000000000000        0.0000000000000000     
   3.7499999999999999E-002  0.91249999999999998        0.0000000000000000     
   8.1250000000000003E-002  0.91874999999999996        0.0000000000000000     
   8.7499999999999994E-002  0.96250000000000002        0.0000000000000000     
   4.3749999999999997E-002  0.95625000000000004        0.0000000000000000     
  0.18750000000000000       0.87500000000000000        0.0000000000000000     
  0.25000000000000000       0.87500000000000000        0.0000000000000000     
  0.25000000000000000       0.93750000000000000        0.0000000000000000     
  0.16250000000000001       0.91249999999999998        0.0000000000000000     
  0.20624999999999999       0.91874999999999996        0.0000000000000000     
  0.21249999999999999       0.96250000000000002        0.0000000000000000     
  0.16875000000000001       0.95625000000000004        0.0000000000000000     
   6.2500000000000000E-002  0.75000000000000000        0.0000000000000000     
  0.12500000000000000       0.75000000000000000        0.0000000000000000     
  0.12500000000000000       0.81250000000000000        0.0000000000000000     
   3.7499999999999999E-002  0.78749999999999998        0.0000000000000000     
   8.1250000000000003E-002  0.79374999999999996        0.0000000000000000     
   8.7499999999999994E-002  0.83750000000000002        0.0000000000000000     
   4.3749999999999997E-002  0.83125000000000004        0.0000000000000000     
  0.18750000000000000       0.75000000000000000        0.0000000000000000     
  0.25000000000000000       0.75000000000000000        0.0000000000000000     
  0.25000000000000000       0.81250000000000000        0.0000000000000000     
  0.16250000000000001       0.78749999999999998        0.0000000000000000     
  0.20624999999999999       0.79374999999999996        0.0000000000000000     
  0.21249999999999999       0.83750000000000002        0.0000000000000000     
  0.16875000000000001       0.83125000000000004        0.0000000000000000     
  0.31250000000000000       0.87500000000000000        0.0000000000000000     
  0.37500000000000000       0.87500000000000000        0.0000000000000000     
  0.37500000000000000       0.93750000000000000        0.0000000000000000     
  0.28749999999999998       0.91249999999999998        0.0000000000000000     
  0.33124999999999999       0.91874999999999996        0.0000000000000000     
  0.33750000000000002       0.96250000000000002        0.0000000000000000     
  0.29375000000000001       0.95625000000000004        0.0000000000000000     
  0.43750000000000000       0.87500000000000000        0.0000000000000000     
  0.50000000000000000       0.87500000000000000        0.0000000000000000     
  0.50000000000000000       0.93750000000000000        0.0000000000000000     
  0.41249999999999998       0.91249999999999998        0.0000000000000000     
  0.45624999999999999       0.91874999999999996        0.0000000000000000     
  0.46250000000000002       0.96250000000000002        0.0000000000000000     
  0.41875000000000001       0.95625000000000004        0.0000000000000000     
  0.31250000000000000       0.75000000000000000        0.0000000000000000     
  0.37500000000000000       0.75000000000000000        0.0000000000000000     
  0.37500000000000000       0.81250000000000000        0.0000000000000000     
  0.28749999999999998       0.78749999999999998        0.0000000000000000     
  0.33124999999999999       0.79374999999999996        0.0000000000000000     
  0.33750000000000002       0.83750000000000002        0.0000000000000000     
  0.29375000000000001       0.83125000000000004        0.0000000000000000     
  0.43750000000000000       0.75000000000000000        0.0000000000000000     
  0.50000000000000000       0.75000000000000000        0.0000000000000000     
  0.50000000000000000       0.81250000000000000        0.0000000000000000     
  0.41249999999999998       0.78749999999999998        0.0000000000000000     
  0.45624999999999999       0.79374999999999996        0.0000000000000000     
  0.46250000000000002       0.83750000000000002        0.0000000000000000     
  0.41875000000000001       0.83125000000000004        0.0000000000000000     
   6.2500000000000000E-002  0.62500000000000000        0.0000000000000000     
  0.12500000000000000       0.62500000000000000        0.0000000000000000     
  0.12500000000000000       0.68750000000000000        0.0000000000000000     
   3.7499999999999999E-002  0.66249999999999998        0.0000000000000000     
   8.1250000000000003E-002  0.66874999999999996        0.0000000000000000     
   8.7499999999999994E-002  0.71250000000000002        0.0000000000000000     
   4.3749999999999997E-002  0.70625000000000004        0.0000000000000000     
  0.18750000000000000       0.62500000000000000        0.0000000000000000     
  0.25000000000000000       0.62500000000000000        0.0000000000000000     
  0.25000000000000000       0.68750000000000000        0.0000000000000000     
  0.16250000000000001       0.66249999999999998        0.0000000000000000     
  0.20624999999999999       0.66874999999999996        0.0000000000000000     
  0.21249999999999999       0.71250000000000002        0.0000000000000000     
  0.16875000000000001       0.70625000000000004        0.0000000000000000     
   6.2500000000000000E-002  0.50000000000000000        0.0000000000000000     
  0.12500000000000000       0.50000000000000000        0.0000000000000000     
  0.12500000000000000       0.56250000000000000        0.0000000000000000     
   3.7499999999999999E-002  0.53749999999999998        0.0000000000000000     
   8.1250000000000003E-002  0.54374999999999996        0.0000000000000000     
   8.7499999999999994E-002  0.58750000000000002        0.0000000000000000     
   4.3749999999999997E-002  0.58125000000000004        0.0000000000000000     
  0.18750000000000000       0.50000000000000000        0.0000000000000000     
  0.25000000000000000       0.50000000000000000        0.0000000000000000     
  0.25000000000000000       0.56250000000000000        0.0000000000000000     
  0.16250000000000001       0.53749999999999998        0.0000000000000000     
  0.20624999999999999       0.54374999999999996        0.0000000000000000     
  0.21249999999999999       0.58750000000000002        0.0000000000000000     
  0.16875000000000001       0.58125000000000004        0.0000000000000000     
  0.31250000000000000       0.62500000000000000        0.0000000000000000     
  0.37500000000000000       0.62500000000000000        0.0000000000000000     
  0.37500000000000000       0.68750000000000000        0.0000000000000000     
  0.28749999999999998       0.66249999999999998        0.0000000000000000     
  0.33124999999999999       0.66874999999999996        0.0000000000000000     
  0.33750000000000002       0.71250000000000002        0.0000000000000000     
  0.29375000000000001       0.70625000000000004        0.0000000000000000     
  0.43750000000000000       0.62500000000000000        0.0000000000000000     
  0.50000000000000000       0.62500000000000000        0.0000000000000000     
  0.50000000000000000       0.68750000000000000        0.0000000000000000     
  0.41249999999999998       0.66249999999999998        0.0000000000000000     
  0.45624999999999999       0.66874999999999996        0.0000000000000000     
  0.46250000000000002       0.71250000000000002        0.0000000000000000     
  0.41875000000000001       0.70625000000000004        0.0000000000000000     
  0.31250000000000000       0.50000000000000000        0.0000000000000000     
  0.37500000000000000       0.50000000000000000        0.0000000000000000     
  0.37500000000000000       0.56250000000000000        0.0000000000000000     
  0.28749999999999998       0.53749999999999998        0.0000000000000000     
  0.33124999999999999       0.54374999999999996        0.0000000000000000     
  0.33750000000000002       0.58750000000000002        0.0000000000000000     
  0.29375000000000001       0.58125000000000004        0.0000000000000000     
  0.43750000000000000       0.50000000000000000        0.0000000000000000     
  0.50000000000000000       0.50000000000000000        0.0000000000000000     
  0.50000000000000000       0.56250000000000000        0.0000000000000000     
  0.41249999999999998       0.53749999999999998        0.0000000000000000     
  0.45624999999999999       0.54374999999999996        0.0000000000000000     
  0.46250000000000002       0.58750000000000002        0.0000000000000000     
  0.41875000000000001       0.58125000000000004        0.0000000000000000     
  0.56250000000000000       0.87500000000000000        0.0000000000000000     
  0.62500000000000000       0.87500000000000000        0.0000000000000000     
  0.62500000000000000       0.93750000000000000        0.0000000000000000     
  0.53749999999999998       0.91249999999999998        0.0000000000000000     
  0.58125000000000004       0.91874999999999996        0.0000000000000000     
  0.58750000000000002       0.96250000000000002        0.0000000000000000     
  0.54374999999999996       0.95625000000000004        0.0000000000000000     
  0.68750000000000000       0.87500000000000000        0.0000000000000000     
  0.75000000000000000       0.87500000000000000        0.0000000000000000     
  0.75000000000000000       0.93750000000000000        0.0000000000000000     
  0.66249999999999998       0.91249999999999998        0.0000000000000000     
  0.70625000000000004       0.91874999999999996        0.0000000000000000     
  0.71250000000000002       0.96250000000000002        0.0000000000000000     
[...]
 CELL_DATA         896
 SCALARS Endothelial_cells float
 LOOKUP_TABLE default
    0.98997204530690674495E+00
    0.98996978076411357161E+00
    0.98996075974540487241E+00
    0.98995927963898844304E+00
    0.98996890409928384180E+00
    0.98997304201679925395E+00
    0.98997216474962135280E+00
    0.98997611137725671782E+00
    0.98997909586690446826E+00
    0.98997805413409634134E+00
    0.98997563372599728382E+00
    0.98997309072250638806E+00
    0.98998012136013935347E+00
    0.98997995191132337478E+00
    0.98992360987542837858E+00
    0.98991671600815234200E+00
    0.98986745634204087452E+00
    0.98987911666085881546E+00
    0.98992276140392065908E+00
    0.98993426156816910488E+00
    0.98994292704553488171E+00
    0.98995202112944036266E+00
    0.98996138619826712368E+00
    0.98996786506067835365E+00
    0.98995375532848339795E+00
    0.98995221253428422603E+00
    0.98994674629896062257E+00
    0.98994741396909680109E+00
    0.98993300090323443907E+00
    0.98992314629462097031E+00
    0.98988088309966315581E+00
    0.98986623698566733598E+00
    0.98991625726349219416E+00
    0.98992365086110956085E+00
    0.98995192304035162234E+00
    0.98995451727259753394E+00
    0.98996843745639628853E+00
    0.98996006921173429483E+00
    0.98995191643043700669E+00
    0.98994413853915885770E+00
    0.98994752999018853501E+00
    0.98994684585237668895E+00
    0.98963995217051392572E+00
    0.98950386180905292033E+00
    0.98898553769399488722E+00
    0.98898391352939274412E+00
    0.98950339123383601603E+00
    0.98964000747487979037E+00
    0.98981739817794944791E+00
    0.98982358046135265894E+00
    0.98990539942585931144E+00
    0.98990336916373045106E+00
    0.98982272924565373184E+00
    0.98981769289223486830E+00
    0.98971601754708538046E+00
    0.98971600730104403176E+00
    0.98972913281286811760E+00
    0.98975703581020346711E+00
    0.98961691690973685454E+00
    0.98970962444515298007E+00
    0.98982833019185445522E+00
    0.98987431747198051379E+00
    0.98989280421498471174E+00
    0.98989796638882243673E+00
    0.98991846759491541885E+00
    0.98992397625612305045E+00
    0.98988339570501016063E+00
    0.98985491120352608885E+00
    0.98985791574377368640E+00
    0.98987004558278934852E+00
    0.98939283011989631600E+00
    0.98956231662915317138E+00
    0.98938307452247087337E+00
    0.98958836830107155258E+00
    0.98975647362023111420E+00
    0.98983826223742332751E+00
    0.98985598264930108048E+00
    0.98984625518089874863E+00
    0.98986891558775946809E+00
    0.98986436366279395571E+00
    0.98978170615518534792E+00
    0.98967682927794775605E+00
    0.98975580790096406858E+00
    0.98979124930461004350E+00
    0.98591751852541043011E+00
    0.98612554145288300322E+00
    0.98089708603544745191E+00
    0.98456170976255608096E+00
    0.98772822206142585344E+00
    0.98882838010706097798E+00
    0.98941520890827361345E+00
    0.98927664972248652298E+00
    0.98962257865005343049E+00
    0.98955078961315234842E+00
    0.98892932951452272583E+00
    0.98850485501666507382E+00
    0.98835751738983790293E+00
    0.98856559671348831486E+00
    0.95697117433527278951E+00
    0.97564920026055079738E+00
    0.95378933576749413970E+00
    0.97901315826193968661E+00
    0.98562422620093204095E+00
    0.98821754202996892058E+00
    0.98902306622515590018E+00
    0.98848042592029383702E+00
    0.98909617070404498573E+00
    0.98870547767608429890E+00
    0.98644889519923595333E+00
    0.98318793515525493287E+00
    0.98573265142111687886E+00
    0.98665255005688656809E+00
    0.98987304925870223116E+00
    0.98982871953516637920E+00
    0.98971142086933716620E+00
    0.98961566142194479223E+00
    0.98975657906228298177E+00
    0.98972918559416689366E+00
    0.98985461378561967472E+00
    0.98988416154175395967E+00
    0.98992453499052723842E+00
    0.98991712844186996456E+00
    0.98989749901827084333E+00
    0.98989374431598475823E+00
    0.98987015732186467432E+00
    0.98985800988419159196E+00
    0.98882829771993885348E+00
    0.98772876652291741184E+00
    0.98456441550180417988E+00
    0.98089465442534118367E+00
    0.98612496503806568171E+00
    0.98591771972635011689E+00
    0.98850446354721155373E+00
    0.98893022199189761778E+00
    0.98955227448068405760E+00
    0.98961986782889554970E+00
    0.98927606835756587422E+00
    0.98941575841721096651E+00
    0.98856573006784498325E+00
    0.98835760207793321719E+00
    0.98983774388086565033E+00
    0.98975686630868686677E+00
    0.98959018643402363313E+00
    0.98938178287618083750E+00
    0.98956185277997954497E+00
    0.98939289843164968108E+00
    0.98967652379856219103E+00
    0.98978247844627786911E+00
    0.98986499912751679808E+00
    0.98986764294955487120E+00
    0.98984574433554328721E+00
    0.98985689537721444076E+00
    0.98979136234601750033E+00
    0.98975590238745836391E+00
    0.98821813477010611582E+00
    0.98562482562012854181E+00
    0.97901681776254012579E+00
    0.95378412858131711438E+00
    0.97564833611588064333E+00
    0.95697247578383681788E+00
    0.98318725813851381989E+00
    0.98644990542633148589E+00
    0.98870711361297658470E+00
    0.98909331454665783134E+00
    0.98847981148945696095E+00
    0.98902365460004648678E+00
    0.98665272694777961249E+00
    0.98573273222855073428E+00
    0.79349996347056961365E+00
    0.21411626621992832509E+00
    0.14484920073161680794E-02
    0.14484156532710455376E-02
    0.21410753332417417627E+00
    0.79350289921248862157E+00
    0.96324286661589764158E+00
    0.89066403098776358860E+00
    0.98321114348160232321E+00
    0.98320774335991645287E+00
    0.89066166997474371936E+00
    0.96324542329586615441E+00
    0.12601570032683645506E+00
    0.12601627886241875687E+00
    0.11527553479477330894E-04
    0.53994897639226728872E-02
    0.40989195840943678378E-02
    0.32263822861957541788E+00
    0.40001088190615169404E+00
    0.55738613585977225817E+00
    0.78905943438375902854E+00
    0.40000740505623672005E+00
    0.89747062477805972236E+00
    0.84477662344631210267E+00
    0.39906753087554719395E+00
    0.56689441413735885966E-02
    0.32028426645733037992E+00
    0.39997548350036599141E+00
    0.55739219026285857783E+00
    0.39998744647711181877E+00
    0.32266699133292248147E+00
    0.40993213726319439189E-02
    0.53994038626625062011E-02
    0.11527533697478681938E-04
    0.56688435552278660864E-02
    0.39905588779601219862E+00
    0.84480752741971032460E+00
    0.89744821599135404799E+00
    0.39999454805954842707E+00
    0.78907200968907587058E+00
    0.40000124189331437430E+00
    0.32027189029611358162E+00
    0.99210487233656270608E-05
    0.99366412790682668308E-05
    0.99153739022603232478E-05
    0.99153738931829964127E-05
    0.99366413276823472569E-05
    0.99210487234606048652E-05
    0.10632309204271598333E-04
    0.99366168530645226432E-05
    0.99152102584813062494E-05
    0.99152101497341207307E-05
    0.99366168389747699225E-05
    0.10632433630294644926E-04
    0.98985448917405766502E-05
    0.98985449121107280031E-05
    0.98928703979965681992E+00
    0.98956075804239285176E+00
    0.98947664182771921659E+00
    0.98967442998567756174E+00
    0.98979072157175795876E+00
    0.98986850321209385317E+00
    0.98987037593002691338E+00
    0.98984810683710133805E+00
    0.98985483454184441943E+00
    0.98983756726272309479E+00
    0.98974727530313688639E+00
    0.98958662304226874262E+00
    0.98975098024735697066E+00
    0.98979540659856179996E+00
    0.98956995877917042215E+00
    0.98975642603892610705E+00
    0.98976415104413251189E+00
    0.98985220661720452195E+00
    0.98988855358328609046E+00
    0.98992873352074206572E+00
    0.98991950362716474299E+00
    0.98990254637147867545E+00
    0.98989453472825250646E+00
    0.98987675512138317835E+00
    0.98982612062538810616E+00
    0.98970540228576253661E+00
    0.98985223859050874839E+00
    0.98987832309871681691E+00
    0.92856454199691806917E+00
    0.97548013198377581112E+00
    0.96867770380612361336E+00
    0.98307097557357292494E+00
    0.98675407594446040704E+00
    0.98874682159472104814E+00
    0.98918783915222463499E+00
    0.98851212183377401566E+00
    0.98892199672973413183E+00
    0.98823301164839916222E+00
    0.98532947606323362244E+00
    0.97873548147328648383E+00
    0.98548394084879176180E+00
    0.98680163151583832892E+00
    0.97806012221162363929E+00
    0.98607959522333732405E+00
    0.98667665699433682036E+00
    0.98846362263746134769E+00
    0.98903153414258238030E+00
    0.98958814062738920114E+00
    0.98966232241938278946E+00
    0.98932279505357589855E+00
    0.98936949979008281808E+00
    0.98888863115010117166E+00
    0.98767747079342294025E+00
    0.98428370311083135391E+00
    0.98816034651836981428E+00
    0.98874233825290291922E+00
    0.98985888134174793151E+00
    0.98991688773108765798E+00
    0.98993173473022377795E+00
    0.98995160725599817830E+00
    0.98995616727284774239E+00
    0.98997104241432143379E+00
    0.98996175124591723193E+00
    0.98995449098674248578E+00
    0.98994520424317589136E+00
    0.98993665188438062508E+00
    0.98992301534905535743E+00
    0.98987744798695698201E+00
    0.98994424227581911957E+00
    0.98995139428907752421E+00
    0.98996016007131271142E+00
    0.98997109670627447819E+00
    0.98997445967821962043E+00
    0.98997332838804663613E+00
    0.98997653500289251038E+00
    0.98997996326508708176E+00
    0.98997912936619658630E+00
    0.98997725938828351477E+00
    0.98997436458325638320E+00
    0.98997390728130918447E+00
    0.98997035894378615506E+00
    0.98996018463629575912E+00
    0.98998217087014461768E+00
    0.98998187543816673628E+00
    0.98892074367791737988E+00
    0.98950179553856065784E+00
    0.98967511835345522986E+00
    0.98980894834621291345E+00
    0.98983648320725148295E+00
    0.98991357428688431241E+00
    0.98991293971354754611E+00
    0.98983683986904524854E+00
    0.98981111117393150156E+00
    0.98967398356686164806E+00
    0.98950145732506500362E+00
    0.98892078435095198685E+00
    0.98967559367917823376E+00
    0.98976522260760335659E+00
    0.98987758547756554695E+00
    0.98992327042879135757E+00
    0.98993705108642926493E+00
    0.98994426348380970548E+00
    0.98995391130032439619E+00
    0.98996291470103359167E+00
    0.98996946892381987304E+00
    0.98995641649899557279E+00
    0.98995372807664572257E+00
    0.98993063105009893032E+00
    0.98991654391568295601E+00
    0.98985906906616016876E+00
    0.98994425302337563100E+00
    0.98995136651523119031E+00
    0.40161024271735418917E-02
    0.29845776761988389997E-01
    0.14286041860172773451E-04
    0.41961014483832461547E-02
    0.36743052880589521791E+00
    0.84838979626975374870E+00
    0.89078368195285384523E+00
    0.39999000917715488157E+00
    0.82128099485231220722E+00
    0.52698257496792511034E+00
    0.41715578192933794321E+00
    0.37928886675507011983E+00
    0.39997527970157820132E+00
    0.40002310030758975179E+00
    0.21569868579607420073E-02
    0.24217155033875201187E+00
    0.80412737043068893694E+00
    0.96455832227821602931E+00
    0.90812090105833598308E+00
    0.98410752325497619086E+00
    0.98410629305048114013E+00
    0.90812374506474258240E+00
    0.96456640970570406424E+00
    0.80410614820003967207E+00
    0.24217744074380970210E+00
    0.21570358464550469686E-02
    0.12700831716149442799E-01
    0.18419458954275552687E+00
    0.99210547750897818184E-05
    0.99366502377407649237E-05
    0.99153749688577002771E-05
    0.10438880885887273075E-04
    0.99366259370572596770E-05
    0.99208626453212678221E-05
    0.99208625892091450207E-05
    0.99366259484596834820E-05
    0.10438877005207089003E-04
    0.99153748767675853787E-05
    0.99366502110114442625E-05
    0.99210547761653781362E-05
    0.98985679520031570811E-05
    0.98985587492740343741E-05
    0.37929050550352022553E+00
    0.41714411261961087396E+00
    0.52701384442832410748E+00
    0.82125187236318530903E+00
    0.40000698221459374260E+00
    0.89079367903166217779E+00
    0.84837301844018575547E+00
    0.36743994829558423998E+00
    0.41962326498756717663E-02
    0.14281772585114258997E-04
    0.29814526968435887955E-01
    0.40161421903567254971E-02
    0.40002115839755308935E+00
    0.39998216590052620978E+00
    0.98428385505912507902E+00
    0.98767781965784684495E+00
    0.98888989248340730676E+00
    0.98936699815397954882E+00
    0.98932204706154014406E+00
    0.98966308821123016859E+00
    0.98958757589923229681E+00
    0.98903192194620803690E+00
    0.98846607406697173381E+00
    0.98667504208448464365E+00
    0.98607918009783612767E+00
    0.97806084907445289822E+00
    0.98816034885799486354E+00
    0.98874234554045004053E+00
    0.98970553948256911880E+00
    0.98982637694949360263E+00
    0.98987715695820877038E+00
    0.98989358886545175675E+00
    0.98990196251061857158E+00
    0.98992067141810458075E+00
    0.98992715022681321280E+00
    0.98988880260223643948E+00
    0.98985434427335772245E+00
    0.98976301956893775191E+00
    0.98975607571665047413E+00
    0.98957015882176224686E+00
    0.98985224857550879740E+00
    0.98987829414797356975E+00
    0.97873710150135861952E+00
    0.98533009586892839060E+00
    0.98823436920924612181E+00
    0.98891939019329988536E+00
    0.98851134386643002561E+00
    0.98918866387543435970E+00
    0.98874619254122775303E+00
    0.98675457034345692708E+00
    0.98307458692386584520E+00
    0.96867395487129115406E+00
    0.97547970757663593488E+00
    0.92856681144764008362E+00
    0.98548420890694421459E+00
    0.98680167085358461154E+00
    0.98958744737670201186E+00
    0.98974769777732474196E+00
    0.98983796979957117124E+00
    0.98985381415777662362E+00
    0.98984741276953436273E+00
    0.98987150515819277707E+00
    0.98986686616519170556E+00
    0.98979129082378136673E+00
    0.98967660468509555116E+00
    0.98947550588434451946E+00
    0.98956046051497215110E+00
    0.98928724827507585893E+00
    0.98975114808064690308E+00
    0.98979568089444325274E+00
    0.98986798283247701136E+00
    0.98979160469728988403E+00
    0.98967558540429512171E+00
    0.98947536482663189794E+00
    0.98956029401433964754E+00
    0.98928711376136491129E+00
    0.98958631770700344887E+00
    0.98974805442355207052E+00
    0.98983885408983984799E+00
    0.98985356420080383710E+00
    0.98984759636027386254E+00
    0.98987128414216163375E+00
    0.98979599072552426620E+00
    0.98975108036653125509E+00
    0.98874737444029170419E+00
    0.98675488355230145388E+00
    0.98307298608390170092E+00
    0.96867383962322606283E+00
    0.97547929998572457944E+00
    0.92856682331767381733E+00
    0.97873484644680763811E+00
    0.98533050654571663340E+00
    0.98823532677057746021E+00
    0.98891909429295432599E+00
    0.98851149198576071520E+00
    0.98918841139397761797E+00
    0.98680203335695892974E+00
    0.98548405101036007370E+00
    0.98992820937150616256E+00
    0.98988911024043479969E+00
    0.98985334177279116208E+00
    0.98976289388700455785E+00
    0.98975593779977610875E+00
    0.98957002103798585857E+00
    0.98970434604333656914E+00
    0.98982669631418951361E+00
    0.98987803681609354278E+00
    0.98989336160637098061E+00
    0.98990217798954205364E+00
    0.98992040054218122247E+00
    0.98987859749041451352E+00
    0.98985214799800769203E+00
    0.98958867379742143644E+00
    0.98903221893154258382E+00
    0.98846495819151025675E+00
    0.98667493761505520311E+00
    0.98607898682524175449E+00
    0.97806078735806245561E+00
    0.98428203688884008393E+00
    0.98767815615990195433E+00
    0.98889079773490762282E+00
    0.98936671843571810658E+00
    0.98932218685548989345E+00
    0.98966285009271293127E+00
    0.98874266182743186793E+00
    0.98816019797095244748E+00
    0.84838895885981502332E+00
    0.36744111756460723361E+00
    0.41962652278998736899E-02
    0.14285200444339111715E-04
    0.29845889405368891678E-01
    0.40161365461198377316E-02
    0.37929156486442150431E+00
    0.41716015845036735765E+00
    0.52703083492887869976E+00
    0.82124654814430075866E+00
    0.39999807277769511282E+00
    0.89079120658561972146E+00
    0.40001201674984299128E+00
    0.39997508596269026881E+00
    0.99208626477175443587E-05
    0.99366259619538500680E-05
    0.10438895397120850686E-04
    0.99153748792734730608E-05
    0.99366502396369650666E-05
    0.99210547548200801027E-05
    0.99210547430035351136E-05
    0.99366502968998837708E-05
    0.99153749531564656802E-05
    0.10438875367280976310E-04
    0.99366259029740735067E-05
    0.99208626031258082526E-05
    0.98985587083348398619E-05
    0.98985679723914281629E-05
    0.98410830217492051286E+00
    0.90812425943037300424E+00
    0.96456362951577290232E+00
    0.80410716531016490638E+00
    0.24217595718628542878E+00
    0.21570179793572140381E-02
    0.21570290601190290902E-02
    0.24217597700231233149E+00
    0.80413750513595450009E+00
    0.96455737319163847854E+00
    0.90812180201356096365E+00
    0.98410761309014471721E+00
    0.18419532992828113738E+00
    0.12700884585945503014E-01
    0.89079175814410782586E+00
    0.40001092083852313186E+00
    0.82126832206468658448E+00
    0.52698258582697354857E+00
    0.41712659737628349221E+00
    0.37930256287336971965E+00
    0.40162257252498766505E-02
    0.29829545729788450870E-01
    0.14280460274111210768E-04
    0.41961042007397303735E-02
    0.36743088386052336070E+00
    0.84838811647280043537E+00
    0.39998692865531332297E+00
    0.40000720445458731733E+00
    0.98997051743162511883E+00
    0.98995671894290648840E+00
    0.98995272801956790687E+00
    0.98993050104738089523E+00
    0.98991640621258480959E+00
    0.98985892870741198912E+00
    0.98987641145437998969E+00
    0.98992358724913154244E+00
    0.98993792537455826963E+00
    0.98994403680521092515E+00
    0.98995412422913164896E+00
    0.98996264135437594955E+00
    0.98995166614873286726E+00
    0.98994415264618151884E+00
    0.98991425306138436380E+00
    0.98983712446322746903E+00
    0.98981009086924742757E+00
    0.98967384998532326179E+00
    0.98950130566614857841E+00
    0.98892060673527704129E+00
    0.98891942657905418379E+00
    0.98950210431551144374E+00
    0.98967596227276244392E+00
    0.98980869799405957199E+00
    0.98983663779842256947E+00
    0.98991359426949021572E+00
    0.98976550801430684956E+00
    0.98967547283224532872E+00
    0.98997911354829748465E+00
    0.98997722809205201955E+00
    0.98997459664499753984E+00
    0.98997316491280862305E+00
    0.98997057862457860100E+00
    0.98996018335734980997E+00
    0.98995914189377276493E+00
    0.98997101301705225929E+00
    0.98997513506071022071E+00
    0.98997307019358427027E+00
    0.98997669705466107004E+00
    0.98997993738187761714E+00
    0.98998210875833914102E+00
    0.98998218666771542473E+00
    0.98996198094813836477E+00
    0.98995442822299828389E+00
    0.98994542165507914966E+00
    0.98993576512168290904E+00
    0.98992277228373559694E+00
    0.98987755760339735112E+00
    0.98985796038315443379E+00
    0.98991716816812058699E+00
    0.98993254414289710841E+00
    0.98995134129131989731E+00
    0.98995620339905265883E+00
    0.98996999259808160510E+00
    0.98995163612023351352E+00
    0.98994411828876027748E+00
    0.98966368209611643714E+00
    0.98932274330922886918E+00
    0.98936821980280276190E+00
    0.98888850244387438426E+00
    0.98767728699412771221E+00
    0.98428394700048471577E+00
    0.97805824005382335784E+00
    0.98608000430339348696E+00
    0.98667772605694126220E+00
    0.98846333278153963864E+00
    0.98903170082830249576E+00
    0.98958817471052451520E+00
    0.98874265421832974177E+00
    0.98816019455033221597E+00
    0.98918925009458513742E+00
    0.98851208007843316405E+00
    0.98892068137378041914E+00
    0.98823288129977282512E+00
    0.98532923621926626900E+00
    0.97873595733793816720E+00
    0.92855937125834264734E+00
    0.97548015733635484725E+00
    0.96867938729380642648E+00
    0.98307052547713136281E+00
    0.98675428028491030119E+00
    0.98874684684574631888E+00