# vtk DataFile Version 3.0
LAPLACIEN  2D
ASCII
DATASET UNSTRUCTURED_GRID
 POINTS         481  float
   6.2500000000000000E-002  0.87500000000000000        0.0000000000000000     
  0.12500000000000000       0.87500000000000000        0.0000000000000000     
  0.12500000000000000       0.93750000000000000        0.0000000000000000     
   3.7499999999999999E-002  0.91249999999999998        0.0000000000000000     
   8.1250000000000003E-002  0.91874999999999996        0.0000000000000000     
   8.7499999999999994E-002  0.96250000000000002        0.0000000000000000     
   4.3749999999999997E-002  0.95625000000000004        0.0000000000000000     
  0.18750000000000000       0.87500000000000000        0.0000000000000000     
  0.25000000000000000       0.87500000000000000        0.0000000000000000     
  0.25000000000000000       0.93750000000000000        0.0000000000000000     
  0.16250000000000001       0.91249999999999998        0.0000000000000000     
  0.20624999999999999       0.91874999999999996        0.0000000000000000     
  0.21249999999999999       0.96250000000000002        0.0000000000000000     
  0.16875000000000001       0.95625000000000004        0.0000000000000000     
   6.2500000000000000E-002  0.75000000000000000        0.0000000000000000     
  0.12500000000000000       0.75000000000000000        0.0000000000000000     
  0.12500000000000000       0.81250000000000000        0.0000000000000000     
   3.7499999999999999E-002  0.78749999999999998        0.0000000000000000     
   8.1250000000000003E-002  0.79374999999999996        0.0000000000000000     
   8.7499999999999994E-002  0.83750000000000002        0.0000000000000000     
   4.3749999999999997E-002  0.83125000000000004        0.0000000000000000     
  0.18750000000000000       0.75000000000000000        0.0000000000000000     
  0.25000000000000000       0.75000000000000000        0.0000000000000000     
  0.25000000000000000       0.81250000000000000        0.0000000000000000     
  0.16250000000000001       0.78749999999999998        0.0000000000000000     
  0.20624999999999999       0.79374999999999996        0.0000000000000000     
  0.21249999999999999       0.83750000000000002        0.0000000000000000     
  0.16875000000000001       0.83125000000000004        0.0000000000000000     
  0.31250000000000000       0.87500000000000000        0.0000000000000000     
  0.37500000000000000       0.87500000000000000        0.0000000000000000     
  0.37500000000000000       0.93750000000000000        0.0000000000000000     
  0.28749999999999998       0.91249999999999998        0.0000000000000000     
  0.33124999999999999       0.91874999999999996        0.0000000000000000     
  0.33750000000000002       0.96250000000000002        0.0000000000000000     
  0.29375000000000001       0.95625000000000004        0.0000000000000000     
  0.43750000000000000       0.87500000000000000        0.0000000000000000     
  0.50000000000000000       0.87500000000000000        0.0000000000000000     
  0.50000000000000000       0.93750000000000000        0.0000000000000000     
  0.41249999999999998       0.91249999999999998        0.0000000000000000     
  0.45624999999999999       0.91874999999999996        0.0000000000000000     
  0.46250000000000002       0.96250000000000002        0.0000000000000000     
  0.41875000000000001       0.95625000000000004        0.0000000000000000     
  0.31250000000000000       0.75000000000000000        0.0000000000000000     
  0.37500000000000000       0.75000000000000000        0.0000000000000000     
  0.37500000000000000       0.81250000000000000        0.0000000000000000     
  0.28749999999999998       0.78749999999999998        0.0000000000000000     
  0.33124999999999999       0.79374999999999996        0.0000000000000000     
  0.33750000000000002       0.83750000000000002        0.0000000000000000     
  0.29375000000000001       0.83125000000000004        0.0000000000000000     
  0.43750000000000000       0.75000000000000000        0.0000000000000000     
  0.50000000000000000       0.75000000000000000        0.0000000000000000     
  0.50000000000000000       0.81250000000000000        0.0000000000000000     
  0.41249999999999998       0.78749999999999998        0.0000000000000000     
  0.45624999999999999       0.79374999999999996        0.0000000000000000     
  0.46250000000000002       0.83750000000000002        0.0000000000000000     
  0.41875000000000001       0.83125000000000004        0.0000000000000000     
   6.2500000000000000E-002  0.62500000000000000        0.0000000000000000     
  0.12500000000000000       0.62500000000000000        0.0000000000000000     
  0.12500000000000000       0.68750000000000000        0.0000000000000000     
   3.7499999999999999E-002  0.66249999999999998        0.0000000000000000     
   8.1250000000000003E-002  0.66874999999999996        0.0000000000000000     
   8.7499999999999994E-002  0.71250000000000002        0.0000000000000000     
   4.3749999999999997E-002  0.70625000000000004        0.0000000000000000     
  0.18750000000000000       0.62500000000000000        0.0000000000000000     
  0.25000000000000000       0.62500000000000000        0.0000000000000000     
  0.25000000000000000       0.68750000000000000        0.0000000000000000     
  0.16250000000000001       0.66249999999999998        0.0000000000000000     
  0.20624999999999999       0.66874999999999996        0.0000000000000000     
  0.21249999999999999       0.71250000000000002        0.0000000000000000     
  0.16875000000000001       0.70625000000000004        0.0000000000000000     
   6.2500000000000000E-002  0.50000000000000000        0.0000000000000000     
  0.12500000000000000       0.50000000000000000        0.0000000000000000     
  0.12500000000000000       0.56250000000000000        0.0000000000000000     
   3.7499999999999999E-002  0.53749999999999998        0.0000000000000000     
   8.1250000000000003E-002  0.54374999999999996        0.0000000000000000     
   8.7499999999999994E-002  0.58750000000000002        0.0000000000000000     
   4.3749999999999997E-002  0.58125000000000004        0.0000000000000000     
  0.18750000000000000       0.50000000000000000        0.0000000000000000     
  0.25000000000000000       0.50000000000000000        0.0000000000000000     
  0.25000000000000000       0.56250000000000000        0.0000000000000000     
  0.16250000000000001       0.53749999999999998        0.0000000000000000     
  0.20624999999999999       0.54374999999999996        0.0000000000000000     
  0.21249999999999999       0.58750000000000002        0.0000000000000000     
  0.16875000000000001       0.58125000000000004        0.0000000000000000     
  0.31250000000000000       0.62500000000000000        0.0000000000000000     
  0.37500000000000000       0.62500000000000000        0.0000000000000000     
  0.37500000000000000       0.68750000000000000        0.0000000000000000     
  0.28749999999999998       0.66249999999999998        0.0000000000000000     
  0.33124999999999999       0.66874999999999996        0.0000000000000000     
  0.33750000000000002       0.71250000000000002        0.0000000000000000     
  0.29375000000000001       0.70625000000000004        0.0000000000000000     
  0.43750000000000000       0.62500000000000000        0.0000000000000000     
  0.50000000000000000       0.62500000000000000        0.0000000000000000     
  0.50000000000000000       0.68750000000000000        0.0000000000000000     
  0.41249999999999998       0.66249999999999998        0.0000000000000000     
  0.45624999999999999       0.66874999999999996        0.0000000000000000     
  0.46250000000000002       0.71250000000000002        0.0000000000000000     
  0.41875000000000001       0.70625000000000004        0.0000000000000000     
  0.31250000000000000       0.50000000000000000        0.0000000000000000     
  0.37500000000000000       0.50000000000000000        0.0000000000000000     
  0.37500000000000000       0.56250000000000000        0.0000000000000000     
  0.28749999999999998       0.53749999999999998        0.0000000000000000     
  0.33124999999999999       0.54374999999999996        0.0000000000000000     
  0.33750000000000002       0.58750000000000002        0.0000000000000000     
  0.29375000000000001       0.58125000000000004        0.0000000000000000     
  0.43750000000000000       0.50000000000000000        0.0000000000000000     
  0.50000000000000000       0.50000000000000000        0.0000000000000000     
  0.50000000000000000       0.56250000000000000        0.0000000000000000     
  0.41249999999999998       0.53749999999999998        0.0000000000000000     
  0.45624999999999999       0.54374999999999996        0.0000000000000000     
  0.46250000000000002       0.58750000000000002        0.0000000000000000     
  0.41875000000000001       0.58125000000000004        0.0000000000000000     
  0.56250000000000000       0.87500000000000000        0.0000000000000000     
  0.62500000000000000       0.87500000000000000        0.0000000000000000     
  0.62500000000000000       0.93750000000000000        0.0000000000000000     
  0.53749999999999998       0.91249999999999998        0.0000000000000000     
  0.58125000000000004       0.91874999999999996        0.0000000000000000     
  0.58750000000000002       0.96250000000000002        0.0000000000000000     
  0.54374999999999996       0.95625000000000004        0.0000000000000000     
  0.68750000000000000       0.87500000000000000        0.0000000000000000     
  0.75000000000000000       0.87500000000000000        0.0000000000000000     
  0.75000000000000000       0.93750000000000000        0.0000000000000000     
  0.66249999999999998       0.91249999999999998        0.0000000000000000     
  0.70625000000000004       0.91874999999999996        0.0000000000000000     
  0.71250000000000002       0.96250000000000002        0.0000000000000000     
[...]
 CELL_DATA         896
 SCALARS Nutrients float
 LOOKUP_TABLE default
    0.60798724280835414469E+00
    0.60795805492599885866E+00
    0.60613800267120343523E+00
    0.60613800180688837127E+00
    0.60795805466198860056E+00
    0.60798724471971055117E+00
    0.60910806951728801995E+00
    0.60970709997176630868E+00
    0.61040502230960125285E+00
    0.61040502078612990378E+00
    0.60970710058729504777E+00
    0.60910807195733085440E+00
    0.60909544031648754636E+00
    0.60909543989020009658E+00
    0.60121584857666565682E+00
    0.60028631333637016976E+00
    0.59547104784105975295E+00
    0.59605523793080172901E+00
    0.60032928641748828369E+00
    0.60085091920996203108E+00
    0.60304628450316899446E+00
    0.60446385243781453056E+00
    0.60655850217087237120E+00
    0.60717991720064090622E+00
    0.60529236500817162892E+00
    0.60497031949875190726E+00
    0.60307927973656760834E+00
    0.60296486577005448115E+00
    0.60085091625343722832E+00
    0.60032928587894585082E+00
    0.59605523807827387461E+00
    0.59547104703303199713E+00
    0.60028631456869840921E+00
    0.60121585188563742008E+00
    0.60497031787034627470E+00
    0.60529236426687915706E+00
    0.60717991692088457700E+00
    0.60655849904267622463E+00
    0.60446385227562227094E+00
    0.60304628615861222141E+00
    0.60296486564973972300E+00
    0.60307927911624958917E+00
    0.58288991632494535633E+00
    0.57852444752021270347E+00
    0.56367993882467026800E+00
    0.56367993859209364338E+00
    0.57852444892066412496E+00
    0.58288991895081931904E+00
    0.59231678433368162295E+00
    0.59317281838811186656E+00
    0.59936220708919296651E+00
    0.59936220718650101702E+00
    0.59317282049752995121E+00
    0.59231678644003904477E+00
    0.58671658815183180824E+00
    0.58671658761538403315E+00
    0.58615456001144383702E+00
    0.58692946295531345235E+00
    0.57981970614917821560E+00
    0.58313618368598496566E+00
    0.59011825403136486390E+00
    0.59247079908234967505E+00
    0.59494957481392340970E+00
    0.59606790039460921804E+00
    0.59887595353666156495E+00
    0.59953400094221787064E+00
    0.59580798899978870686E+00
    0.59395729000624486460E+00
    0.59268542683423208750E+00
    0.59318819796085775486E+00
    0.57102315245992751880E+00
    0.57617813212540813783E+00
    0.57010663874192946121E+00
    0.57651367084124038875E+00
    0.58417398035586431959E+00
    0.58851676730500424028E+00
    0.59004702953045717884E+00
    0.58962991698405542440E+00
    0.59163002985214174778E+00
    0.59146159705989231892E+00
    0.58638175463841124557E+00
    0.58140924926095149949E+00
    0.58419702470880685574E+00
    0.58583574957270201367E+00
    0.52817058811275896524E+00
    0.52874657129850166637E+00
    0.50037107938506808491E+00
    0.51330054225850640925E+00
    0.54327560110782435743E+00
    0.55828702960874754258E+00
    0.57328819767035377186E+00
    0.57033011430487445814E+00
    0.58140580127240959474E+00
    0.57923644828578180199E+00
    0.56320302494391683013E+00
    0.55580687945515949711E+00
    0.55157493085886222239E+00
    0.55473247167264749802E+00
    0.46575718966612933425E+00
    0.48639251425350388258E+00
    0.46188576497725880587E+00
    0.48795899432975764487E+00
    0.52255889964982638052E+00
    0.54661851938045791233E+00
    0.56149630582068987827E+00
    0.55187634307638300246E+00
    0.56303306478408066127E+00
    0.55538162564359727646E+00
    0.52973901311980198248E+00
    0.50667898119010390534E+00
    0.52092070257877798323E+00
    0.52942029781860133753E+00
    0.59247079798794100025E+00
    0.59011825385497351792E+00
    0.58313618373707765130E+00
    0.57981970435390661756E+00
    0.58692946310474947147E+00
    0.58615456328302628641E+00
    0.59395728771436717697E+00
    0.59580798734555806551E+00
    0.59953399937996576519E+00
    0.59887594912811370484E+00
    0.59606789991855446686E+00
    0.59494957727817787685E+00
    0.59318819740733919055E+00
    0.59268542548081804000E+00
    0.55828702491900727978E+00
    0.54327559634464450689E+00
    0.51330053672230402384E+00
    0.50037106747081694369E+00
    0.52874656834696664998E+00
    0.52817059128253718292E+00
    0.55580687676068230019E+00
    0.56320302207401551353E+00
    0.57923644964944009939E+00
    0.58140580251999374184E+00
    0.57033011493990892760E+00
    0.57328819816635789852E+00
    0.55473246968976930305E+00
    0.55157492772758009991E+00
    0.58851676771524163989E+00
    0.58417398147363241989E+00
    0.57651367203439485287E+00
    0.57010663796674798665E+00
    0.57617813321933220028E+00
    0.57102315608233733535E+00
    0.58140924729500775836E+00
    0.58638175449435725461E+00
    0.59146159851424506826E+00
    0.59163002907501938132E+00
    0.58962991794653907274E+00
    0.59004703278376180453E+00
    0.58583575030794587946E+00
    0.58419702460018885226E+00
    0.54661851557126206469E+00
    0.52255889229148888564E+00
    0.48795898066142562310E+00
    0.46188573977957309014E+00
    0.48639250913567544377E+00
    0.46575719523819170131E+00
    0.50667897533090822115E+00
    0.52973900814623831046E+00
    0.55538162559072123958E+00
    0.56303306585204893064E+00
    0.55187634371000182654E+00
    0.56149630722176757658E+00
    0.52942029460196793345E+00
    0.52092069787798123137E+00
    0.42042482561756971959E+00
    0.37042412765958698806E+00
    0.30039773844720740748E+00
    0.30039774059048857113E+00
    0.37042412863992502103E+00
    0.42042488415861228868E+00
    0.47592136184073036143E+00
    0.46691463357389351163E+00
    0.51295250891585963959E+00
    0.51295250844839501703E+00
    0.46691463240668090728E+00
    0.47592134623566506590E+00
    0.40898950114401427802E+00
    0.40898950117949334215E+00
    0.22502306441029587547E+00
    0.23920863548613938154E+00
    0.20391002645427247497E+00
    0.23359588962206659368E+00
    0.30639666838533752280E+00
    0.37616679981180473069E+00
    0.42864498143109824868E+00
    0.39165217826328124762E+00
    0.43547641199680553470E+00
    0.40994150687623565066E+00
    0.32769789999378418077E+00
    0.28245746961059181590E+00
    0.30064116816960562151E+00
    0.32117258002472703904E+00
    0.37616665204666982492E+00
    0.30639662701091957553E+00
    0.23359591843546925749E+00
    0.20391003606815724658E+00
    0.23920863575355263975E+00
    0.22502306316517839413E+00
    0.28245746094208923349E+00
    0.32769787020417284751E+00
    0.40994147945423942137E+00
    0.43547640296051165487E+00
    0.39165217127701745792E+00
    0.42864494458547119926E+00
    0.32117256317601394766E+00
    0.30064115788023038078E+00
    0.14722682944952758533E+00
    0.12920777242667760842E+00
    0.11160164750708999326E+00
    0.11160164642902274668E+00
    0.12920777241897632437E+00
    0.14722683025256685929E+00
    0.17843209687277583608E+00
    0.16878533255682026670E+00
    0.20217297379389911893E+00
    0.20217297190052513356E+00
    0.16878533315307728269E+00
    0.17843210246854487866E+00
    0.14233160207964343225E+00
    0.14233160187446761147E+00
    0.56744012298882695600E+00
    0.57615571456840675157E+00
    0.57368942823376323226E+00
    0.58114252103062913335E+00
    0.58687778786430966349E+00
    0.59187185066493486207E+00
    0.59187960258457394946E+00
    0.58977297931781103024E+00
    0.58989953327324995414E+00
    0.58855900921903936407E+00
    0.58379990718855245824E+00
    0.57644484803480688928E+00
    0.58385851586938697366E+00
    0.58629149478558073572E+00
    0.57800928483782254563E+00
    0.58684454513773542939E+00
    0.58787580264219585491E+00
    0.59355171433090159194E+00
    0.59621837474948014002E+00
    0.60007889665266000989E+00
    0.59910216603745247710E+00
    0.59638191831260023434E+00
    0.59494126410777470326E+00
    0.59294250659161817918E+00
    0.58995819161115092832E+00
    0.58274949274539888933E+00
    0.59190168160130385289E+00
    0.59420393336193355616E+00
    0.45180851060634363847E+00
    0.48643615507624732297E+00
    0.47604594824292983946E+00
    0.50567291828803762055E+00
    0.53197799124536693238E+00
    0.55657076764403135005E+00
    0.56593667038859107876E+00
    0.55232691061050953607E+00
    0.55863691516377478319E+00
    0.54679520397040104474E+00
    0.52078203349539498035E+00
    0.48780324221202631119E+00
    0.51978161158082303306E+00
    0.53101813163479805180E+00
    0.49399603817228082692E+00
    0.52843162316767522402E+00
    0.53382139919205562339E+00
    0.55413636559696477502E+00
    0.56478960256228072367E+00
    0.58070449247347677435E+00
    0.58327375576733231366E+00
    0.57127513405936136692E+00
    0.57139560335555295012E+00
    0.55972683986307925075E+00
    0.54246704347784968636E+00
    0.51198344357768077462E+00
    0.54874271037230348824E+00
    0.55824208374386730114E+00
    0.59469381300116930245E+00
    0.60021394151886753310E+00
    0.60194985559018909793E+00
    0.60473641894772955929E+00
    0.60552543142644454921E+00
    0.60753562958136042571E+00
    0.60669343130416020227E+00
    0.60473432152924677663E+00
    0.60311362966117987305E+00
    0.60141246103190360017E+00
    0.60030789107445081676E+00
    0.59558608887789932229E+00
    0.60241184159791072439E+00
    0.60383098931982315261E+00
    0.60589051748118039065E+00
    0.60798043790231826033E+00
    0.60833749049164587142E+00
    0.60918440933722517450E+00
    0.60984438180603872670E+00
    0.61048850255452002944E+00
    0.61048850098371021389E+00
    0.60984438155392306502E+00
    0.60918440894347436476E+00
    0.60833748605291537714E+00
    0.60798043598122808451E+00
    0.60589051980762975713E+00
    0.60890137765135921022E+00
    0.60944463401299175942E+00
    0.56187690153958202988E+00
    0.57825633668043741054E+00
    0.58438357765353665663E+00
    0.59153407071878894019E+00
    0.59381070602542052050E+00
    0.60013325201762146577E+00
    0.60013325246757542875E+00
    0.59381070563798932227E+00
    0.59153407009779868098E+00
    0.58438357307354271697E+00
    0.57825633573441093116E+00
    0.56187690407403045878E+00
    0.58462812014558152018E+00
    0.58916233704932208237E+00
    0.59558608405366819660E+00
    0.60030789134333339963E+00
    0.60141246439293227777E+00
    0.60311362902529208618E+00
    0.60473432154795092597E+00
    0.60669343523529839501E+00
    0.60753563162964874245E+00
    0.60552543202948361234E+00
    0.60473641714121451063E+00
    0.60194985015170854314E+00
    0.60021393892975116735E+00
    0.59469381309171576167E+00
    0.60241184040284090351E+00
    0.60383098855586081477E+00
    0.19577606945841818931E+00
    0.23927757926189188731E+00
    0.23420642728809648592E+00
    0.27829120711470184402E+00
    0.33337431775810755230E+00
    0.41490019315628179353E+00
    0.44647291347385315019E+00
    0.39377617382751456399E+00
    0.41826442136740021871E+00
    0.37681535954464701055E+00
    0.30239271943297618694E+00
    0.23418254567445856429E+00
    0.29758874334499224590E+00
    0.32617822724023642911E+00
    0.29698655079515101640E+00
    0.37040703673419650421E+00
    0.42675893985062918201E+00
    0.46958771696884993307E+00
    0.47167302018517104356E+00
    0.51897957918359205465E+00
    0.51897957636261449199E+00
    0.47167301170984432535E+00
    0.46958770692245738188E+00
    0.42675893363746592035E+00
    0.37040704003679814083E+00
    0.29698654524234946450E+00
    0.39608825752873078052E+00
    0.42606391439054253079E+00
    0.11159853663235409782E+00
    0.12803526320402533467E+00
    0.14719734346188967367E+00
    0.17044552217445196884E+00
    0.17039906707660623653E+00
    0.21099523958128418855E+00
    0.21099523514278314962E+00
    0.17039906421380718315E+00
    0.17044551782550343422E+00
    0.14719733711978522095E+00
    0.12803526169519557909E+00
    0.11159853683054402063E+00
    0.13633229841203214905E+00
    0.14870571557730630219E+00
    0.23418255664872519861E+00
    0.30239274032848839635E+00
    0.37681538897366412266E+00
    0.41826445945616902433E+00
    0.39377620646217015299E+00
    0.44647293660129150350E+00
    0.41490017979224524947E+00
    0.33337436036595935462E+00
    0.27829122270769440783E+00
    0.23420643371248531239E+00
    0.23927758621277406270E+00
    0.19577607716929723569E+00
    0.29758875416877378361E+00
    0.32617825223448382310E+00
    0.51198344490850666855E+00
    0.54246704712397930681E+00
    0.55972684749916312708E+00
    0.57139560674953637776E+00
    0.57127513670952401181E+00
    0.58327375594719665930E+00
    0.58070449271404345204E+00
    0.56478960234520492190E+00
    0.55413636416084599556E+00
    0.53382139615023571633E+00
    0.52843162629941475839E+00
    0.49399604899897331389E+00
    0.54874271286442988238E+00
    0.55824208558351795517E+00
    0.58274948975992868494E+00
    0.58995819270748584007E+00
    0.59294251023373656384E+00
    0.59494126374521072442E+00
    0.59638191841645249447E+00
    0.59910216964255424976E+00
    0.60007889791230084597E+00
    0.59621837473352778947E+00
    0.59355171119950767000E+00
    0.58787579719787053101E+00
    0.58684454339199920714E+00
    0.57800928711991717002E+00
    0.59190168088213213071E+00
    0.59420393275370642083E+00
    0.48780325399271651232E+00
    0.52078204297391861299E+00
    0.54679521524267349353E+00
    0.55863692181768254130E+00
    0.55232691768286412692E+00
    0.56593667415950654753E+00
    0.55657077126797582789E+00
    0.53197799610072182830E+00
    0.50567292351317572052E+00
    0.47604595939701543905E+00
    0.48643617707355085722E+00
    0.45180855177449613658E+00
    0.51978162236608593805E+00
    0.53101813983688961329E+00
    0.57644484539846474469E+00
    0.58379990865292441526E+00
    0.58855901330765214574E+00
    0.58989953381628257301E+00
    0.58977298039791647977E+00
    0.59187960574366837996E+00
    0.59187185191267677187E+00
    0.58687778951666491611E+00
    0.58114252013028666610E+00
    0.57368942616954798908E+00
    0.57615571598290327149E+00
    0.56744012780225905335E+00
    0.58385851657093645883E+00
    0.58629149578114114760E+00
    0.59187185124672758718E+00
    0.58687778956301794864E+00
    0.58114252343069794371E+00
    0.57368942838237935167E+00
    0.57615571657954589568E+00
    0.56744012757910289313E+00
    0.57644484719915434212E+00
    0.58379990829758476867E+00
    0.58855901225582341052E+00
    0.58989953383693638500E+00
    0.58977298109609266330E+00
    0.59187960620492230390E+00
    0.58629149625742893459E+00
    0.58385851668522281699E+00
    0.55657076523770365739E+00
    0.53197798548435659693E+00
    0.50567291243508927234E+00
    0.47604593596243910403E+00
    0.48643614873014739963E+00
    0.45180849938808992361E+00
    0.48780322785499530269E+00
    0.52078202575373400141E+00
    0.54679520473669496194E+00
    0.55863691704657281178E+00
    0.55232691141686862668E+00
    0.56593667259072300002E+00
    0.53101812741111320548E+00
    0.51978160553964680712E+00
    0.60007889611479769965E+00
    0.59621837503675034764E+00
    0.59355171569784181962E+00
    0.58787580173573594777E+00
    0.58684454597595081538E+00
    0.57800928962829534186E+00
    0.58274949303091572173E+00
    0.58995819325461418270E+00
    0.59294250965236960926E+00
    0.59494126426025284449E+00
    0.59638191917476490733E+00
    0.59910216850234809804E+00
    0.59420393380686697959E+00
    0.59190168194104830768E+00
    0.58070449136960289316E+00
    0.56478959981057408335E+00
    0.55413636487968020994E+00
    0.53382139469132283693E+00
    0.52843161887021616874E+00
    0.49399603088451266020E+00
    0.51198343562114767558E+00
    0.54246704023079972412E+00
    0.55972684224862034874E+00
    0.57139560586744364556E+00
    0.57127513569916799074E+00
    0.58327375775625656118E+00
    0.55824208213847259508E+00
    0.54874270760674315195E+00
    0.41490011925017067362E+00
    0.33337433351645034962E+00
    0.27829120585397915111E+00
    0.23420642276627007261E+00
    0.23927757150836226341E+00
    0.19577606521575380283E+00
    0.23418253625197207879E+00
    0.30239267809055869751E+00
    0.37681525400019860728E+00
    0.41826437591740150967E+00
    0.39377617095550443427E+00
    0.44647289842114945557E+00
    0.32617822400396501159E+00
    0.29758872933591640209E+00
    0.21099523296638061920E+00
    0.17039906373817564900E+00
    0.17044551826333548261E+00
    0.14719733832951223396E+00
    0.12803526214637483971E+00
    0.11159853757378686290E+00
    0.11159853633552027641E+00
    0.12803526103685541893E+00
    0.14719733702682932797E+00
    0.17044551330985191484E+00
    0.17039906202542806635E+00
    0.21099523218779525635E+00
    0.14870571429884404946E+00
    0.13633229733129045846E+00
    0.51897957191770915930E+00
    0.47167300941893353095E+00
    0.46958771760927264793E+00
    0.42675894361838512259E+00
    0.37040703296043786530E+00
    0.29698653895001214664E+00
    0.29698653427603355359E+00
    0.37040700942442855714E+00
    0.42675888018021290726E+00
    0.46958768467250416867E+00
    0.47167300377987042559E+00
    0.51897957390950388845E+00
    0.42606390220903600508E+00
    0.39608824331882142022E+00
    0.44647290852337107037E+00
    0.39377619523732437790E+00
    0.41826447230388241749E+00
    0.37681539882644188300E+00
    0.30239272994658611404E+00
    0.23418254398566967778E+00
    0.19577606911153702662E+00
    0.23927757707676297616E+00
    0.23420642512872841268E+00
    0.27829120401492551951E+00
    0.33337432104970826652E+00
    0.41490019840170327958E+00
    0.32617823126121542332E+00
    0.29758873888222769910E+00
    0.60753562857647114281E+00
    0.60552543137328618261E+00
    0.60473642010965067417E+00
    0.60194985429817304823E+00
    0.60021394186177223773E+00
    0.59469381720889302745E+00
    0.59558608832009707346E+00
    0.60030789199120870858E+00
    0.60141246318580998675E+00
    0.60311362907148380330E+00
    0.60473432186527165122E+00
    0.60669343331542591180E+00
    0.60383098930458412035E+00
    0.60241184142316550609E+00
    0.60013325072513623581E+00
    0.59381070426084003877E+00
    0.59153407172629635102E+00
    0.58438357556875830667E+00
    0.57825633665958109386E+00
    0.56187690514948873677E+00
    0.56187690217998520481E+00
    0.57825633548790855709E+00
    0.58438357652150718646E+00
    0.59153407235739408065E+00
    0.59381070705160310386E+00
    0.60013325395082384173E+00
    0.58916233675814166926E+00
    0.58462811961227745261E+00
    0.61048849928094750528E+00
    0.60984437930190948940E+00
    0.60918440729551215362E+00
    0.60833748613667792959E+00
    0.60798043640423182765E+00
    0.60589052116169017648E+00
    0.60589051921744696561E+00
    0.60798043618594999060E+00
    0.60833748765375539325E+00
    0.60918440765388026659E+00
    0.60984438070532820397E+00
    0.61048850140872157333E+00
    0.60944463235475354601E+00
    0.60890137598306215416E+00
    0.60669343071698489389E+00
    0.60473431869500493541E+00
    0.60311362695487535923E+00
    0.60141246024656425107E+00
    0.60030789040570597948E+00
    0.59558608910616794851E+00
    0.59469381333396198475E+00
    0.60021393882058871050E+00
    0.60194985326252981039E+00
    0.60473641867701477537E+00
    0.60552543196451935614E+00
    0.60753563039390889866E+00
    0.60383098715213545660E+00
    0.60241183894696126444E+00
    0.58327375306486317630E+00
    0.57127513508032579104E+00
    0.57139560819894796850E+00
    0.55972684545353001973E+00
    0.54246704756094976663E+00
    0.51198344969147702166E+00
    0.49399604779434574953E+00
    0.52843162452626912806E+00
    0.53382139587389165758E+00
    0.55413636503098162578E+00
    0.56478960289239288350E+00
    0.58070449250513522799E+00
    0.55824208498568028691E+00
    0.54874271194292989495E+00
    0.56593667053051832649E+00
    0.55232691480766404890E+00
    0.55863692153697230847E+00
    0.54679521083290449912E+00
    0.52078204213566325897E+00
    0.48780325447638911429E+00
    0.45180855164130467871E+00
    0.48643617038290687393E+00
    0.47604594687555468191E+00
    0.50567292125848184448E+00
    0.53197799533601264343E+00
    0.55657077075099392616E+00