# vtk DataFile Version 3.0
LAPLACIEN  2D
ASCII
DATASET UNSTRUCTURED_GRID
 POINTS         481  float
   6.2500000000000000E-002  0.87500000000000000        0.0000000000000000     
  0.12500000000000000       0.87500000000000000        0.0000000000000000     
  0.12500000000000000       0.93750000000000000        0.0000000000000000     
   3.7499999999999999E-002  0.91249999999999998        0.0000000000000000     
   8.1250000000000003E-002  0.91874999999999996        0.0000000000000000     
   8.7499999999999994E-002  0.96250000000000002        0.0000000000000000     
   4.3749999999999997E-002  0.95625000000000004        0.0000000000000000     
  0.18750000000000000       0.87500000000000000        0.0000000000000000     
  0.25000000000000000       0.87500000000000000        0.0000000000000000     
  0.25000000000000000       0.93750000000000000        0.0000000000000000     
  0.16250000000000001       0.91249999999999998        0.0000000000000000     
  0.20624999999999999       0.91874999999999996        0.0000000000000000     
  0.21249999999999999       0.96250000000000002        0.0000000000000000     
  0.16875000000000001       0.95625000000000004        0.0000000000000000     
   6.2500000000000000E-002  0.75000000000000000        0.0000000000000000     
  0.12500000000000000       0.75000000000000000        0.0000000000000000     
  0.12500000000000000       0.81250000000000000        0.0000000000000000     
   3.7499999999999999E-002  0.78749999999999998        0.0000000000000000     
   8.1250000000000003E-002  0.79374999999999996        0.0000000000000000     
   8.7499999999999994E-002  0.83750000000000002        0.0000000000000000     
   4.3749999999999997E-002  0.83125000000000004        0.0000000000000000     
  0.18750000000000000       0.75000000000000000        0.0000000000000000     
  0.25000000000000000       0.75000000000000000        0.0000000000000000     
  0.25000000000000000       0.81250000000000000        0.0000000000000000     
  0.16250000000000001       0.78749999999999998        0.0000000000000000     
  0.20624999999999999       0.79374999999999996        0.0000000000000000     
  0.21249999999999999       0.83750000000000002        0.0000000000000000     
  0.16875000000000001       0.83125000000000004        0.0000000000000000     
  0.31250000000000000       0.87500000000000000        0.0000000000000000     
  0.37500000000000000       0.87500000000000000        0.0000000000000000     
  0.37500000000000000       0.93750000000000000        0.0000000000000000     
  0.28749999999999998       0.91249999999999998        0.0000000000000000     
  0.33124999999999999       0.91874999999999996        0.0000000000000000     
  0.33750000000000002       0.96250000000000002        0.0000000000000000     
  0.29375000000000001       0.95625000000000004        0.0000000000000000     
  0.43750000000000000       0.87500000000000000        0.0000000000000000     
  0.50000000000000000       0.87500000000000000        0.0000000000000000     
  0.50000000000000000       0.93750000000000000        0.0000000000000000     
  0.41249999999999998       0.91249999999999998        0.0000000000000000     
  0.45624999999999999       0.91874999999999996        0.0000000000000000     
  0.46250000000000002       0.96250000000000002        0.0000000000000000     
  0.41875000000000001       0.95625000000000004        0.0000000000000000     
  0.31250000000000000       0.75000000000000000        0.0000000000000000     
  0.37500000000000000       0.75000000000000000        0.0000000000000000     
  0.37500000000000000       0.81250000000000000        0.0000000000000000     
  0.28749999999999998       0.78749999999999998        0.0000000000000000     
  0.33124999999999999       0.79374999999999996        0.0000000000000000     
  0.33750000000000002       0.83750000000000002        0.0000000000000000     
  0.29375000000000001       0.83125000000000004        0.0000000000000000     
  0.43750000000000000       0.75000000000000000        0.0000000000000000     
  0.50000000000000000       0.75000000000000000        0.0000000000000000     
  0.50000000000000000       0.81250000000000000        0.0000000000000000     
  0.41249999999999998       0.78749999999999998        0.0000000000000000     
  0.45624999999999999       0.79374999999999996        0.0000000000000000     
  0.46250000000000002       0.83750000000000002        0.0000000000000000     
  0.41875000000000001       0.83125000000000004        0.0000000000000000     
   6.2500000000000000E-002  0.62500000000000000        0.0000000000000000     
  0.12500000000000000       0.62500000000000000        0.0000000000000000     
  0.12500000000000000       0.68750000000000000        0.0000000000000000     
   3.7499999999999999E-002  0.66249999999999998        0.0000000000000000     
   8.1250000000000003E-002  0.66874999999999996        0.0000000000000000     
   8.7499999999999994E-002  0.71250000000000002        0.0000000000000000     
   4.3749999999999997E-002  0.70625000000000004        0.0000000000000000     
  0.18750000000000000       0.62500000000000000        0.0000000000000000     
  0.25000000000000000       0.62500000000000000        0.0000000000000000     
  0.25000000000000000       0.68750000000000000        0.0000000000000000     
  0.16250000000000001       0.66249999999999998        0.0000000000000000     
  0.20624999999999999       0.66874999999999996        0.0000000000000000     
  0.21249999999999999       0.71250000000000002        0.0000000000000000     
  0.16875000000000001       0.70625000000000004        0.0000000000000000     
   6.2500000000000000E-002  0.50000000000000000        0.0000000000000000     
  0.12500000000000000       0.50000000000000000        0.0000000000000000     
  0.12500000000000000       0.56250000000000000        0.0000000000000000     
   3.7499999999999999E-002  0.53749999999999998        0.0000000000000000     
   8.1250000000000003E-002  0.54374999999999996        0.0000000000000000     
   8.7499999999999994E-002  0.58750000000000002        0.0000000000000000     
   4.3749999999999997E-002  0.58125000000000004        0.0000000000000000     
  0.18750000000000000       0.50000000000000000        0.0000000000000000     
  0.25000000000000000       0.50000000000000000        0.0000000000000000     
  0.25000000000000000       0.56250000000000000        0.0000000000000000     
  0.16250000000000001       0.53749999999999998        0.0000000000000000     
  0.20624999999999999       0.54374999999999996        0.0000000000000000     
  0.21249999999999999       0.58750000000000002        0.0000000000000000     
  0.16875000000000001       0.58125000000000004        0.0000000000000000     
  0.31250000000000000       0.62500000000000000        0.0000000000000000     
  0.37500000000000000       0.62500000000000000        0.0000000000000000     
  0.37500000000000000       0.68750000000000000        0.0000000000000000     
  0.28749999999999998       0.66249999999999998        0.0000000000000000     
  0.33124999999999999       0.66874999999999996        0.0000000000000000     
  0.33750000000000002       0.71250000000000002        0.0000000000000000     
  0.29375000000000001       0.70625000000000004        0.0000000000000000     
  0.43750000000000000       0.62500000000000000        0.0000000000000000     
  0.50000000000000000       0.62500000000000000        0.0000000000000000     
  0.50000000000000000       0.68750000000000000        0.0000000000000000     
  0.41249999999999998       0.66249999999999998        0.0000000000000000     
  0.45624999999999999       0.66874999999999996        0.0000000000000000     
  0.46250000000000002       0.71250000000000002        0.0000000000000000     
  0.41875000000000001       0.70625000000000004        0.0000000000000000     
  0.31250000000000000       0.50000000000000000        0.0000000000000000     
  0.37500000000000000       0.50000000000000000        0.0000000000000000     
  0.37500000000000000       0.56250000000000000        0.0000000000000000     
  0.28749999999999998       0.53749999999999998        0.0000000000000000     
  0.33124999999999999       0.54374999999999996        0.0000000000000000     
  0.33750000000000002       0.58750000000000002        0.0000000000000000     
  0.29375000000000001       0.58125000000000004        0.0000000000000000     
  0.43750000000000000       0.50000000000000000        0.0000000000000000     
  0.50000000000000000       0.50000000000000000        0.0000000000000000     
  0.50000000000000000       0.56250000000000000        0.0000000000000000     
  0.41249999999999998       0.53749999999999998        0.0000000000000000     
  0.45624999999999999       0.54374999999999996        0.0000000000000000     
  0.46250000000000002       0.58750000000000002        0.0000000000000000     
  0.41875000000000001       0.58125000000000004        0.0000000000000000     
  0.56250000000000000       0.87500000000000000        0.0000000000000000     
  0.62500000000000000       0.87500000000000000        0.0000000000000000     
  0.62500000000000000       0.93750000000000000        0.0000000000000000     
  0.53749999999999998       0.91249999999999998        0.0000000000000000     
  0.58125000000000004       0.91874999999999996        0.0000000000000000     
  0.58750000000000002       0.96250000000000002        0.0000000000000000     
  0.54374999999999996       0.95625000000000004        0.0000000000000000     
  0.68750000000000000       0.87500000000000000        0.0000000000000000     
  0.75000000000000000       0.87500000000000000        0.0000000000000000     
  0.75000000000000000       0.93750000000000000        0.0000000000000000     
  0.66249999999999998       0.91249999999999998        0.0000000000000000     
  0.70625000000000004       0.91874999999999996        0.0000000000000000     
  0.71250000000000002       0.96250000000000002        0.0000000000000000     
[...]
 CELL_DATA         896
 SCALARS Nutrients float
 LOOKUP_TABLE default
    0.60766198791268433155E+00
    0.60763490450758161909E+00
    0.60576432774962130079E+00
    0.60576430995994690054E+00
    0.60763489659725156145E+00
    0.60766200807486059343E+00
    0.60881720971453789915E+00
    0.60943562950436369619E+00
    0.61015523233807600345E+00
    0.61015520716096005582E+00
    0.60943562028763331728E+00
    0.60881722790208503415E+00
    0.60880599204086061071E+00
    0.60880599120489331533E+00
    0.60071119977584053196E+00
    0.59974772305269463679E+00
    0.59480152803204822121E+00
    0.59538149520160632555E+00
    0.59976831189985813086E+00
    0.60028718582547258009E+00
    0.60255443575420775115E+00
    0.60402441521010497016E+00
    0.60618583157878724865E+00
    0.60682927371901240754E+00
    0.60488929692527015902E+00
    0.60456428294599184881E+00
    0.60260984202579637170E+00
    0.60248685600593232525E+00
    0.60028715834982548927E+00
    0.59976831458523083285E+00
    0.59538151459070309812E+00
    0.59480151418849847023E+00
    0.59974772042464774557E+00
    0.60071120478483130967E+00
    0.60456428249104687822E+00
    0.60488930201079049720E+00
    0.60682926740940823507E+00
    0.60618578308107873287E+00
    0.60402439300243415676E+00
    0.60255444335095320607E+00
    0.60248685251301581367E+00
    0.60260984012120866193E+00
    0.58191509713768196921E+00
    0.57748567528147531913E+00
    0.56232673560796719858E+00
    0.56232671926176269750E+00
    0.57748567339613232630E+00
    0.58191510551738578894E+00
    0.59157611543833199530E+00
    0.59246999824517265765E+00
    0.59881246275042121496E+00
    0.59881244252156373697E+00
    0.59246998971203956863E+00
    0.59157611712485935751E+00
    0.58586772535432873887E+00
    0.58586772527418395917E+00
    0.58519174282265884468E+00
    0.58593069805778352777E+00
    0.57856355740047782366E+00
    0.58194223620908092087E+00
    0.58915690647223939447E+00
    0.59156328046635398010E+00
    0.59413930408955328843E+00
    0.59531686134156214241E+00
    0.59823074359923067433E+00
    0.59892200238874404583E+00
    0.59508789079569879288E+00
    0.59321378031071170245E+00
    0.59184866609690922612E+00
    0.59235236415080272376E+00
    0.56932782467839782026E+00
    0.57462477308932546904E+00
    0.56827073648651638127E+00
    0.57493808788719358294E+00
    0.58290334894408324384E+00
    0.58741252290268120007E+00
    0.58900203070729983956E+00
    0.58857858116567163265E+00
    0.59066683041289924638E+00
    0.59050538056415813326E+00
    0.58524132819056617905E+00
    0.58012352427862312609E+00
    0.58294954985607672082E+00
    0.58464233810219601306E+00
    0.52609909559835921211E+00
    0.52642872605772494943E+00
    0.49717919308345664975E+00
    0.51007750841141763498E+00
    0.54097752334787885253E+00
    0.55629863222175468529E+00
    0.57184051178062356158E+00
    0.56890336760051818388E+00
    0.58033049757197330276E+00
    0.57815261783947402563E+00
    0.56174652546229142391E+00
    0.55427989175455005810E+00
    0.54974888718424885781E+00
    0.55291372286385853663E+00
    0.46019505075178607223E+00
    0.48096373678681780817E+00
    0.45464237684728153743E+00
    0.48211452129467652350E+00
    0.51853035319329099373E+00
    0.54373675203440396952E+00
    0.55929537884055535724E+00
    0.54932643280223858451E+00
    0.56104736826953693907E+00
    0.55320250759897426907E+00
    0.52655611441980365584E+00
    0.50294618675182811707E+00
    0.51708585298147813347E+00
    0.52588201934060574416E+00
    0.59156325840394474724E+00
    0.58915691193546915194E+00
    0.58194225772221441773E+00
    0.57856354470710746885E+00
    0.58593069442810696845E+00
    0.58519174384106686926E+00
    0.59321377947683495702E+00
    0.59508789449677634842E+00
    0.59892199177503047114E+00
    0.59823069328613931450E+00
    0.59531684156201025715E+00
    0.59413931717562662449E+00
    0.59235236194612084226E+00
    0.59184866434944316538E+00
    0.55629862612504576980E+00
    0.54097752915093233472E+00
    0.51007753442426106982E+00
    0.49717918538437816389E+00
    0.52642872451421729441E+00
    0.52609909875328408901E+00
    0.55427988919198922790E+00
    0.56174653182190092959E+00
    0.57815263148653506242E+00
    0.58033047035247520284E+00
    0.56890335905993572041E+00
    0.57184051558123605297E+00
    0.55291372419000506255E+00
    0.54974888745995242889E+00
    0.58741251887714207580E+00
    0.58290336435447120955E+00
    0.57493811708048991882E+00
    0.56827073117340420882E+00
    0.57462477441095027864E+00
    0.56932782866542397393E+00
    0.58012352604294203928E+00
    0.58524133664675148658E+00
    0.59050537652410983736E+00
    0.59066678778881587242E+00
    0.58857856895103954908E+00
    0.58900205513232950505E+00
    0.58464234265545600433E+00
    0.58294955373781243146E+00
    0.54373676382410884855E+00
    0.51853037791576928051E+00
    0.48211457756659253926E+00
    0.45464242427143219949E+00
    0.48096375571131455562E+00
    0.46019505425343643079E+00
    0.50294618822839265437E+00
    0.52655612660431261318E+00
    0.55320252446136619628E+00
    0.56104734378378728898E+00
    0.54932643132033098787E+00
    0.55929539218084878271E+00
    0.52588203217465578909E+00
    0.51708586459279581860E+00
    0.41529631539708222743E+00
    0.36806169857995763017E+00
    0.29878714789114974026E+00
    0.29878712546548802376E+00
    0.36806162285668392320E+00
    0.41529627507741367909E+00
    0.47229944966146464314E+00
    0.46394766596225156530E+00
    0.51066926191954109537E+00
    0.51066923620995030575E+00
    0.46394765833851253634E+00
    0.47229947511392783577E+00
    0.40684743012373064674E+00
    0.40684742162590326053E+00
    0.22631248031960171652E+00
    0.24057244312010617193E+00
    0.20799913779843073880E+00
    0.23845832755410695247E+00
    0.30327370124119523709E+00
    0.36609887539353441754E+00
    0.41962086437291562513E+00
    0.38335343386723230719E+00
    0.42900664493064200045E+00
    0.40423353895027308580E+00
    0.32583077095204210361E+00
    0.28142932879303844684E+00
    0.29955411519634794759E+00
    0.31761186077041148046E+00
    0.36609907493117682664E+00
    0.30327393133549584991E+00
    0.23845883106075824176E+00
    0.20799940328225988151E+00
    0.24057256184569550395E+00
    0.22631251235800539656E+00
    0.28142933744431725129E+00
    0.32583079097002476399E+00
    0.40423368645987151071E+00
    0.42900659253742678967E+00
    0.38335350506694348960E+00
    0.41962100986270062242E+00
    0.31761196652953138653E+00
    0.29955419315961667737E+00
    0.15264479303937861232E+00
    0.13470964482698405407E+00
    0.11720617351743181644E+00
    0.11720615125636334175E+00
    0.13470959555737832547E+00
    0.15264466752493402457E+00
    0.18297983535348466555E+00
    0.17292706939640187236E+00
    0.20441564994810074163E+00
    0.20441565102687861422E+00
    0.17292713373406876087E+00
    0.18298003084900693604E+00
    0.14742714393050501687E+00
    0.14742712637388608043E+00
    0.56551445481221906952E+00
    0.57462589807392261410E+00
    0.57214006656968618980E+00
    0.57988005387518548606E+00
    0.58578129638267362189E+00
    0.59095540918771194416E+00
    0.59094182049384946787E+00
    0.58874176063766281430E+00
    0.58885517071284954049E+00
    0.58745881516761733199E+00
    0.58252392984884726612E+00
    0.57487084501895280297E+00
    0.58260842819204783360E+00
    0.58514002639351225810E+00
    0.57676556037868398352E+00
    0.58588637635090135003E+00
    0.58700426591057797143E+00
    0.59282895322184991915E+00
    0.59553771464989124773E+00
    0.59950662628572515267E+00
    0.59848344784635487681E+00
    0.59566548912528249904E+00
    0.59415274765275460922E+00
    0.59207796796052281074E+00
    0.58902397319910948514E+00
    0.58157732609244594535E+00
    0.59106318129601476130E+00
    0.59343755188559521585E+00
    0.44425583983768607288E+00
    0.48117264860041936148E+00
    0.47113866720924840736E+00
    0.50206827860620284465E+00
    0.52904346828132053915E+00
    0.55456575067228564002E+00
    0.56412320903017321161E+00
    0.54988407534209315930E+00
    0.55634381617668215991E+00
    0.54393920095865144759E+00
    0.51674647970360165772E+00
    0.48200060922832188570E+00
    0.51593468399001951585E+00
    0.52774245333766345301E+00
    0.49107431939097306861E+00
    0.52634478926577699109E+00
    0.53206991594372066157E+00
    0.55272688076177989291E+00
    0.56349315377496766999E+00
    0.57973907186306505857E+00
    0.58230594993566764384E+00
    0.56997553063873729329E+00
    0.56997704879993893456E+00
    0.55791918689571462497E+00
    0.54031411634101045305E+00
    0.50889459830291428055E+00
    0.54696013655340625093E+00
    0.55669883699249012032E+00
    0.59404514700706223529E+00
    0.59969828253952028874E+00
    0.60148532550456434986E+00
    0.60433949711177759045E+00
    0.60514238549915411181E+00
    0.60720632654883377466E+00
    0.60633561657772860887E+00
    0.60431737294033704977E+00
    0.60264046379213631610E+00
    0.60088698627940317909E+00
    0.59976937263492513530E+00
    0.59492853222961572524E+00
    0.60194052438460698973E+00
    0.60339676354954074888E+00
    0.60552346859684602620E+00
    0.60766794737966522977E+00
    0.60803222275385349072E+00
    0.60890369065625971068E+00
    0.60958376965090188548E+00
    0.61024699972050033825E+00
    0.61024697733381028097E+00
    0.60958377433667243483E+00
    0.60890369795121312979E+00
    0.60803219881514114498E+00
    0.60766793272888952604E+00
    0.60552346472183316006E+00
    0.60861461652831272406E+00
    0.60917303987911730623E+00
    0.56061505435958569610E+00
    0.57729673864488662005E+00
    0.58351662629292111450E+00
    0.59082333509777984482E+00
    0.59316413224470720955E+00
    0.59962849591160383156E+00
    0.59962848654453237973E+00
    0.59316413106097454211E+00
    0.59082334220151166981E+00
    0.58351659942615030641E+00
    0.57729673056112629226E+00
    0.56061505500484964948E+00
    0.58379842692888472833E+00
    0.58842386254387335498E+00
    0.59492854888160950910E+00
    0.59976940095845188150E+00
    0.60088702285601935937E+00
    0.60264047459143410546E+00
    0.60431739498476566563E+00
    0.60633567902706941855E+00
    0.60720633406053814429E+00
    0.60514240887300962957E+00
    0.60433952188149842044E+00
    0.60148531282666684028E+00
    0.59969828957717574713E+00
    0.59404516087224867871E+00
    0.60194054367305449560E+00
    0.60339678387753281630E+00
    0.20028790365477905366E+00
    0.24141591473269999324E+00
    0.23561582350606527503E+00
    0.27799770158136394294E+00
    0.33190781245814948708E+00
    0.41033359351945392079E+00
    0.44070092469159588555E+00
    0.38585809568003087699E+00
    0.40913877385479624493E+00
    0.36683773524766449814E+00
    0.30056826736591696347E+00
    0.23931783362487032973E+00
    0.29832119018884772910E+00
    0.32417308214926121579E+00
    0.29616122591352994631E+00
    0.36894199462933707778E+00
    0.42266837823411534947E+00
    0.46636944215964143412E+00
    0.46921852691331977780E+00
    0.51706927581662898152E+00
    0.51706927067537078457E+00
    0.46921854699648352094E+00
    0.46636948453068044484E+00
    0.42266834590594892784E+00
    0.36894201787531366588E+00
    0.29616124128961174300E+00
    0.39460495372015852444E+00
    0.42454282365745565908E+00
    0.11723270426728422955E+00
    0.13370499096542712292E+00
    0.15267691142417827432E+00
    0.17539633789740444181E+00
    0.17476452949997045572E+00
    0.21329370044933637640E+00
    0.21329367552308270417E+00
    0.17476451284366695260E+00
    0.17539631361553542632E+00
    0.15267686706167293842E+00
    0.13370497346806453631E+00
    0.11723269754764246986E+00
    0.14181427590941814154E+00
    0.15381014114736971110E+00
    0.23931787000837409507E+00
    0.30056872986566701700E+00
    0.36683798313157739424E+00
    0.40913863452079751726E+00
    0.38585778281597754580E+00
    0.44070084756752964106E+00
    0.41033345316760855281E+00
    0.33190766071501620615E+00
    0.27799768536350660808E+00
    0.23561584699268783849E+00
    0.24141609694988488966E+00
    0.20028795828278223023E+00
    0.29832142178488807449E+00
    0.32417279990264569189E+00
    0.50889458903065676321E+00
    0.54031412481735952014E+00
    0.55791921665731669666E+00
    0.56997704357102785266E+00
    0.56997553481038298884E+00
    0.58230596796228761836E+00
    0.57973907440577210348E+00
    0.56349316157885454004E+00
    0.55272689874093750007E+00
    0.53206989435517260123E+00
    0.52634478229951509043E+00
    0.49107431179208177463E+00
    0.54696013986359426351E+00
    0.55669884170830374881E+00
    0.58157734814906303367E+00
    0.58902400637699170449E+00
    0.59207800885547168246E+00
    0.59415276280017104149E+00
    0.59566551685042101738E+00
    0.59848351795671450581E+00
    0.59950664400806763510E+00
    0.59553774639803047641E+00
    0.59282898812820084000E+00
    0.58700426141264583357E+00
    0.58588638902507594874E+00
    0.57676557791392502050E+00
    0.59106320609663476340E+00
    0.59343757823620746361E+00
    0.48200062196641607626E+00
    0.51674649612494250039E+00
    0.54393923821422751619E+00
    0.55634381725112536099E+00
    0.54988408291406087880E+00
    0.56412323240303607896E+00
    0.55456575559373388895E+00
    0.52904347288554276485E+00
    0.50206828119595081628E+00
    0.47113859033532135001E+00
    0.48117261244867376435E+00
    0.44425579160117284472E+00
    0.51593468287110932913E+00
    0.52774245630196969792E+00
    0.57487087826633120891E+00
    0.58252397084668439131E+00
    0.58745885737054714948E+00
    0.58885518754758614524E+00
    0.58874179278859095632E+00
    0.59094189372370242719E+00
    0.59095543143572693001E+00
    0.58578133845133217861E+00
    0.57988009550025365613E+00
    0.57214006863640010092E+00
    0.57462591929210449226E+00
    0.56551448020536465577E+00
    0.58260846268492394451E+00
    0.58514006322616796130E+00
    0.59095540694476877963E+00
    0.58578131729304794284E+00
    0.57988007486519654865E+00
    0.57214005803199763367E+00
    0.57462590334392615876E+00
    0.56551446554654816179E+00
    0.57487085448000363463E+00
    0.58252394926157835542E+00
    0.58745882910188929049E+00
    0.58885514152850237934E+00
    0.58874175748679669073E+00
    0.59094184937342120190E+00
    0.58514004139516551106E+00
    0.58260844087298402361E+00
    0.55456575522009288193E+00
    0.52904347636168813640E+00
    0.50206829329497504322E+00
    0.47113863832728614112E+00
    0.48117263228103812622E+00
    0.44425581387126228394E+00
    0.48200062114163544358E+00
    0.51674649714585041416E+00
    0.54393923327856164018E+00
    0.55634379943251799361E+00
    0.54988407300552821777E+00
    0.56412321894530692568E+00
    0.52774245813958864382E+00
    0.51593468554998034303E+00
    0.59950662076392546851E+00
    0.59553772745503175123E+00
    0.59282897121911237726E+00
    0.58700425425468338858E+00
    0.58588637571536206217E+00
    0.57676556504119924629E+00
    0.58157732473730117118E+00
    0.58902398555752932818E+00
    0.59207798127351074502E+00
    0.59415271805917957426E+00
    0.59566548291242438218E+00
    0.59848347377172284034E+00
    0.59343755809924780831E+00
    0.59106318588411765891E+00
    0.57973907602110608117E+00
    0.56349316212596456399E+00
    0.55272689762385363021E+00
    0.53206990784732766109E+00
    0.52634479571555370381E+00
    0.49107434739540506419E+00
    0.50889459500096212441E+00
    0.54031412689923019599E+00
    0.55791921278814837759E+00
    0.56997702759130908223E+00
    0.56997552660154726656E+00
    0.58230595757986558514E+00
    0.55669884280284409606E+00
    0.54696014121589497936E+00
    0.41033364625148993632E+00
    0.33190787119533898819E+00
    0.27799776877822740540E+00
    0.23561590153640599166E+00
    0.24141610914379293962E+00
    0.20028818480658269752E+00
    0.23931832663455826493E+00
    0.30056839782812055928E+00
    0.36683803324094621523E+00
    0.40913865836408452870E+00
    0.38585795904587683047E+00
    0.44070093162783058327E+00
    0.32417306024445358137E+00
    0.29832128744153585398E+00
    0.21329370234050551436E+00
    0.17476452270598150096E+00
    0.17539628743800553257E+00
    0.15267685794203550431E+00
    0.13370497647356011095E+00
    0.11723269681371299711E+00
    0.11723270693448248347E+00
    0.13370502916648163705E+00
    0.15267701499949976052E+00
    0.17539648769469187717E+00
    0.17476459904049645999E+00
    0.21329374606586221086E+00
    0.15381016998216270886E+00
    0.14181429660296515638E+00
    0.51706929188081596216E+00
    0.46921856321943594681E+00
    0.46636947010708790229E+00
    0.42266833818395965761E+00
    0.36894202176194823561E+00
    0.29616125465388132287E+00
    0.29616128818115317056E+00
    0.36894209887006673698E+00
    0.42266853016617372818E+00
    0.46636949816580680617E+00
    0.46921856238204540102E+00
    0.51706928989013889453E+00
    0.42454285759429100100E+00
    0.39460499285707312245E+00
    0.44070091146113915537E+00
    0.38585797380997760575E+00
    0.40913865996339676689E+00
    0.36683772476446957489E+00
    0.30056839341198232640E+00
    0.23931759388318407655E+00
    0.20028783787008863637E+00
    0.24141591699956047035E+00
    0.23561584092389206702E+00
    0.27799769235250976207E+00
    0.33190772614750613245E+00
    0.41033355900642309866E+00
    0.32417296448359350647E+00
    0.29832114442303331314E+00
    0.60720632149696152080E+00
    0.60514239993102991733E+00
    0.60433951877975600198E+00
    0.60148531769403079661E+00
    0.59969828413423775793E+00
    0.59404515378733624420E+00
    0.59492852985862976212E+00
    0.59976938441395999391E+00
    0.60088699769506459525E+00
    0.60264043323619698178E+00
    0.60431736680698022735E+00
    0.60633564272017048680E+00
    0.60339677060526386576E+00
    0.60194052981779622158E+00
    0.59962850545465662400E+00
    0.59316414330816435996E+00
    0.59082335391510010236E+00
    0.58351661565442158874E+00
    0.57729673797697256266E+00
    0.56061505889636853439E+00
    0.56061504900695757758E+00
    0.57729674003063069510E+00
    0.58351662537235049477E+00
    0.59082332479682864168E+00
    0.59316413239230547649E+00
    0.59962849878366342171E+00
    0.58842386967985316204E+00
    0.58379843072662052084E+00
    0.61024698614093453308E+00
    0.60958379434006970676E+00
    0.60890373845378598094E+00
    0.60803222952879532048E+00
    0.60766795757417546575E+00
    0.60552348262045163629E+00
    0.60552346705065984711E+00
    0.60766794756163222679E+00
    0.60803221037658616854E+00
    0.60890366574278831369E+00
    0.60958376733009866921E+00
    0.61024700141191512426E+00
    0.60917305176827352131E+00
    0.60861462714092862125E+00
    0.60633566956420625882E+00
    0.60431742200124727304E+00
    0.60264052170750015414E+00
    0.60088702958767070683E+00
    0.59976941257306148891E+00
    0.59492856194084631216E+00
    0.59404516124521256071E+00
    0.59969830698519355217E+00
    0.60148534501611627956E+00
    0.60433951215838010995E+00
    0.60514242153043529271E+00
    0.60720635844976977857E+00
    0.60339680380700755347E+00
    0.60194055884703245862E+00
    0.58230597513307624791E+00
    0.56997554466375910387E+00
    0.56997706018963611996E+00
    0.55791920257348104339E+00
    0.54031412338455264699E+00
    0.50889459702900641247E+00
    0.49107430629858905835E+00
    0.52634479454263238818E+00
    0.53206992856003654246E+00
    0.55272688088391275230E+00
    0.56349316140316252355E+00
    0.57973908389438633115E+00
    0.55669884799332081116E+00
    0.54696014329408038090E+00
    0.56412323222711502346E+00
    0.54988408468785365812E+00
    0.55634382378605340413E+00
    0.54393921163371883321E+00
    0.51674647365297343704E+00
    0.48200058680070306805E+00
    0.44425575313330456506E+00
    0.48117261781626247119E+00
    0.47113865477928396075E+00
    0.50206826704517892868E+00
    0.52904346916814615209E+00
    0.55456576100726873157E+00