# vtk DataFile Version 3.0
LAPLACIEN  2D
ASCII
DATASET UNSTRUCTURED_GRID
 POINTS         481  float
   6.2500000000000000E-002  0.87500000000000000        0.0000000000000000     
  0.12500000000000000       0.87500000000000000        0.0000000000000000     
  0.12500000000000000       0.93750000000000000        0.0000000000000000     
   3.7499999999999999E-002  0.91249999999999998        0.0000000000000000     
   8.1250000000000003E-002  0.91874999999999996        0.0000000000000000     
   8.7499999999999994E-002  0.96250000000000002        0.0000000000000000     
   4.3749999999999997E-002  0.95625000000000004        0.0000000000000000     
  0.18750000000000000       0.87500000000000000        0.0000000000000000     
  0.25000000000000000       0.87500000000000000        0.0000000000000000     
  0.25000000000000000       0.93750000000000000        0.0000000000000000     
  0.16250000000000001       0.91249999999999998        0.0000000000000000     
  0.20624999999999999       0.91874999999999996        0.0000000000000000     
  0.21249999999999999       0.96250000000000002        0.0000000000000000     
  0.16875000000000001       0.95625000000000004        0.0000000000000000     
   6.2500000000000000E-002  0.75000000000000000        0.0000000000000000     
  0.12500000000000000       0.75000000000000000        0.0000000000000000     
  0.12500000000000000       0.81250000000000000        0.0000000000000000     
   3.7499999999999999E-002  0.78749999999999998        0.0000000000000000     
   8.1250000000000003E-002  0.79374999999999996        0.0000000000000000     
   8.7499999999999994E-002  0.83750000000000002        0.0000000000000000     
   4.3749999999999997E-002  0.83125000000000004        0.0000000000000000     
  0.18750000000000000       0.75000000000000000        0.0000000000000000     
  0.25000000000000000       0.75000000000000000        0.0000000000000000     
  0.25000000000000000       0.81250000000000000        0.0000000000000000     
  0.16250000000000001       0.78749999999999998        0.0000000000000000     
  0.20624999999999999       0.79374999999999996        0.0000000000000000     
  0.21249999999999999       0.83750000000000002        0.0000000000000000     
  0.16875000000000001       0.83125000000000004        0.0000000000000000     
  0.31250000000000000       0.87500000000000000        0.0000000000000000     
  0.37500000000000000       0.87500000000000000        0.0000000000000000     
  0.37500000000000000       0.93750000000000000        0.0000000000000000     
  0.28749999999999998       0.91249999999999998        0.0000000000000000     
  0.33124999999999999       0.91874999999999996        0.0000000000000000     
  0.33750000000000002       0.96250000000000002        0.0000000000000000     
  0.29375000000000001       0.95625000000000004        0.0000000000000000     
  0.43750000000000000       0.87500000000000000        0.0000000000000000     
  0.50000000000000000       0.87500000000000000        0.0000000000000000     
  0.50000000000000000       0.93750000000000000        0.0000000000000000     
  0.41249999999999998       0.91249999999999998        0.0000000000000000     
  0.45624999999999999       0.91874999999999996        0.0000000000000000     
  0.46250000000000002       0.96250000000000002        0.0000000000000000     
  0.41875000000000001       0.95625000000000004        0.0000000000000000     
  0.31250000000000000       0.75000000000000000        0.0000000000000000     
  0.37500000000000000       0.75000000000000000        0.0000000000000000     
  0.37500000000000000       0.81250000000000000        0.0000000000000000     
  0.28749999999999998       0.78749999999999998        0.0000000000000000     
  0.33124999999999999       0.79374999999999996        0.0000000000000000     
  0.33750000000000002       0.83750000000000002        0.0000000000000000     
  0.29375000000000001       0.83125000000000004        0.0000000000000000     
  0.43750000000000000       0.75000000000000000        0.0000000000000000     
  0.50000000000000000       0.75000000000000000        0.0000000000000000     
  0.50000000000000000       0.81250000000000000        0.0000000000000000     
  0.41249999999999998       0.78749999999999998        0.0000000000000000     
  0.45624999999999999       0.79374999999999996        0.0000000000000000     
  0.46250000000000002       0.83750000000000002        0.0000000000000000     
  0.41875000000000001       0.83125000000000004        0.0000000000000000     
   6.2500000000000000E-002  0.62500000000000000        0.0000000000000000     
  0.12500000000000000       0.62500000000000000        0.0000000000000000     
  0.12500000000000000       0.68750000000000000        0.0000000000000000     
   3.7499999999999999E-002  0.66249999999999998        0.0000000000000000     
   8.1250000000000003E-002  0.66874999999999996        0.0000000000000000     
   8.7499999999999994E-002  0.71250000000000002        0.0000000000000000     
   4.3749999999999997E-002  0.70625000000000004        0.0000000000000000     
  0.18750000000000000       0.62500000000000000        0.0000000000000000     
  0.25000000000000000       0.62500000000000000        0.0000000000000000     
  0.25000000000000000       0.68750000000000000        0.0000000000000000     
  0.16250000000000001       0.66249999999999998        0.0000000000000000     
  0.20624999999999999       0.66874999999999996        0.0000000000000000     
  0.21249999999999999       0.71250000000000002        0.0000000000000000     
  0.16875000000000001       0.70625000000000004        0.0000000000000000     
   6.2500000000000000E-002  0.50000000000000000        0.0000000000000000     
  0.12500000000000000       0.50000000000000000        0.0000000000000000     
  0.12500000000000000       0.56250000000000000        0.0000000000000000     
   3.7499999999999999E-002  0.53749999999999998        0.0000000000000000     
   8.1250000000000003E-002  0.54374999999999996        0.0000000000000000     
   8.7499999999999994E-002  0.58750000000000002        0.0000000000000000     
   4.3749999999999997E-002  0.58125000000000004        0.0000000000000000     
  0.18750000000000000       0.50000000000000000        0.0000000000000000     
  0.25000000000000000       0.50000000000000000        0.0000000000000000     
  0.25000000000000000       0.56250000000000000        0.0000000000000000     
  0.16250000000000001       0.53749999999999998        0.0000000000000000     
  0.20624999999999999       0.54374999999999996        0.0000000000000000     
  0.21249999999999999       0.58750000000000002        0.0000000000000000     
  0.16875000000000001       0.58125000000000004        0.0000000000000000     
  0.31250000000000000       0.62500000000000000        0.0000000000000000     
  0.37500000000000000       0.62500000000000000        0.0000000000000000     
  0.37500000000000000       0.68750000000000000        0.0000000000000000     
  0.28749999999999998       0.66249999999999998        0.0000000000000000     
  0.33124999999999999       0.66874999999999996        0.0000000000000000     
  0.33750000000000002       0.71250000000000002        0.0000000000000000     
  0.29375000000000001       0.70625000000000004        0.0000000000000000     
  0.43750000000000000       0.62500000000000000        0.0000000000000000     
  0.50000000000000000       0.62500000000000000        0.0000000000000000     
  0.50000000000000000       0.68750000000000000        0.0000000000000000     
  0.41249999999999998       0.66249999999999998        0.0000000000000000     
  0.45624999999999999       0.66874999999999996        0.0000000000000000     
  0.46250000000000002       0.71250000000000002        0.0000000000000000     
  0.41875000000000001       0.70625000000000004        0.0000000000000000     
  0.31250000000000000       0.50000000000000000        0.0000000000000000     
  0.37500000000000000       0.50000000000000000        0.0000000000000000     
  0.37500000000000000       0.56250000000000000        0.0000000000000000     
  0.28749999999999998       0.53749999999999998        0.0000000000000000     
  0.33124999999999999       0.54374999999999996        0.0000000000000000     
  0.33750000000000002       0.58750000000000002        0.0000000000000000     
  0.29375000000000001       0.58125000000000004        0.0000000000000000     
  0.43750000000000000       0.50000000000000000        0.0000000000000000     
  0.50000000000000000       0.50000000000000000        0.0000000000000000     
  0.50000000000000000       0.56250000000000000        0.0000000000000000     
  0.41249999999999998       0.53749999999999998        0.0000000000000000     
  0.45624999999999999       0.54374999999999996        0.0000000000000000     
  0.46250000000000002       0.58750000000000002        0.0000000000000000     
  0.41875000000000001       0.58125000000000004        0.0000000000000000     
  0.56250000000000000       0.87500000000000000        0.0000000000000000     
  0.62500000000000000       0.87500000000000000        0.0000000000000000     
  0.62500000000000000       0.93750000000000000        0.0000000000000000     
  0.53749999999999998       0.91249999999999998        0.0000000000000000     
  0.58125000000000004       0.91874999999999996        0.0000000000000000     
  0.58750000000000002       0.96250000000000002        0.0000000000000000     
  0.54374999999999996       0.95625000000000004        0.0000000000000000     
  0.68750000000000000       0.87500000000000000        0.0000000000000000     
  0.75000000000000000       0.87500000000000000        0.0000000000000000     
  0.75000000000000000       0.93750000000000000        0.0000000000000000     
  0.66249999999999998       0.91249999999999998        0.0000000000000000     
  0.70625000000000004       0.91874999999999996        0.0000000000000000     
  0.71250000000000002       0.96250000000000002        0.0000000000000000     
[...]
 CELL_DATA         896
 SCALARS Nutrients float
 LOOKUP_TABLE default
    0.60796263680463202839E+00
    0.60793361015103541956E+00
    0.60610914711624308548E+00
    0.60610914154966188949E+00
    0.60793360829578890758E+00
    0.60796264377748976404E+00
    0.60908648595830772177E+00
    0.60968726837662945428E+00
    0.61038714116840131485E+00
    0.61038713250022302859E+00
    0.60968726662674432859E+00
    0.60908649334147990650E+00
    0.60907398973973081446E+00
    0.60907398902909015703E+00
    0.60117591139417758672E+00
    0.60024358373171937675E+00
    0.59541776737522766894E+00
    0.59600160118045641955E+00
    0.60028468054348171901E+00
    0.60080602930446935783E+00
    0.60300732320055350222E+00
    0.60442936635876998164E+00
    0.60652973669860232864E+00
    0.60715308776848486705E+00
    0.60526098379862458554E+00
    0.60493869387105525526E+00
    0.60304226926029291800E+00
    0.60292712968743245039E+00
    0.60080602131739324623E+00
    0.60028468190910144742E+00
    0.59600160673917312870E+00
    0.59541776332574236630E+00
    0.60024358645864828166E+00
    0.60117591871380471336E+00
    0.60493869146901380063E+00
    0.60526098511478965136E+00
    0.60715308949277146944E+00
    0.60652972493873213988E+00
    0.60442936332374797015E+00
    0.60300732953684099691E+00
    0.60292713027847300022E+00
    0.60304226935811267030E+00
    0.58281342736886498912E+00
    0.57844324818294778900E+00
    0.56357617239399115938E+00
    0.56357616817749378590E+00
    0.57844325045395195151E+00
    0.58281343355801917827E+00
    0.59225799579003401973E+00
    0.59311697568652710366E+00
    0.59931856657116278075E+00
    0.59931856215441514646E+00
    0.59311697772113092242E+00
    0.59225799996431860439E+00
    0.58664948268816607957E+00
    0.58664948189991317218E+00
    0.58607897821089582902E+00
    0.58685119759829773578E+00
    0.57972288768788271529E+00
    0.58304363113203239166E+00
    0.59004246556857598005E+00
    0.59239870568699026787E+00
    0.59488484756480308757E+00
    0.59600795264322847800E+00
    0.59882436250057613503E+00
    0.59948516890776981647E+00
    0.59575065800542670313E+00
    0.59389825129953421889E+00
    0.59261910115061910975E+00
    0.59312185436174558184E+00
    0.57089576164091349053E+00
    0.57606034794100491325E+00
    0.56996954692484769200E+00
    0.57639419338952302407E+00
    0.58407549131487412897E+00
    0.58842977326499756874E+00
    0.58996422890524324867E+00
    0.58954690116542629585E+00
    0.59155350234523196296E+00
    0.59138579527381018863E+00
    0.58629274539184206283E+00
    0.58131020261579424702E+00
    0.58410033993947574338E+00
    0.58574274749507604376E+00
    0.52801850763718427562E+00
    0.52857782103074557600E+00
    0.50014468279921231453E+00
    0.51307022494349130426E+00
    0.54310743478971534870E+00
    0.55813971568359677100E+00
    0.57317804200497857181E+00
    0.57022148854659349126E+00
    0.58132200162944436261E+00
    0.57915200634792041168E+00
    0.56309228785061271605E+00
    0.55569121511851460316E+00
    0.55143889438657478497E+00
    0.55459684500346873026E+00
    0.46536414218048366420E+00
    0.48600968812001510422E+00
    0.46137608002270347196E+00
    0.48754798947351668525E+00
    0.52227303510952582943E+00
    0.54641067510171004162E+00
    0.56133452485887325167E+00
    0.55169098312305453469E+00
    0.56288586824114306140E+00
    0.55522128004558046754E+00
    0.52951065667758434596E+00
    0.50641312306926444808E+00
    0.52064798974810588827E+00
    0.52916796410072097778E+00
    0.59239869968283787038E+00
    0.59004246736011178864E+00
    0.58304363657773117247E+00
    0.57972288260865112441E+00
    0.58685119928223961061E+00
    0.58607898557631799008E+00
    0.59389824863330631377E+00
    0.59575065857525522084E+00
    0.59948516946366869895E+00
    0.59882434960215102926E+00
    0.59600794949916247045E+00
    0.59488485494545118026E+00
    0.59312185461514888019E+00
    0.59261910060348343965E+00
    0.55813970708357107942E+00
    0.54310742866176431320E+00
    0.51307022246659572673E+00
    0.50014466573652305303E+00
    0.52857781840450457356E+00
    0.52801851418645084912E+00
    0.55569121068617544079E+00
    0.56309228511540165840E+00
    0.57915201229521784398E+00
    0.58132199827723074481E+00
    0.57022148905403990948E+00
    0.57317804450273379668E+00
    0.55459684303874778877E+00
    0.55143889077947205735E+00
    0.58842976902319044097E+00
    0.58407549440115702488E+00
    0.57639419985585838013E+00
    0.56996954264840604676E+00
    0.57606035043353054359E+00
    0.57089576915271333934E+00
    0.58131020022690382820E+00
    0.58629274748870086054E+00
    0.59138579894228127110E+00
    0.59155349316127237014E+00
    0.58954689948469529703E+00
    0.58996423712633672132E+00
    0.58574274902273881782E+00
    0.58410034060509552489E+00
    0.54641066705466589948E+00
    0.52227302521387353185E+00
    0.48754797687569123577E+00
    0.46137604659533687501E+00
    0.48600968098509428339E+00
    0.46536414770858874901E+00
    0.50641311403728372920E+00
    0.52951065089970938971E+00
    0.55522128415717464378E+00
    0.56288586436494325582E+00
    0.55169098306116792774E+00
    0.56133452794745208880E+00
    0.52916795984223496951E+00
    0.52064798329961536894E+00
    0.42007306323803428327E+00
    0.37024354685482235849E+00
    0.30024352356323374957E+00
    0.30024352309979657205E+00
    0.37024354847801088653E+00
    0.42007312798132517839E+00
    0.47566812558464410809E+00
    0.46670617895051152990E+00
    0.51278686518717908616E+00
    0.51278685970346482570E+00
    0.46670617673945530290E+00
    0.47566811039583173359E+00
    0.40883466478577012992E+00
    0.40883466490624764678E+00
    0.22512064419429000939E+00
    0.23932643585490129268E+00
    0.20424758057871969519E+00
    0.23400538763119715924E+00
    0.30616979497996082982E+00
    0.37542495731010672166E+00
    0.42800491679998925454E+00
    0.39098900594484137239E+00
    0.43501789087915565535E+00
    0.40954921238190344912E+00
    0.32756493514473711270E+00
    0.28236144284417935557E+00
    0.30058133650835150430E+00
    0.32090211664093443167E+00
    0.37542480476714285009E+00
    0.30616974764076904103E+00
    0.23400541951866224433E+00
    0.20424758721077432289E+00
    0.23932643275613932343E+00
    0.22512064578885873645E+00
    0.28236143118052908774E+00
    0.32756489932049126512E+00
    0.40954918817103314055E+00
    0.43501787049896711856E+00
    0.39098898815171728716E+00
    0.42800487724978775184E+00
    0.32090209154756532683E+00
    0.30058131566477708230E+00
    0.14766139527169083734E+00
    0.12963491301458021643E+00
    0.11201082910265414139E+00
    0.11201082462083292168E+00
    0.12963491443213137622E+00
    0.14766139957123508575E+00
    0.17880321022493839145E+00
    0.16911870740845513783E+00
    0.20234775764384854702E+00
    0.20234775193106008251E+00
    0.16911870892663838362E+00
    0.17880321832947632110E+00
    0.14273764247484099776E+00
    0.14273764196289565054E+00
    0.56729684292098736531E+00
    0.57603933663125184150E+00
    0.57357169007789010617E+00
    0.58104464899883789819E+00
    0.58679155309264408036E+00
    0.59179864629765044359E+00
    0.59180462235496167356E+00
    0.58969120131569019438E+00
    0.58981668272655096708E+00
    0.58847226544294894968E+00
    0.58370095972843338838E+00
    0.57632545176502070206E+00
    0.58376140785212948803E+00
    0.58620127722279891103E+00
    0.57791275399485153574E+00
    0.58676858495924777426E+00
    0.58780618139837959024E+00
    0.59349345420634214143E+00
    0.59616343362290125096E+00
    0.60003271319497952785E+00
    0.59905212024068421606E+00
    0.59632409339751124566E+00
    0.59487771778478160112E+00
    0.59287320818269384493E+00
    0.58988389011945496776E+00
    0.58265798538474378176E+00
    0.59183457818006912632E+00
    0.59414230496289588412E+00
    0.45127684376206195216E+00
    0.48606380250534431120E+00
    0.47569801491198387966E+00
    0.50541490333151350978E+00
    0.53176583079492378836E+00
    0.55642176536343657123E+00
    0.56580084300540822717E+00
    0.55214840983650570472E+00
    0.55846875469551926496E+00
    0.54658901180708197032E+00
    0.52049528471964146004E+00
    0.48739499993073454043E+00
    0.51950735315345997201E+00
    0.53078292337290966518E+00
    0.49378719904876056113E+00
    0.52827757723239254783E+00
    0.53368975919989147805E+00
    0.55402768254503431677E+00
    0.56468899065727329312E+00
    0.58062768519189911220E+00
    0.58319695663433868127E+00
    0.57117459696028860527E+00
    0.57128682312174805524E+00
    0.55959127855417911679E+00
    0.54230799642866289734E+00
    0.51176119485799853592E+00
    0.54860884350340644033E+00
    0.55812452051956484844E+00
    0.59464126463665389899E+00
    0.60017236390594697060E+00
    0.60191257530488140315E+00
    0.60470500069124799580E+00
    0.60549526393512786981E+00
    0.60751028331787892967E+00
    0.60666552777035454014E+00
    0.60470124207924036419E+00
    0.60307569803765903593E+00
    0.60137013805865457972E+00
    0.60026446480625728075E+00
    0.59553292757439824090E+00
    0.60237405124467879869E+00
    0.60379638398451196402E+00
    0.60586172714629393798E+00
    0.60795655057469721871E+00
    0.60831429969475192543E+00
    0.60916342494077979630E+00
    0.60982524798650894482E+00
    0.61047112658325719536E+00
    0.61047111843142931598E+00
    0.60982524842279850485E+00
    0.60916342545267643249E+00
    0.60831428883607230329E+00
    0.60795654614469230026E+00
    0.60586173115966868163E+00
    0.60887983112721710821E+00
    0.60942448256353354274E+00
    0.56177839368399751230E+00
    0.57817976111275470874E+00
    0.58431402906232954297E+00
    0.59147656680509530513E+00
    0.59375828390867568807E+00
    0.60009254987102267354E+00
    0.60009254734000849751E+00
    0.59375828238457939445E+00
    0.59147656800588022108E+00
    0.58431401792990866895E+00
    0.57817976001463855518E+00
    0.56177839892020686730E+00
    0.58456129622941410684E+00
    0.58910257488303607865E+00
    0.59553292177656891315E+00
    0.60026446856323900647E+00
    0.60137014845156933074E+00
    0.60307569766433477554E+00
    0.60470124437131078654E+00
    0.60666554449520748715E+00
    0.60751028409581353529E+00
    0.60549526770656469932E+00
    0.60470500253629899667E+00
    0.60191256421516403652E+00
    0.60017236225088443913E+00
    0.59464126820581031385E+00
    0.60237405223111062380E+00
    0.60379638539450475321E+00
    0.19614098511029692817E+00
    0.23944970556826616903E+00
    0.23430531015263436623E+00
    0.27825689376292239707E+00
    0.33327151813045252648E+00
    0.41458515590390165872E+00
    0.44606465951857782182E+00
    0.39317269974471158456E+00
    0.41761884177727121026E+00
    0.37608177966002054315E+00
    0.30227149736314851136E+00
    0.23460770308989781219E+00
    0.29767212048921282141E+00
    0.32603653789299413823E+00
    0.29691178232286191685E+00
    0.37030047298170404302E+00
    0.42647647370852731497E+00
    0.46936089208732684197E+00
    0.47149770704628318763E+00
    0.51883782298052172344E+00
    0.51883781743833945477E+00
    0.47149769797290519424E+00
    0.46936088467344971864E+00
    0.42647645961585256558E+00
    0.37030047654432612925E+00
    0.29691177985753874902E+00
    0.39598173347967557945E+00
    0.42595478388847451967E+00
    0.11201038484577939547E+00
    0.12847507610671635159E+00
    0.14763617826665031973E+00
    0.17084409492659347052E+00
    0.17074517622130161443E+00
    0.21116524956499205246E+00
    0.21116524179897960822E+00
    0.17074517101265468400E+00
    0.17084408989349436636E+00
    0.14763616449832586697E+00
    0.12847507442233338515E+00
    0.11201038794031534240E+00
    0.13676417603907106701E+00
    0.14911064199533902164E+00
    0.23460771284946169146E+00
    0.30227152306876892141E+00
    0.37608181995670608710E+00
    0.41761887630837496443E+00
    0.39317273440253502903E+00
    0.44606468709518326543E+00
    0.41458513943901392773E+00
    0.33327156559710235939E+00
    0.27825691086628612236E+00
    0.23430531235758869646E+00
    0.23944971948310414533E+00
    0.19614099843984458826E+00
    0.29767214594879293221E+00
    0.32603657310556005688E+00
    0.51176119386220264573E+00
    0.54230800043468485594E+00
    0.55959129292045250992E+00
    0.57128682471763747586E+00
    0.57117460076472303943E+00
    0.58319696001204768265E+00
    0.58062768298846589854E+00
    0.56468898960992031100E+00
    0.55402768338266950021E+00
    0.53368974980931715990E+00
    0.52827758033591354359E+00
    0.49378721267439235065E+00
    0.54860884614152416461E+00
    0.55812452250227706507E+00
    0.58265798147158087694E+00
    0.58988389467709445579E+00
    0.59287321878484822157E+00
    0.59487771759857777099E+00
    0.59632409574500522265E+00
    0.59905213673910118199E+00
    0.60003271350712628074E+00
    0.59616343692283890743E+00
    0.59349345506328754496E+00
    0.58780617047154593013E+00
    0.58676858418968846909E+00
    0.57791275980238310250E+00
    0.59183457962612529002E+00
    0.59414230652341026850E+00
    0.48739501026832654507E+00
    0.52049529513070591502E+00
    0.54658903010546056045E+00
    0.55846875977480514575E+00
    0.55214841834787453667E+00
    0.56580085017986680995E+00
    0.55642176676602062013E+00
    0.53176583522975451324E+00
    0.50541491144479944175E+00
    0.47569802050497839163E+00
    0.48606382515325757820E+00
    0.45127688831668810732E+00
    0.51950736463976543433E+00
    0.53078293216314409442E+00
    0.57632544856108147702E+00
    0.58370096478580391075E+00
    0.58847227648311861703E+00
    0.58981668337545711811E+00
    0.58969120456586643364E+00
    0.59180463833992291711E+00
    0.59179864653567759714E+00
    0.58679155807644245435E+00
    0.58104465216358713864E+00
    0.57357168268231795150E+00
    0.57603933916344118860E+00
    0.56729685147335151552E+00
    0.58376141080281074291E+00
    0.58620128041241525985E+00
    0.59179864229358203342E+00
    0.58679155684769401802E+00
    0.58104465652269621234E+00
    0.57357168678685288565E+00
    0.57603934003741552594E+00
    0.56729685128231144287E+00
    0.57632545040492433319E+00
    0.58370096309329411177E+00
    0.58847227092683329630E+00
    0.58981667493429523752E+00
    0.58969120047558853948E+00
    0.59180463097656732518E+00
    0.58620127956542422698E+00
    0.58376140946941779131E+00
    0.55642175915497249505E+00
    0.53176582307163078323E+00
    0.50541489948074347360E+00
    0.47569799605955764843E+00
    0.48606379415785977427E+00
    0.45127683175504490487E+00
    0.48739498074312959108E+00
    0.52049527542740148256E+00
    0.54658901649333013761E+00
    0.55846875147389840599E+00
    0.55214840996283498509E+00
    0.56580084705556732416E+00
    0.53078291817267642116E+00
    0.51950734518923924465E+00
    0.60003270809189956925E+00
    0.59616343599059129499E+00
    0.59349346078449427555E+00
    0.58780617722956851612E+00
    0.58676858732689207709E+00
    0.57791276277160463781E+00
    0.58265798498581600207E+00
    0.58988389399449459027E+00
    0.59287321376323909305E+00
    0.59487770970380371427E+00
    0.59632409175065448359E+00
    0.59905212775536764713E+00
    0.59414230631579256769E+00
    0.59183457934720173910E+00
    0.58062768073145609726E+00
    0.56468898680638512921E+00
    0.55402768518751854820E+00
    0.53368974987509143482E+00
    0.52827757260784136140E+00
    0.49378719323913844441E+00
    0.51176118317930452406E+00
    0.54230799246900840416E+00
    0.55959128535009583505E+00
    0.57128682091473081961E+00
    0.57117459842876028286E+00
    0.58319696075691396242E+00
    0.55812451878638236202E+00
    0.54860883981013919275E+00
    0.41458507713041764520E+00
    0.33327153768760514607E+00
    0.27825689568921396777E+00
    0.23430530228536877724E+00
    0.23944970382691177502E+00
    0.19614098633948601202E+00
    0.23460769402440945219E+00
    0.30227146892982376114E+00
    0.37608168371592687329E+00
    0.41761878508841282498E+00
    0.39317269395839254953E+00
    0.44606464424526703905E+00
    0.32603654281729893549E+00
    0.29767212036680562592E+00
    0.21116523645768658923E+00
    0.17074516947431583880E+00
    0.17084409189705143661E+00
    0.14763616758647468696E+00
    0.12847507543887617953E+00
    0.11201038937611938751E+00
    0.11201038576852000161E+00
    0.12847507308315239682E+00
    0.14763616843581933713E+00
    0.17084408214865745568E+00
    0.17074516852874660477E+00
    0.21116523950818053001E+00
    0.14911063982195846278E+00
    0.13676417380272151703E+00
    0.51883781171674425714E+00
    0.47149769519120598993E+00
    0.46936089641360900782E+00
    0.42647647180559777880E+00
    0.37030046944076755455E+00
    0.29691177355622644374E+00
    0.29691176704821548027E+00
    0.37030044580542004207E+00
    0.42647641129395774673E+00
    0.46936085507322478083E+00
    0.47149768816717474440E+00
    0.51883781583730814724E+00
    0.42595477081585642054E+00
    0.39598171817754629354E+00
    0.44606465479482593217E+00
    0.39317272002940151232E+00
    0.41761889365469562208E+00
    0.37608182028674363995E+00
    0.30227150873410540965E+00
    0.23460769509859327742E+00
    0.19614098495391882326E+00
    0.23944970148284933087E+00
    0.23430530435399379852E+00
    0.27825688700666123543E+00
    0.33327151862509946101E+00
    0.41458516046040960745E+00
    0.32603653607617488763E+00
    0.29767211036535934365E+00
    0.60751027767869103524E+00
    0.60549526593423164122E+00
    0.60470500713090502565E+00
    0.60191257083365634628E+00
    0.60017236583028465979E+00
    0.59464127300048086333E+00
    0.59553292641232391524E+00
    0.60026446796797128247E+00
    0.60137014273695066358E+00
    0.60307568919936993534E+00
    0.60470123985266033273E+00
    0.60666553473163165044E+00
    0.60379638484800524090E+00
    0.60237405188914927567E+00
    0.60009254555671787124E+00
    0.59375828147358789000E+00
    0.59147657178810275624E+00
    0.58431402302603308030E+00
    0.57817976187053110593E+00
    0.56177840057678540830E+00
    0.56177839475621493825E+00
    0.57817975984473179984E+00
    0.58431402620135641790E+00
    0.59147656587769636971E+00
    0.59375828402412511586E+00
    0.60009255112660186970E+00
    0.58910257498679230448E+00
    0.58456129545812496318E+00
    0.61047111708678214459E+00
    0.60982524894982292896E+00
    0.60916343179452969725E+00
    0.60831429448522722492E+00
    0.60795655158182271283E+00
    0.60586173550173427760E+00
    0.60586173012147559458E+00
    0.60795654874206883633E+00
    0.60831429291404259807E+00
    0.60916341580742872086E+00
    0.60982524511442670612E+00
    0.61047112442113460329E+00
    0.60942448228064527438E+00
    0.60887983072601958856E+00
    0.60666553564101033391E+00
    0.60470124581476736303E+00
    0.60307570466278159760E+00
    0.60137014349168171901E+00
    0.60026447010489392131E+00
    0.59553293111437222151E+00
    0.59464126686813023603E+00
    0.60017236304943255565E+00
    0.60191257261289410341E+00
    0.60470500037396568427E+00
    0.60549527000460334758E+00
    0.60751028916898419663E+00
    0.60379638681930103417E+00
    0.60237405221039852510E+00
    0.58319695383750136397E+00
    0.57117459831957251293E+00
    0.57128683010775971329E+00
    0.55959128688408288355E+00
    0.54230800158081948759E+00
    0.51176120191322482800E+00
    0.49378720915393398139E+00
    0.52827757843467970655E+00
    0.53368975385344330498E+00
    0.55402767917000017572E+00
    0.56468898992497873479E+00
    0.58062768453760682519E+00
    0.55812452208103435769E+00
    0.54860884480601801449E+00
    0.56580084323242163524E+00
    0.55214841466581077167E+00
    0.55846876337971107507E+00
    0.54658902161048916746E+00
    0.52049529490886803362E+00
    0.48739501371633009441E+00
    0.45127688603569948711E+00
    0.48606381848927393552E+00
    0.47569801251016996524E+00
    0.50541490401161492940E+00
    0.53176583423077716795E+00
    0.55642176799803721998E+00