# vtk DataFile Version 3.0
LAPLACIEN  2D
ASCII
DATASET UNSTRUCTURED_GRID
 POINTS         481  float
   6.2500000000000000E-002  0.87500000000000000        0.0000000000000000     
  0.12500000000000000       0.87500000000000000        0.0000000000000000     
  0.12500000000000000       0.93750000000000000        0.0000000000000000     
   3.7499999999999999E-002  0.91249999999999998        0.0000000000000000     
   8.1250000000000003E-002  0.91874999999999996        0.0000000000000000     
   8.7499999999999994E-002  0.96250000000000002        0.0000000000000000     
   4.3749999999999997E-002  0.95625000000000004        0.0000000000000000     
  0.18750000000000000       0.87500000000000000        0.0000000000000000     
  0.25000000000000000       0.87500000000000000        0.0000000000000000     
  0.25000000000000000       0.93750000000000000        0.0000000000000000     
  0.16250000000000001       0.91249999999999998        0.0000000000000000     
  0.20624999999999999       0.91874999999999996        0.0000000000000000     
  0.21249999999999999       0.96250000000000002        0.0000000000000000     
  0.16875000000000001       0.95625000000000004        0.0000000000000000     
   6.2500000000000000E-002  0.75000000000000000        0.0000000000000000     
  0.12500000000000000       0.75000000000000000        0.0000000000000000     
  0.12500000000000000       0.81250000000000000        0.0000000000000000     
   3.7499999999999999E-002  0.78749999999999998        0.0000000000000000     
   8.1250000000000003E-002  0.79374999999999996        0.0000000000000000     
   8.7499999999999994E-002  0.83750000000000002        0.0000000000000000     
   4.3749999999999997E-002  0.83125000000000004        0.0000000000000000     
  0.18750000000000000       0.75000000000000000        0.0000000000000000     
  0.25000000000000000       0.75000000000000000        0.0000000000000000     
  0.25000000000000000       0.81250000000000000        0.0000000000000000     
  0.16250000000000001       0.78749999999999998        0.0000000000000000     
  0.20624999999999999       0.79374999999999996        0.0000000000000000     
  0.21249999999999999       0.83750000000000002        0.0000000000000000     
  0.16875000000000001       0.83125000000000004        0.0000000000000000     
  0.31250000000000000       0.87500000000000000        0.0000000000000000     
  0.37500000000000000       0.87500000000000000        0.0000000000000000     
  0.37500000000000000       0.93750000000000000        0.0000000000000000     
  0.28749999999999998       0.91249999999999998        0.0000000000000000     
  0.33124999999999999       0.91874999999999996        0.0000000000000000     
  0.33750000000000002       0.96250000000000002        0.0000000000000000     
  0.29375000000000001       0.95625000000000004        0.0000000000000000     
  0.43750000000000000       0.87500000000000000        0.0000000000000000     
  0.50000000000000000       0.87500000000000000        0.0000000000000000     
  0.50000000000000000       0.93750000000000000        0.0000000000000000     
  0.41249999999999998       0.91249999999999998        0.0000000000000000     
  0.45624999999999999       0.91874999999999996        0.0000000000000000     
  0.46250000000000002       0.96250000000000002        0.0000000000000000     
  0.41875000000000001       0.95625000000000004        0.0000000000000000     
  0.31250000000000000       0.75000000000000000        0.0000000000000000     
  0.37500000000000000       0.75000000000000000        0.0000000000000000     
  0.37500000000000000       0.81250000000000000        0.0000000000000000     
  0.28749999999999998       0.78749999999999998        0.0000000000000000     
  0.33124999999999999       0.79374999999999996        0.0000000000000000     
  0.33750000000000002       0.83750000000000002        0.0000000000000000     
  0.29375000000000001       0.83125000000000004        0.0000000000000000     
  0.43750000000000000       0.75000000000000000        0.0000000000000000     
  0.50000000000000000       0.75000000000000000        0.0000000000000000     
  0.50000000000000000       0.81250000000000000        0.0000000000000000     
  0.41249999999999998       0.78749999999999998        0.0000000000000000     
  0.45624999999999999       0.79374999999999996        0.0000000000000000     
  0.46250000000000002       0.83750000000000002        0.0000000000000000     
  0.41875000000000001       0.83125000000000004        0.0000000000000000     
   6.2500000000000000E-002  0.62500000000000000        0.0000000000000000     
  0.12500000000000000       0.62500000000000000        0.0000000000000000     
  0.12500000000000000       0.68750000000000000        0.0000000000000000     
   3.7499999999999999E-002  0.66249999999999998        0.0000000000000000     
   8.1250000000000003E-002  0.66874999999999996        0.0000000000000000     
   8.7499999999999994E-002  0.71250000000000002        0.0000000000000000     
   4.3749999999999997E-002  0.70625000000000004        0.0000000000000000     
  0.18750000000000000       0.62500000000000000        0.0000000000000000     
  0.25000000000000000       0.62500000000000000        0.0000000000000000     
  0.25000000000000000       0.68750000000000000        0.0000000000000000     
  0.16250000000000001       0.66249999999999998        0.0000000000000000     
  0.20624999999999999       0.66874999999999996        0.0000000000000000     
  0.21249999999999999       0.71250000000000002        0.0000000000000000     
  0.16875000000000001       0.70625000000000004        0.0000000000000000     
   6.2500000000000000E-002  0.50000000000000000        0.0000000000000000     
  0.12500000000000000       0.50000000000000000        0.0000000000000000     
  0.12500000000000000       0.56250000000000000        0.0000000000000000     
   3.7499999999999999E-002  0.53749999999999998        0.0000000000000000     
   8.1250000000000003E-002  0.54374999999999996        0.0000000000000000     
   8.7499999999999994E-002  0.58750000000000002        0.0000000000000000     
   4.3749999999999997E-002  0.58125000000000004        0.0000000000000000     
  0.18750000000000000       0.50000000000000000        0.0000000000000000     
  0.25000000000000000       0.50000000000000000        0.0000000000000000     
  0.25000000000000000       0.56250000000000000        0.0000000000000000     
  0.16250000000000001       0.53749999999999998        0.0000000000000000     
  0.20624999999999999       0.54374999999999996        0.0000000000000000     
  0.21249999999999999       0.58750000000000002        0.0000000000000000     
  0.16875000000000001       0.58125000000000004        0.0000000000000000     
  0.31250000000000000       0.62500000000000000        0.0000000000000000     
  0.37500000000000000       0.62500000000000000        0.0000000000000000     
  0.37500000000000000       0.68750000000000000        0.0000000000000000     
  0.28749999999999998       0.66249999999999998        0.0000000000000000     
  0.33124999999999999       0.66874999999999996        0.0000000000000000     
  0.33750000000000002       0.71250000000000002        0.0000000000000000     
  0.29375000000000001       0.70625000000000004        0.0000000000000000     
  0.43750000000000000       0.62500000000000000        0.0000000000000000     
  0.50000000000000000       0.62500000000000000        0.0000000000000000     
  0.50000000000000000       0.68750000000000000        0.0000000000000000     
  0.41249999999999998       0.66249999999999998        0.0000000000000000     
  0.45624999999999999       0.66874999999999996        0.0000000000000000     
  0.46250000000000002       0.71250000000000002        0.0000000000000000     
  0.41875000000000001       0.70625000000000004        0.0000000000000000     
  0.31250000000000000       0.50000000000000000        0.0000000000000000     
  0.37500000000000000       0.50000000000000000        0.0000000000000000     
  0.37500000000000000       0.56250000000000000        0.0000000000000000     
  0.28749999999999998       0.53749999999999998        0.0000000000000000     
  0.33124999999999999       0.54374999999999996        0.0000000000000000     
  0.33750000000000002       0.58750000000000002        0.0000000000000000     
  0.29375000000000001       0.58125000000000004        0.0000000000000000     
  0.43750000000000000       0.50000000000000000        0.0000000000000000     
  0.50000000000000000       0.50000000000000000        0.0000000000000000     
  0.50000000000000000       0.56250000000000000        0.0000000000000000     
  0.41249999999999998       0.53749999999999998        0.0000000000000000     
  0.45624999999999999       0.54374999999999996        0.0000000000000000     
  0.46250000000000002       0.58750000000000002        0.0000000000000000     
  0.41875000000000001       0.58125000000000004        0.0000000000000000     
  0.56250000000000000       0.87500000000000000        0.0000000000000000     
  0.62500000000000000       0.87500000000000000        0.0000000000000000     
  0.62500000000000000       0.93750000000000000        0.0000000000000000     
  0.53749999999999998       0.91249999999999998        0.0000000000000000     
  0.58125000000000004       0.91874999999999996        0.0000000000000000     
  0.58750000000000002       0.96250000000000002        0.0000000000000000     
  0.54374999999999996       0.95625000000000004        0.0000000000000000     
  0.68750000000000000       0.87500000000000000        0.0000000000000000     
  0.75000000000000000       0.87500000000000000        0.0000000000000000     
  0.75000000000000000       0.93750000000000000        0.0000000000000000     
  0.66249999999999998       0.91249999999999998        0.0000000000000000     
  0.70625000000000004       0.91874999999999996        0.0000000000000000     
  0.71250000000000002       0.96250000000000002        0.0000000000000000     
[...]
 CELL_DATA         896
 SCALARS Nutrients float
 LOOKUP_TABLE default
    0.60772383397742779643E+00
    0.60769643652347604679E+00
    0.60583479513593507804E+00
    0.60583478113640476526E+00
    0.60769643009723195437E+00
    0.60772384986536087670E+00
    0.60887310900177515904E+00
    0.60948822198674035278E+00
    0.61020414692333191375E+00
    0.61020412657078604290E+00
    0.60948821466649560907E+00
    0.60887312385305258911E+00
    0.60886166742869340940E+00
    0.60886166671285057994E+00
    0.60080565556746978739E+00
    0.59984845709328071806E+00
    0.59492715239882687506E+00
    0.59550772722309708307E+00
    0.59987289997535298003E+00
    0.60039193018935854695E+00
    0.60264588294449561445E+00
    0.60410647980641585253E+00
    0.60625595847980018327E+00
    0.60689555764722113995E+00
    0.60496499199509534694E+00
    0.60464059885033949460E+00
    0.60269756071149616083E+00
    0.60257606507573080457E+00
    0.60039190848734069750E+00
    0.59987290256785985587E+00
    0.59550774296732489343E+00
    0.59492714229664223069E+00
    0.59984845556495225427E+00
    0.60080565982287559290E+00
    0.60464059851609475160E+00
    0.60496499605318287962E+00
    0.60689555218630175659E+00
    0.60625591895558217370E+00
    0.60410646084179464577E+00
    0.60264588803625840363E+00
    0.60257606235432159547E+00
    0.60269755937000657475E+00
    0.58210134101729582579E+00
    0.57768505357136801237E+00
    0.56259047102035464327E+00
    0.56259045853118860858E+00
    0.57768505204182096779E+00
    0.58210134705393334897E+00
    0.59171577290079446776E+00
    0.59260242284120012712E+00
    0.59891541582931395737E+00
    0.59891540022606271076E+00
    0.59260241680399283748E+00
    0.59171577513135675819E+00
    0.58602891693547842777E+00
    0.58602891669679446629E+00
    0.58537514243475141651E+00
    0.58612092651914227126E+00
    0.57880582583238981975E+00
    0.58217136609122588364E+00
    0.58933875816830427752E+00
    0.59173365805175581755E+00
    0.59429054022086302833E+00
    0.59545697585257617579E+00
    0.59835057487740705984E+00
    0.59903575210714665733E+00
    0.59522268094171904007E+00
    0.59335356976742070767E+00
    0.59200616095918545678E+00
    0.59250941861634143226E+00
    0.56965957332265804158E+00
    0.57492688951721393487E+00
    0.56863080473164062667E+00
    0.57524432835307692802E+00
    0.58314674256144594100E+00
    0.58762145341821170330E+00
    0.58919890577694822298E+00
    0.58877713372190698671E+00
    0.59084777090365525609E+00
    0.59068528727284641544E+00
    0.58545879530142408420E+00
    0.58037121361087784521E+00
    0.58318859791970734108E+00
    0.58487009525210853500E+00
    0.52651388639535490199E+00
    0.52689351178021781585E+00
    0.49782610677774163932E+00
    0.51072392611071137924E+00
    0.54143467310692927619E+00
    0.55669137232434440232E+00
    0.57212222524977229821E+00
    0.56918143372125218349E+00
    0.58053673755136558920E+00
    0.57836083200067611720E+00
    0.56203147070044734424E+00
    0.55457985997303071990E+00
    0.55011019084210011076E+00
    0.55327292785438175748E+00
    0.46128682795928582783E+00
    0.48204346095399636107E+00
    0.45608062226166257158E+00
    0.48328662564752122854E+00
    0.51933780031028153878E+00
    0.54431148649860683353E+00
    0.55973057225222744293E+00
    0.54983326600019333252E+00
    0.56143888342697900740E+00
    0.55363389251256689416E+00
    0.52719124787442150915E+00
    0.50369002478847657578E+00
    0.51785229699052948149E+00
    0.52658980192837201439E+00
    0.59173364101066305842E+00
    0.58933876285772324177E+00
    0.58217138278854974054E+00
    0.57880581568381883617E+00
    0.58612092392665293694E+00
    0.58537514393039336014E+00
    0.59335356956790952232E+00
    0.59522268412357437484E+00
    0.59903574339564524820E+00
    0.59835053431310436522E+00
    0.59545696032454886737E+00
    0.59429055131372432452E+00
    0.59250941718180016871E+00
    0.59200615982788074021E+00
    0.55669136523924211968E+00
    0.54143467370444953168E+00
    0.51072393878364208408E+00
    0.49782609192183407965E+00
    0.52689350693453984587E+00
    0.52651388813218091833E+00
    0.55457985720074054470E+00
    0.56203147467861036546E+00
    0.57836084334162696230E+00
    0.58053671710785847981E+00
    0.56918142655081116477E+00
    0.57212222764302445022E+00
    0.55327292682965489856E+00
    0.55011018881331807950E+00
    0.58762144945845540267E+00
    0.58314675406825500215E+00
    0.57524434990383388477E+00
    0.56863079883199008080E+00
    0.57492688957371762548E+00
    0.56965957556092405856E+00
    0.58037121460689833352E+00
    0.58545880176702758124E+00
    0.59068528398975994609E+00
    0.59084773657197320329E+00
    0.58877712352633759796E+00
    0.58919892478226643107E+00
    0.58487009834096570504E+00
    0.58318860041350739642E+00
    0.54431149170454795616E+00
    0.51933781201890094614E+00
    0.48328665966512085461E+00
    0.45608064152404509395E+00
    0.48204346373366052658E+00
    0.46128682037952900563E+00
    0.50369001767627696875E+00
    0.52719125090750706963E+00
    0.55363390327486439180E+00
    0.56143886288959776731E+00
    0.54983326129178211605E+00
    0.55973058018536392400E+00
    0.52658980498183427521E+00
    0.51785229783223363231E+00
    0.41634742976247868240E+00
    0.36851736217119079875E+00
    0.29906796189169876365E+00
    0.29906794761043142827E+00
    0.36851731056622161198E+00
    0.41634743003568774888E+00
    0.47303994196160870089E+00
    0.46455692112347268807E+00
    0.51112994771605957389E+00
    0.51112992717470995263E+00
    0.46455691210226807142E+00
    0.47303994906376606311E+00
    0.40727723923093561709E+00
    0.40727723411918886898E+00
    0.22609366600998181962E+00
    0.24037275006562663915E+00
    0.20733223345665291459E+00
    0.23769550355478205605E+00
    0.30390381927090559522E+00
    0.36804232121837476832E+00
    0.42138371320809608900E+00
    0.38466232049044674079E+00
    0.43025548511405936614E+00
    0.40538512023865452827E+00
    0.32619882283133694312E+00
    0.28161139519052658109E+00
    0.29984421314334636088E+00
    0.31825448706142900335E+00
    0.36804244306239830564E+00
    0.30390394208987669966E+00
    0.23769588079368692002E+00
    0.20733240232783864410E+00
    0.24037281445453670403E+00
    0.22609367934587326632E+00
    0.28161139477514623985E+00
    0.32619882144753153952E+00
    0.40538520556621482349E+00
    0.43025543004155308857E+00
    0.38466235534687076569E+00
    0.42138380242425493849E+00
    0.31825454373769473948E+00
    0.29984425054020552581E+00
    0.15171261960047599526E+00
    0.13373316103086343998E+00
    0.11616843919180158684E+00
    0.11616842478337700839E+00
    0.13373313288943181054E+00
    0.15171254970613642921E+00
    0.18221826930447396209E+00
    0.17221760072681088771E+00
    0.20402834212678833126E+00
    0.20402833579573248501E+00
    0.17221763575381726641E+00
    0.18221838698930106770E+00
    0.14653980037779773538E+00
    0.14653979033586500558E+00
    0.56589271860808310066E+00
    0.57492255006618386837E+00
    0.57244081870789165212E+00
    0.58012195459338333769E+00
    0.58598908213885059215E+00
    0.59112670748446982660E+00
    0.59111707116679956808E+00
    0.58893583024027584827E+00
    0.58905172296663022014E+00
    0.58766685233894622176E+00
    0.58276822417162765788E+00
    0.57517666576773340825E+00
    0.58284745017629036035E+00
    0.58535882133044248032E+00
    0.57700407091984240449E+00
    0.58606714858869102258E+00
    0.58716789413430736655E+00
    0.59296324596695926257E+00
    0.59566362686287033235E+00
    0.59961185422663254574E+00
    0.59859719850759351978E+00
    0.59579786443931204154E+00
    0.59429883400801519766E+00
    0.59223903478897377273E+00
    0.58919941599325964532E+00
    0.58180090748686785762E+00
    0.59121979737432084345E+00
    0.59357992470363674098E+00
    0.44578856474429445766E+00
    0.48223773081338472402E+00
    0.47213442682947243112E+00
    0.50279502960589772531E+00
    0.52963026027704929177E+00
    0.55496065778544789726E+00
    0.56447835841543037017E+00
    0.55036882186458457866E+00
    0.55679775500985106973E+00
    0.54450881511116444589E+00
    0.51755743454399183445E+00
    0.48317017492065400530E+00
    0.51670807957756348383E+00
    0.52839862909668544599E+00
    0.49166888094389304964E+00
    0.52676122211740417089E+00
    0.53241663332419308929E+00
    0.55300100465909274305E+00
    0.56374344235615891918E+00
    0.57992171085373622752E+00
    0.58248893786579936105E+00
    0.57022600542982826433E+00
    0.57025145151677947286E+00
    0.55827366374472664479E+00
    0.54074100216944742670E+00
    0.50951649424747835759E+00
    0.54731104665534602294E+00
    0.55699989535736682544E+00
    0.59416527256492313036E+00
    0.59979344361492070714E+00
    0.60157111349306435777E+00
    0.60441311042706580281E+00
    0.60521351747508422836E+00
    0.60726809604411813304E+00
    0.60640227476066144163E+00
    0.60439440105452857388E+00
    0.60272746701134571889E+00
    0.60098355462829344820E+00
    0.59986858298953182889E+00
    0.59505024394005490151E+00
    0.60202743881591025410E+00
    0.60347695017092573000E+00
    0.60559180338446272351E+00
    0.60772686172861545284E+00
    0.60808988164872346260E+00
    0.60895720165335887053E+00
    0.60963392432219731809E+00
    0.61029399280356744217E+00
    0.61029397454817324586E+00
    0.60963392748374189978E+00
    0.60895720612705639407E+00
    0.60808986074696425028E+00
    0.60772684906888430056E+00
    0.60559179985722355610E+00
    0.60866915597083004474E+00
    0.60922502477726347969E+00
    0.56085835145499252086E+00
    0.57747833884361576828E+00
    0.58367953744419243112E+00
    0.59095549619578102707E+00
    0.59328402054758933026E+00
    0.59972169201688674267E+00
    0.59972168491547506175E+00
    0.59328401942637265520E+00
    0.59095550091078075106E+00
    0.58367951503924653256E+00
    0.57747833175396012795E+00
    0.56085835180770193809E+00
    0.58395402998060552680E+00
    0.58856151230260944640E+00
    0.59505025785405707417E+00
    0.59986860779280248845E+00
    0.60098358668544837879E+00
    0.60272747842860407985E+00
    0.60439442144166766191E+00
    0.60640232793771564612E+00
    0.60726810485743420998E+00
    0.60521353801411759132E+00
    0.60441313027925680501E+00
    0.60157110318479534161E+00
    0.59979344948710167085E+00
    0.59416528387856692994E+00
    0.60202745584468631002E+00
    0.60347696836119313346E+00
    0.19953608061859062772E+00
    0.24108336914951222774E+00
    0.23538189812936674561E+00
    0.27806975747026235757E+00
    0.33223545803295018164E+00
    0.41128746579699065888E+00
    0.44187715732371801725E+00
    0.38736944039455462052E+00
    0.41098554424287980780E+00
    0.36878261144048402054E+00
    0.30100045083687021474E+00
    0.23848837013823334652E+00
    0.29828996219229353404E+00
    0.32461464548789348283E+00
    0.29632693080216593318E+00
    0.36925214111177329102E+00
    0.42352334896434762346E+00
    0.46703238506292771293E+00
    0.46972277469235484970E+00
    0.51745123069226250934E+00
    0.51745122487290051705E+00
    0.46972278206095063879E+00
    0.46703240035502141536E+00
    0.42352330064962184775E+00
    0.36925214637468550816E+00
    0.29632692904995533434E+00
    0.39491839051593163878E+00
    0.42486203789898363548E+00
    0.11619044744255224710E+00
    0.13269933242331807821E+00
    0.15173379358586752685E+00
    0.17455723769268519097E+00
    0.17401601925511819835E+00
    0.21289956048027713909E+00
    0.21289953900137889575E+00
    0.17401600181326995487E+00
    0.17455719630387328545E+00
    0.15173374950000192984E+00
    0.13269931596278489172E+00
    0.11619043954494606696E+00
    0.14085396847967049383E+00
    0.15292465319716588845E+00
    0.23848857011371446535E+00
    0.30100054329326630942E+00
    0.36878272638797221505E+00
    0.41098545126241597947E+00
    0.38736926857563303006E+00
    0.44187714644223075044E+00
    0.41128739726271840160E+00
    0.33223541332124684189E+00
    0.27806976981722197895E+00
    0.23538192193548310160E+00
    0.24108351355397322768E+00
    0.19953617849035953924E+00
    0.29829015312302559204E+00
    0.32461445435143709837E+00
    0.50951649999715120654E+00
    0.54074101502079607862E+00
    0.55827369135839111092E+00
    0.57025144989829623654E+00
    0.57022601039760822950E+00
    0.58248895240364773063E+00
    0.57992171393671998469E+00
    0.56374344942486842580E+00
    0.55300101895679976138E+00
    0.53241661764241487997E+00
    0.52676122170849304371E+00
    0.49166888869799768580E+00
    0.54731105268882929149E+00
    0.55699990127605369938E+00
    0.58180092585905007763E+00
    0.58919944441542637659E+00
    0.59223906966246508965E+00
    0.59429884837997359881E+00
    0.59579788910575626204E+00
    0.59859725785046780100E+00
    0.59961187173573549103E+00
    0.59566365416260447230E+00
    0.59296327401775417165E+00
    0.58716789060038865333E+00
    0.58606715916689078316E+00
    0.57700408600227848233E+00
    0.59121981867156614410E+00
    0.59357994755089538153E+00
    0.48317019323777865569E+00
    0.51755745581135226274E+00
    0.54450884943347921396E+00
    0.55679775980399304203E+00
    0.55036883309542161680E+00
    0.56447837922146326672E+00
    0.55496066633463314588E+00
    0.52963027387471695029E+00
    0.50279504965637589198E+00
    0.47213440106330856194E+00
    0.48223772670715309152E+00
    0.44578854996577021996E+00
    0.51670809096616077127E+00
    0.52839864111026724203E+00
    0.57517669306910412796E+00
    0.58276825856172542739E+00
    0.58766688849295223296E+00
    0.58905173871610660985E+00
    0.58893585793271385764E+00
    0.59111713213772110187E+00
    0.59112672775818297932E+00
    0.58598911674898079838E+00
    0.58012198814662252477E+00
    0.57244082148960506728E+00
    0.57492256800595586963E+00
    0.56589274081945095674E+00
    0.58284747866479913458E+00
    0.58535885168040402426E+00
    0.59112670472121198184E+00
    0.58598909724383674291E+00
    0.58012197051685310267E+00
    0.57244081118810430375E+00
    0.57492255296149852306E+00
    0.56589272564923009945E+00
    0.57517667181505638396E+00
    0.58276823823597334595E+00
    0.58766686210051388706E+00
    0.58905169820310976370E+00
    0.58893582623098805762E+00
    0.59111709315214067129E+00
    0.58535883141068367763E+00
    0.58284745860186293331E+00
    0.55496066047250025566E+00
    0.52963026601279039607E+00
    0.50279504283678966292E+00
    0.47213440942559742330E+00
    0.48223772674197562527E+00
    0.44578856313822312618E+00
    0.48317018190004940026E+00
    0.51755744554628446696E+00
    0.54450883752660428350E+00
    0.55679774039932272700E+00
    0.55036881883980592889E+00
    0.56447836529388961679E+00
    0.52839863220878569017E+00
    0.51670808125428502322E+00
    0.59961184941670375714E+00
    0.59566363681662126695E+00
    0.59296326034247703873E+00
    0.58716788490813454082E+00
    0.58606714775780210935E+00
    0.57700407444779877597E+00
    0.58180090616058444120E+00
    0.58919942546794568106E+00
    0.59223904423398876506E+00
    0.59429880920441036096E+00
    0.59579785867962820056E+00
    0.59859721865110293582E+00
    0.59357992916695845320E+00
    0.59121980066440693591E+00
    0.57992171389424707062E+00
    0.56374344693876232704E+00
    0.55300101544270829912E+00
    0.53241662306482095968E+00
    0.52676122338518338584E+00
    0.49166889813833619671E+00
    0.50951649120036046625E+00
    0.54074100898227084322E+00
    0.55827368345876682287E+00
    0.57025143486786122882E+00
    0.57022600150214619585E+00
    0.58248894371341097820E+00
    0.55699989783930492493E+00
    0.54731104789382356568E+00
    0.41128748335962539429E+00
    0.33223548464073515696E+00
    0.27806980706271733350E+00
    0.23538196325098201256E+00
    0.24108359123806152868E+00
    0.19953628345297841351E+00
    0.23848880985787532238E+00
    0.30100054327562020262E+00
    0.36878284305373992824E+00
    0.41098547540496077612E+00
    0.38736932054806083592E+00
    0.44187716364985868411E+00
    0.32461453650642790869E+00
    0.29829022492468754146E+00
    0.21289954977865915842E+00
    0.17401599467713604885E+00
    0.17455716988168473724E+00
    0.15173373178217711144E+00
    0.13269930829728848742E+00
    0.11619043531194896135E+00
    0.11619044063808472989E+00
    0.13269934212978298782E+00
    0.15173383400087295247E+00
    0.17455729416090340345E+00
    0.17401604239830895104E+00
    0.21289958516198079219E+00
    0.15292465690325535155E+00
    0.14085396837791347435E+00
    0.51745123725636332779E+00
    0.46972279304728625782E+00
    0.46703239791327871844E+00
    0.42352330771608337479E+00
    0.36925214916471443827E+00
    0.29632693485214117723E+00
    0.29632695891102145413E+00
    0.36925219826326777239E+00
    0.42352341768732448823E+00
    0.46703240189286993056E+00
    0.46972278810333251142E+00
    0.51745123498532130668E+00
    0.42486205515042596570E+00
    0.39491841089196411119E+00
    0.44187715972909591411E+00
    0.38736934467133649074E+00
    0.41098547530764628632E+00
    0.36878258348245657183E+00
    0.30100047062641210882E+00
    0.23848830324329936547E+00
    0.19953605111834801789E+00
    0.24108340676628778332E+00
    0.23538190837611100426E+00
    0.27806974790529054298E+00
    0.33223537962295418557E+00
    0.41128745510146291764E+00
    0.32461445039459951856E+00
    0.29829004682555598782E+00
    0.60726809165010253722E+00
    0.60521352887330626125E+00
    0.60441312810255076737E+00
    0.60157110766082422249E+00
    0.59979344490244668187E+00
    0.59416527836191035394E+00
    0.59505024246983950764E+00
    0.59986859237719725169E+00
    0.60098356293475296841E+00
    0.60272744163392200090E+00
    0.60439439542671058447E+00
    0.60640229504899911817E+00
    0.60347695544848900528E+00
    0.60202744299664345817E+00
    0.59972170025634141677E+00
    0.59328402919189093812E+00
    0.59095551134877821742E+00
    0.58367952869847095076E+00
    0.57747833746342447370E+00
    0.56085835380727100397E+00
    0.56085834555380886801E+00
    0.57747833863703101898E+00
    0.58367953573082320684E+00
    0.59095548794449115348E+00
    0.59328402057758877763E+00
    0.59972169477475234523E+00
    0.58856151759181063454E+00
    0.58395403246988819568E+00
    0.61029398185425465240E+00
    0.60963394484202837464E+00
    0.60895724149129482061E+00
    0.60808988876843950155E+00
    0.60772687077537801414E+00
    0.60559181591472144301E+00
    0.60559180271300860898E+00
    0.60772686135472242519E+00
    0.60808986928541486350E+00
    0.60895717943431293406E+00
    0.60963392144826267227E+00
    0.61029399369793146946E+00
    0.60922503450795828517E+00
    0.60866916488519895445E+00
    0.60640232189133480567E+00
    0.60439444473738102026E+00
    0.60272751798814550028E+00
    0.60098359403112999733E+00
    0.59986861847557593208E+00
    0.59505026997827326074E+00
    0.59416528535431933911E+00
    0.59979346457723992092E+00
    0.60157113000030870698E+00
    0.60441312452747864015E+00
    0.60521354979296748677E+00
    0.60726812577393762815E+00
    0.60347698581496167503E+00
    0.60202746940337792392E+00
    0.58248895824071889038E+00
    0.57022601752738999448E+00
    0.57025146312794983139E+00
    0.55827367913648584530E+00
    0.54074101086580839137E+00
    0.50951650024673655892E+00
    0.49166887791603658409E+00
    0.52676122709037587200E+00
    0.53241664037664426790E+00
    0.55300100326217993540E+00
    0.56374344790260144666E+00
    0.57992172076760750699E+00
    0.55699990441622582171E+00
    0.54731105287036796447E+00
    0.56447837921863819322E+00
    0.55036883342602249680E+00
    0.55679776523869928262E+00
    0.54450882787453325218E+00
    0.51755743686604049891E+00
    0.48317016645637955730E+00
    0.44578852073209407347E+00
    0.48223772252566948771E+00
    0.47213443010027689173E+00
    0.50279502940670961486E+00
    0.52963026663039913799E+00
    0.55496066906668484187E+00