# vtk DataFile Version 3.0
LAPLACIEN  2D
ASCII
DATASET UNSTRUCTURED_GRID
 POINTS         481  float
   6.2500000000000000E-002  0.87500000000000000        0.0000000000000000     
  0.12500000000000000       0.87500000000000000        0.0000000000000000     
  0.12500000000000000       0.93750000000000000        0.0000000000000000     
   3.7499999999999999E-002  0.91249999999999998        0.0000000000000000     
   8.1250000000000003E-002  0.91874999999999996        0.0000000000000000     
   8.7499999999999994E-002  0.96250000000000002        0.0000000000000000     
   4.3749999999999997E-002  0.95625000000000004        0.0000000000000000     
  0.18750000000000000       0.87500000000000000        0.0000000000000000     
  0.25000000000000000       0.87500000000000000        0.0000000000000000     
  0.25000000000000000       0.93750000000000000        0.0000000000000000     
  0.16250000000000001       0.91249999999999998        0.0000000000000000     
  0.20624999999999999       0.91874999999999996        0.0000000000000000     
  0.21249999999999999       0.96250000000000002        0.0000000000000000     
  0.16875000000000001       0.95625000000000004        0.0000000000000000     
   6.2500000000000000E-002  0.75000000000000000        0.0000000000000000     
  0.12500000000000000       0.75000000000000000        0.0000000000000000     
  0.12500000000000000       0.81250000000000000        0.0000000000000000     
   3.7499999999999999E-002  0.78749999999999998        0.0000000000000000     
   8.1250000000000003E-002  0.79374999999999996        0.0000000000000000     
   8.7499999999999994E-002  0.83750000000000002        0.0000000000000000     
   4.3749999999999997E-002  0.83125000000000004        0.0000000000000000     
  0.18750000000000000       0.75000000000000000        0.0000000000000000     
  0.25000000000000000       0.75000000000000000        0.0000000000000000     
  0.25000000000000000       0.81250000000000000        0.0000000000000000     
  0.16250000000000001       0.78749999999999998        0.0000000000000000     
  0.20624999999999999       0.79374999999999996        0.0000000000000000     
  0.21249999999999999       0.83750000000000002        0.0000000000000000     
  0.16875000000000001       0.83125000000000004        0.0000000000000000     
  0.31250000000000000       0.87500000000000000        0.0000000000000000     
  0.37500000000000000       0.87500000000000000        0.0000000000000000     
  0.37500000000000000       0.93750000000000000        0.0000000000000000     
  0.28749999999999998       0.91249999999999998        0.0000000000000000     
  0.33124999999999999       0.91874999999999996        0.0000000000000000     
  0.33750000000000002       0.96250000000000002        0.0000000000000000     
  0.29375000000000001       0.95625000000000004        0.0000000000000000     
  0.43750000000000000       0.87500000000000000        0.0000000000000000     
  0.50000000000000000       0.87500000000000000        0.0000000000000000     
  0.50000000000000000       0.93750000000000000        0.0000000000000000     
  0.41249999999999998       0.91249999999999998        0.0000000000000000     
  0.45624999999999999       0.91874999999999996        0.0000000000000000     
  0.46250000000000002       0.96250000000000002        0.0000000000000000     
  0.41875000000000001       0.95625000000000004        0.0000000000000000     
  0.31250000000000000       0.75000000000000000        0.0000000000000000     
  0.37500000000000000       0.75000000000000000        0.0000000000000000     
  0.37500000000000000       0.81250000000000000        0.0000000000000000     
  0.28749999999999998       0.78749999999999998        0.0000000000000000     
  0.33124999999999999       0.79374999999999996        0.0000000000000000     
  0.33750000000000002       0.83750000000000002        0.0000000000000000     
  0.29375000000000001       0.83125000000000004        0.0000000000000000     
  0.43750000000000000       0.75000000000000000        0.0000000000000000     
  0.50000000000000000       0.75000000000000000        0.0000000000000000     
  0.50000000000000000       0.81250000000000000        0.0000000000000000     
  0.41249999999999998       0.78749999999999998        0.0000000000000000     
  0.45624999999999999       0.79374999999999996        0.0000000000000000     
  0.46250000000000002       0.83750000000000002        0.0000000000000000     
  0.41875000000000001       0.83125000000000004        0.0000000000000000     
   6.2500000000000000E-002  0.62500000000000000        0.0000000000000000     
  0.12500000000000000       0.62500000000000000        0.0000000000000000     
  0.12500000000000000       0.68750000000000000        0.0000000000000000     
   3.7499999999999999E-002  0.66249999999999998        0.0000000000000000     
   8.1250000000000003E-002  0.66874999999999996        0.0000000000000000     
   8.7499999999999994E-002  0.71250000000000002        0.0000000000000000     
   4.3749999999999997E-002  0.70625000000000004        0.0000000000000000     
  0.18750000000000000       0.62500000000000000        0.0000000000000000     
  0.25000000000000000       0.62500000000000000        0.0000000000000000     
  0.25000000000000000       0.68750000000000000        0.0000000000000000     
  0.16250000000000001       0.66249999999999998        0.0000000000000000     
  0.20624999999999999       0.66874999999999996        0.0000000000000000     
  0.21249999999999999       0.71250000000000002        0.0000000000000000     
  0.16875000000000001       0.70625000000000004        0.0000000000000000     
   6.2500000000000000E-002  0.50000000000000000        0.0000000000000000     
  0.12500000000000000       0.50000000000000000        0.0000000000000000     
  0.12500000000000000       0.56250000000000000        0.0000000000000000     
   3.7499999999999999E-002  0.53749999999999998        0.0000000000000000     
   8.1250000000000003E-002  0.54374999999999996        0.0000000000000000     
   8.7499999999999994E-002  0.58750000000000002        0.0000000000000000     
   4.3749999999999997E-002  0.58125000000000004        0.0000000000000000     
  0.18750000000000000       0.50000000000000000        0.0000000000000000     
  0.25000000000000000       0.50000000000000000        0.0000000000000000     
  0.25000000000000000       0.56250000000000000        0.0000000000000000     
  0.16250000000000001       0.53749999999999998        0.0000000000000000     
  0.20624999999999999       0.54374999999999996        0.0000000000000000     
  0.21249999999999999       0.58750000000000002        0.0000000000000000     
  0.16875000000000001       0.58125000000000004        0.0000000000000000     
  0.31250000000000000       0.62500000000000000        0.0000000000000000     
  0.37500000000000000       0.62500000000000000        0.0000000000000000     
  0.37500000000000000       0.68750000000000000        0.0000000000000000     
  0.28749999999999998       0.66249999999999998        0.0000000000000000     
  0.33124999999999999       0.66874999999999996        0.0000000000000000     
  0.33750000000000002       0.71250000000000002        0.0000000000000000     
  0.29375000000000001       0.70625000000000004        0.0000000000000000     
  0.43750000000000000       0.62500000000000000        0.0000000000000000     
  0.50000000000000000       0.62500000000000000        0.0000000000000000     
  0.50000000000000000       0.68750000000000000        0.0000000000000000     
  0.41249999999999998       0.66249999999999998        0.0000000000000000     
  0.45624999999999999       0.66874999999999996        0.0000000000000000     
  0.46250000000000002       0.71250000000000002        0.0000000000000000     
  0.41875000000000001       0.70625000000000004        0.0000000000000000     
  0.31250000000000000       0.50000000000000000        0.0000000000000000     
  0.37500000000000000       0.50000000000000000        0.0000000000000000     
  0.37500000000000000       0.56250000000000000        0.0000000000000000     
  0.28749999999999998       0.53749999999999998        0.0000000000000000     
  0.33124999999999999       0.54374999999999996        0.0000000000000000     
  0.33750000000000002       0.58750000000000002        0.0000000000000000     
  0.29375000000000001       0.58125000000000004        0.0000000000000000     
  0.43750000000000000       0.50000000000000000        0.0000000000000000     
  0.50000000000000000       0.50000000000000000        0.0000000000000000     
  0.50000000000000000       0.56250000000000000        0.0000000000000000     
  0.41249999999999998       0.53749999999999998        0.0000000000000000     
  0.45624999999999999       0.54374999999999996        0.0000000000000000     
  0.46250000000000002       0.58750000000000002        0.0000000000000000     
  0.41875000000000001       0.58125000000000004        0.0000000000000000     
  0.56250000000000000       0.87500000000000000        0.0000000000000000     
  0.62500000000000000       0.87500000000000000        0.0000000000000000     
  0.62500000000000000       0.93750000000000000        0.0000000000000000     
  0.53749999999999998       0.91249999999999998        0.0000000000000000     
  0.58125000000000004       0.91874999999999996        0.0000000000000000     
  0.58750000000000002       0.96250000000000002        0.0000000000000000     
  0.54374999999999996       0.95625000000000004        0.0000000000000000     
  0.68750000000000000       0.87500000000000000        0.0000000000000000     
  0.75000000000000000       0.87500000000000000        0.0000000000000000     
  0.75000000000000000       0.93750000000000000        0.0000000000000000     
  0.66249999999999998       0.91249999999999998        0.0000000000000000     
  0.70625000000000004       0.91874999999999996        0.0000000000000000     
  0.71250000000000002       0.96250000000000002        0.0000000000000000     
[...]
 CELL_DATA         896
 SCALARS Nutrients float
 LOOKUP_TABLE default
    0.60830086261548821369E+00
    0.60827187053232190106E+00
    0.60653758618555686510E+00
    0.60653758547975333837E+00
    0.60827187066402887972E+00
    0.60830086411032502358E+00
    0.60936732471984689230E+00
    0.60993737180266216491E+00
    0.61060189776118845018E+00
    0.61060189748308568713E+00
    0.60993737217697963082E+00
    0.60936732543001848050E+00
    0.60935487371829721859E+00
    0.60935487352833694885E+00
    0.60184019121219367587E+00
    0.60095942181562078677E+00
    0.59636003034312690119E+00
    0.59693700587559250792E+00
    0.60101927055662229815E+00
    0.60153059852756396442E+00
    0.60361302825368434721E+00
    0.60495417504855053537E+00
    0.60694370215885418141E+00
    0.60753314988111328798E+00
    0.60573501240112048727E+00
    0.60542436799113441559E+00
    0.60362927848383340912E+00
    0.60352419893537034845E+00
    0.60153059685002141510E+00
    0.60101927035299573809E+00
    0.59693700662546012037E+00
    0.59636002981405722423E+00
    0.60095942253297995883E+00
    0.60184019327035398472E+00
    0.60542436700571899966E+00
    0.60573501208118396555E+00
    0.60753315018832532157E+00
    0.60694370135519415399E+00
    0.60495417509683868662E+00
    0.60361302874342448455E+00
    0.60352419899608955589E+00
    0.60362927825261869508E+00
    0.58426859515257545397E+00
    0.58001774569623876232E+00
    0.56563580191053486335E+00
    0.56563580123371537400E+00
    0.58001774629742042233E+00
    0.58426859692762211917E+00
    0.59332729336414102850E+00
    0.59413292248085314284E+00
    0.60006561701706173650E+00
    0.60006561673347302843E+00
    0.59413292332280820407E+00
    0.59332729457246569105E+00
    0.58791942231569249699E+00
    0.58791942206148428696E+00
    0.58747533403697471677E+00
    0.58827266651343579351E+00
    0.58150672510196133036E+00
    0.58472422378721122804E+00
    0.59137710046632963046E+00
    0.59364106227701041174E+00
    0.59598038649127360600E+00
    0.59701964142625529863E+00
    0.59967148268830217095E+00
    0.60028534804245492484E+00
    0.59673540382349021804E+00
    0.59494179603851649052E+00
    0.59378074508907152662E+00
    0.59427450697352723896E+00
    0.57321893021003023083E+00
    0.57819026472898915614E+00
    0.57244241651056504416E+00
    0.57854995755066296326E+00
    0.58582595349690169684E+00
    0.58995047296574831819E+00
    0.59139902171131031317E+00
    0.59099141174138780652E+00
    0.59287187548416886429E+00
    0.59269711410829972742E+00
    0.58787333560762744522E+00
    0.58310569752713103941E+00
    0.58582345677002878315E+00
    0.58739024908439563255E+00
    0.53100422578099282234E+00
    0.53179402270156395094E+00
    0.50427180652288294826E+00
    0.51721026857939578214E+00
    0.54622834948176079983E+00
    0.56086364639019692380E+00
    0.57522719793399246235E+00
    0.57227865633141539181E+00
    0.58289983665747180375E+00
    0.58076594246946422473E+00
    0.56524983778797066591E+00
    0.55798281755417977745E+00
    0.55405490893602649116E+00
    0.55718351855906633752E+00
    0.47171897800775652865E+00
    0.49217176666593681622E+00
    0.46912521193836970168E+00
    0.49406405099996958397E+00
    0.52706955589124504513E+00
    0.55005596209949680908E+00
    0.56423159876007200619E+00
    0.55498438365825597529E+00
    0.56556780824956476295E+00
    0.55815035543648294780E+00
    0.53352790441984720982E+00
    0.51103908045268198190E+00
    0.52528958107458134652E+00
    0.53350366295909734671E+00
    0.59364106060984400681E+00
    0.59137710012967914519E+00
    0.58472422443063265529E+00
    0.58150672428858474206E+00
    0.58827266680014622668E+00
    0.58747533604312429656E+00
    0.59494179501932520360E+00
    0.59673540330583529911E+00
    0.60028534811494371759E+00
    0.59967148161624528324E+00
    0.59701964126700124424E+00
    0.59598038689965326942E+00
    0.59427450674121695684E+00
    0.59378074452195439559E+00
    0.56086364431102597727E+00
    0.54622834855441115831E+00
    0.51721026887612187029E+00
    0.50427180427688123032E+00
    0.53179402281399135166E+00
    0.53100422796098112332E+00
    0.55798281645829039821E+00
    0.56524983699603903453E+00
    0.58076594321316521441E+00
    0.58289983665437650195E+00
    0.57227865693556634330E+00
    0.57522719880768358180E+00
    0.55718351852828196247E+00
    0.55405490840378779360E+00
    0.58995047279309642541E+00
    0.58582595397128789383E+00
    0.57854995887694737888E+00
    0.57244241636763293357E+00
    0.57819026541790596863E+00
    0.57321893240891441668E+00
    0.58310569651654298173E+00
    0.58787333524923224282E+00
    0.59269711430086768900E+00
    0.59287187463645607544E+00
    0.59099141199538951508E+00
    0.59139902295114821218E+00
    0.58739024930957339787E+00
    0.58582345656364354092E+00
    0.55005596161928893562E+00
    0.52706955559138224388E+00
    0.49406405134773245802E+00
    0.46912520935041079895E+00
    0.49217176763743863965E+00
    0.47171898185280020099E+00
    0.51103907939961124018E+00
    0.53352790363991509093E+00
    0.55815035607579488453E+00
    0.56556780836870268470E+00
    0.55498438471123379134E+00
    0.56423160048119413990E+00
    0.53350366336566557024E+00
    0.52528958091210420367E+00
    0.42589805942826231000E+00
    0.37383965058650570068E+00
    0.30386450537208220535E+00
    0.30386450594478009446E+00
    0.37383964901248317725E+00
    0.42589807107650107243E+00
    0.48019177253956757401E+00
    0.47061066233825493699E+00
    0.51602456782688665982E+00
    0.51602456733679713530E+00
    0.47061066268716816863E+00
    0.48019177117236305774E+00
    0.41202679415133053320E+00
    0.41202679387574270287E+00
    0.22528232266551403984E+00
    0.23930202474615619446E+00
    0.20152659821622082026E+00
    0.23240044299597345523E+00
    0.30815140427286924485E+00
    0.38590345914338086697E+00
    0.43732054593673214127E+00
    0.40094632852062994655E+00
    0.44221672062587802365E+00
    0.41585537179234211003E+00
    0.33042505779833858393E+00
    0.28530650219966796621E+00
    0.30219170881967977182E+00
    0.32357507709233807036E+00
    0.38590343730952764156E+00
    0.30815141832589121318E+00
    0.23240044787396105241E+00
    0.20152660066783734116E+00
    0.23930202394107155661E+00
    0.22528231788476207886E+00
    0.28530649792163254030E+00
    0.33042505415885792264E+00
    0.41585536906851194860E+00
    0.44221671910146442830E+00
    0.40094633001479401679E+00
    0.43732054430157896174E+00
    0.32357508092698750168E+00
    0.30219170979720805237E+00
    0.14103152962821252636E+00
    0.12312322540099944479E+00
    0.10696147970387537285E+00
    0.10696147696899642454E+00
    0.12312322106257478360E+00
    0.14103152377313057930E+00
    0.17437757163951528305E+00
    0.16447189386405425271E+00
    0.20103532181760844222E+00
    0.20103531756942441544E+00
    0.16447189378843865559E+00
    0.17437757605626102997E+00
    0.13619262341991325571E+00
    0.13619262258711362090E+00
    0.56989030992020928146E+00
    0.57815772550785771156E+00
    0.57574286806987229337E+00
    0.58284034385098804076E+00
    0.58833262778605988075E+00
    0.59307149307020923246E+00
    0.59310038988624536049E+00
    0.59111912517138776035E+00
    0.59125645462751275083E+00
    0.58998920607056426491E+00
    0.58546577587692860689E+00
    0.57848196443616628493E+00
    0.58550093866360497508E+00
    0.58780696097973961223E+00
    0.57973515592111579675E+00
    0.58817150230020665003E+00
    0.58910727553915986920E+00
    0.59454232056905276238E+00
    0.59711430756381411733E+00
    0.60079127202513293859E+00
    0.59987721958516204701E+00
    0.59730552939104597510E+00
    0.59596154281237734285E+00
    0.59407328013806581790E+00
    0.59120861805153412938E+00
    0.58434248205080363547E+00
    0.59302782040847057399E+00
    0.59521906837681071156E+00
    0.45933778168306338419E+00
    0.49210257892086878284E+00
    0.48145672100415115580E+00
    0.50996559146032716114E+00
    0.53557936611542555916E+00
    0.55920729222665899183E+00
    0.56830993442594113230E+00
    0.55536206780940977623E+00
    0.56149100438513177558E+00
    0.55021483861081610378E+00
    0.52532199923590161550E+00
    0.49388362442942213004E+00
    0.52418739116519430521E+00
    0.53490207625624686116E+00
    0.49774839906629125830E+00
    0.53134634125280577610E+00
    0.53642550538509425895E+00
    0.55628854668235927505E+00
    0.56672850728921997376E+00
    0.58213710993044365249E+00
    0.58466831001116115196E+00
    0.57313754621224843877E+00
    0.57336512519806692723E+00
    0.56216627256896967157E+00
    0.54534607814332125564E+00
    0.51583200204149692869E+00
    0.55126001394543877598E+00
    0.56046682146086146403E+00
    0.59559652997982859279E+00
    0.60087900013061834592E+00
    0.60253232188676364434E+00
    0.60519468714362378847E+00
    0.60595106370351581315E+00
    0.60786677611698936019E+00
    0.60706695319302228508E+00
    0.60520449771445272713E+00
    0.60366881498951741047E+00
    0.60205332865974614531E+00
    0.60098804637727332167E+00
    0.59647765772060801215E+00
    0.60298614116603266311E+00
    0.60433956256198584356E+00
    0.60629582796345893314E+00
    0.60828869383561345874E+00
    0.60862990149873852364E+00
    0.60943643116885592992E+00
    0.61006504269032002519E+00
    0.61067883532650202305E+00
    0.61067883487224783323E+00
    0.61006504239814784984E+00
    0.60943643047520512646E+00
    0.60862989863465921658E+00
    0.60828869303278287894E+00
    0.60629582928588310331E+00
    0.60916631831218270854E+00
    0.60968402737666449465E+00
    0.56382493911852693547E+00
    0.57971855493696677897E+00
    0.58567082114482726940E+00
    0.59255423834208897915E+00
    0.59472891242903247466E+00
    0.60079204640337968701E+00
    0.60079204590484547310E+00
    0.59472891218872536712E+00
    0.59255423845247312542E+00
    0.58567081905800588704E+00
    0.57971855482736578402E+00
    0.56382494064794053124E+00
    0.58587616249623175602E+00
    0.59025066947024418251E+00
    0.59647765554949183642E+00
    0.60098804683047790665E+00
    0.60205333131325666773E+00
    0.60366881566366981104E+00
    0.60520449846255430781E+00
    0.60706695514069941577E+00
    0.60786677710250602846E+00
    0.60595106444398882939E+00
    0.60519468698734157908E+00
    0.60253231959810227281E+00
    0.60087899965574009808E+00
    0.59559653065546425132E+00
    0.60298614119527327304E+00
    0.60433956285170331579E+00
    0.19254910604973574095E+00
    0.23905086518688384301E+00
    0.23490453381607354078E+00
    0.28057052726808762166E+00
    0.33539010665836266334E+00
    0.41985263912293252497E+00
    0.45258740927123619624E+00
    0.40233822712565969759E+00
    0.42707333934554730925E+00
    0.38664903810082157376E+00
    0.30417565688811676328E+00
    0.23276375912839708526E+00
    0.29850531415505876520E+00
    0.32777255452471809605E+00
    0.29966835219512016897E+00
    0.37310788312492226826E+00
    0.43143136327920017514E+00
    0.47360633717523220598E+00
    0.47505631475756554538E+00
    0.52179229571021001899E+00
    0.52179229451308350995E+00
    0.47505631294462802305E+00
    0.47360633487188047441E+00
    0.43143135862348924725E+00
    0.37310788316202725401E+00
    0.29966835078964015882E+00
    0.39874753966061626809E+00
    0.42869097091265817578E+00
    0.10688759965723923506E+00
    0.12173540125256675226E+00
    0.14091985985398458592E+00
    0.16559176203813702477E+00
    0.16598318767895950399E+00
    0.21032630055069037600E+00
    0.21032629969573385376E+00
    0.16598318968733857814E+00
    0.16559176711760528744E+00
    0.14091985992470032474E+00
    0.12173540039005788238E+00
    0.10688759701952520176E+00
    0.12983129105084750821E+00
    0.14275425900376187416E+00
    0.23276376050857247590E+00
    0.30417565378819255706E+00
    0.38664904713485004351E+00
    0.42707334555763026840E+00
    0.40233823239868271582E+00
    0.45258741512938993612E+00
    0.41985263697423941265E+00
    0.33539011541617819168E+00
    0.28057053109442980920E+00
    0.23490453346816150826E+00
    0.23905086305354983356E+00
    0.19254910241743986021E+00
    0.29850531483830228252E+00
    0.32777255805397820243E+00
    0.51583200082439117917E+00
    0.54534607840472448803E+00
    0.56216627500420546237E+00
    0.57336512531472461074E+00
    0.57313754657345350463E+00
    0.58466831051205436776E+00
    0.58213710934916917950E+00
    0.56672850685099873669E+00
    0.55628854635820368379E+00
    0.53642550336261529687E+00
    0.53134634176527328897E+00
    0.49774840233923361987E+00
    0.55126001412949487968E+00
    0.56046682151532734029E+00
    0.58434248013425305057E+00
    0.59120861853752249004E+00
    0.59407328285541749491E+00
    0.59596154343059082326E+00
    0.59730552995617547385E+00
    0.59987722127981502052E+00
    0.60079127274477750476E+00
    0.59711430795375719516E+00
    0.59454231986479844085E+00
    0.58910727302377385861E+00
    0.58817150174175825139E+00
    0.57973515678134246443E+00
    0.59302782030527301238E+00
    0.59521906846348504594E+00
    0.49388362513222727745E+00
    0.52532200035657505843E+00
    0.55021484174410351109E+00
    0.56149100524681005986E+00
    0.55536206903087803610E+00
    0.56830993569422461054E+00
    0.55920729210459607650E+00
    0.53557936643794923359E+00
    0.50996559226287485611E+00
    0.48145672182074328305E+00
    0.49210258308039989128E+00
    0.45933779022960535832E+00
    0.52418739270315783951E+00
    0.53490207732186234590E+00
    0.57848196306256471910E+00
    0.58546577663786625312E+00
    0.58998920891429784685E+00
    0.59125645546421434773E+00
    0.59111912605247052266E+00
    0.59310039186984653270E+00
    0.59307149398031877574E+00
    0.58833262850293377433E+00
    0.58284034358837799594E+00
    0.57574286640975969043E+00
    0.57815772595053693816E+00
    0.56989031152407787495E+00
    0.58550093899580524237E+00
    0.58780696144082622556E+00
    0.59307149270570369559E+00
    0.58833262803559727150E+00
    0.58284034483322688658E+00
    0.57574286787831463474E+00
    0.57815772650710017810E+00
    0.56989031278351287568E+00
    0.57848196411278118845E+00
    0.58546577639150676475E+00
    0.58998920777519137104E+00
    0.59125645484879463254E+00
    0.59111912581965309066E+00
    0.59310039112043144716E+00
    0.58780696136947985231E+00
    0.58550093884226339647E+00
    0.55920729167500782264E+00
    0.53557936551555307414E+00
    0.50996559210744729640E+00
    0.48145671972873882449E+00
    0.49210257986425509635E+00
    0.45933778412191766938E+00
    0.49388362316175449251E+00
    0.52532199883670793739E+00
    0.55021484074368964823E+00
    0.56149100531406115344E+00
    0.55536206903934448587E+00
    0.56830993613078750748E+00
    0.53490207640634024333E+00
    0.52418739098765565476E+00
    0.60079127099613038876E+00
    0.59711430726448599948E+00
    0.59454232100641302150E+00
    0.58910727463268475201E+00
    0.58817150247792959750E+00
    0.57973515832198307951E+00
    0.58434248128466814709E+00
    0.59120861826626536217E+00
    0.59407328162515937731E+00
    0.59596154280991298080E+00
    0.59730552963034511116E+00
    0.59987722007045352068E+00
    0.59521906830106319219E+00
    0.59302782012769394981E+00
    0.58213710923647976614E+00
    0.56672850663048268682E+00
    0.55628854718809850333E+00
    0.53642550416265077917E+00
    0.53134634136741953903E+00
    0.49774840110560497619E+00
    0.51583200085728608819E+00
    0.54534607805711399209E+00
    0.56216627462196744336E+00
    0.57336512582897936063E+00
    0.57313754714742093377E+00
    0.58466831121238471702E+00
    0.56046682158913663230E+00
    0.55126001379750655396E+00
    0.41985262862745836854E+00
    0.33539011363702575519E+00
    0.28057052934720905224E+00
    0.23490453372890446326E+00
    0.23905086308336886969E+00
    0.19254910510133319002E+00
    0.23276375954333436424E+00
    0.30417565437105476001E+00
    0.38664902737868039884E+00
    0.42707333333329000613E+00
    0.40233822793855861244E+00
    0.45258740977005290640E+00
    0.32777255436078034379E+00
    0.29850531261037116515E+00
    0.21032630359970128087E+00
    0.16598319020105234411E+00
    0.16559176432692571113E+00
    0.14091985952004318361E+00
    0.12173540035159424733E+00
    0.10688759740317445301E+00
    0.10688759772070385856E+00
    0.12173540353560598215E+00
    0.14091986615955345852E+00
    0.16559176643208081692E+00
    0.16598319069525405145E+00
    0.21032630212527619884E+00
    0.14275426065243987384E+00
    0.12983129220644443191E+00
    0.52179229373735314113E+00
    0.47505631297694717041E+00
    0.47360633760626957844E+00
    0.43143136143119720227E+00
    0.37310788239800407595E+00
    0.29966835186543444580E+00
    0.29966835021723658983E+00
    0.37310788078201367890E+00
    0.43143135472283367093E+00
    0.47360633288662828955E+00
    0.47505631302725404019E+00
    0.52179229523674752755E+00
    0.42869096987896332385E+00
    0.39874753828595477234E+00
    0.45258740829156896002E+00
    0.40233823243999383701E+00
    0.42707334915651734564E+00
    0.38664904604162175783E+00
    0.30417565831828274892E+00
    0.23276376108708007884E+00
    0.19254910330610205960E+00
    0.23905086539000103274E+00
    0.23490453827906671025E+00
    0.28057053004313731170E+00
    0.33539010907794375438E+00
    0.41985264038626018968E+00
    0.32777255516528719381E+00
    0.29850531438831523490E+00
    0.60786677484841611374E+00
    0.60595106321781544434E+00
    0.60519468752117389077E+00
    0.60253232070756823635E+00
    0.60087900001041583131E+00
    0.59559653203764906237E+00
    0.59647765651361295269E+00
    0.60098804619715606723E+00
    0.60205332964132796114E+00
    0.60366881459098964413E+00
    0.60520449765791617391E+00
    0.60706695342415095684E+00
    0.60433956222038909267E+00
    0.60298614058970845253E+00
    0.60079204535835417644E+00
    0.59472891162723773295E+00
    0.59255423888218239359E+00
    0.58567081976694446155E+00
    0.57971855491366341973E+00
    0.56382494132058691427E+00
    0.56382493965175484174E+00
    0.57971855475382827461E+00
    0.58567082094805178460E+00
    0.59255423883894609016E+00
    0.59472891285498963310E+00
    0.60079204666643815091E+00
    0.59025066943364778993E+00
    0.58587616222622407314E+00
    0.61067883393205268927E+00
    0.61006504136585437692E+00
    0.60943643022094062811E+00
    0.60862989932258781955E+00
    0.60828869329121981746E+00
    0.60629583010320309278E+00
    0.60629582824187167045E+00
    0.60828869265848617420E+00
    0.60862989934983524609E+00
    0.60943642972757561260E+00
    0.61006504180645693136E+00
    0.61067883440909775938E+00
    0.60968402647096475722E+00
    0.60916631729589543198E+00
    0.60706695382259623361E+00
    0.60520449732540781973E+00
    0.60366881487078205559E+00
    0.60205332929320498625E+00
    0.60098804664790517194E+00
    0.59647765815855757765E+00
    0.59559653010129776085E+00
    0.60087899956328438833E+00
    0.60253232126947531277E+00
    0.60519468724497404999E+00
    0.60595106462023129446E+00
    0.60786677723548776520E+00
    0.60433956241351349803E+00
    0.60298614065069355838E+00
    0.58466830892949905873E+00
    0.57313754590690635382E+00
    0.57336512611408985141E+00
    0.56216627376077132894E+00
    0.54534607864537065769E+00
    0.51583200360668690632E+00
    0.49774840129553549195E+00
    0.53134634133476543738E+00
    0.53642550453499171503E+00
    0.55628854652285908422E+00
    0.56672850730181190126E+00
    0.58213710956454112200E+00
    0.56046682145842119382E+00
    0.55126001382296663245E+00
    0.56830993396971640763E+00
    0.55536206820717659571E+00
    0.56149100557358089247E+00
    0.55021483989973440920E+00
    0.52532200027093201022E+00
    0.49388362632908722194E+00
    0.45933778923963602958E+00
    0.49210258157746367136E+00
    0.48145672045105919468E+00
    0.50996559187816703496E+00
    0.53557936677821438298E+00
    0.55920729239436606228E+00