# vtk DataFile Version 3.0
LAPLACIEN  2D
ASCII
DATASET UNSTRUCTURED_GRID
 POINTS         481  float
   6.2500000000000000E-002  0.87500000000000000        0.0000000000000000     
  0.12500000000000000       0.87500000000000000        0.0000000000000000     
  0.12500000000000000       0.93750000000000000        0.0000000000000000     
   3.7499999999999999E-002  0.91249999999999998        0.0000000000000000     
   8.1250000000000003E-002  0.91874999999999996        0.0000000000000000     
   8.7499999999999994E-002  0.96250000000000002        0.0000000000000000     
   4.3749999999999997E-002  0.95625000000000004        0.0000000000000000     
  0.18750000000000000       0.87500000000000000        0.0000000000000000     
  0.25000000000000000       0.87500000000000000        0.0000000000000000     
  0.25000000000000000       0.93750000000000000        0.0000000000000000     
  0.16250000000000001       0.91249999999999998        0.0000000000000000     
  0.20624999999999999       0.91874999999999996        0.0000000000000000     
  0.21249999999999999       0.96250000000000002        0.0000000000000000     
  0.16875000000000001       0.95625000000000004        0.0000000000000000     
   6.2500000000000000E-002  0.75000000000000000        0.0000000000000000     
  0.12500000000000000       0.75000000000000000        0.0000000000000000     
  0.12500000000000000       0.81250000000000000        0.0000000000000000     
   3.7499999999999999E-002  0.78749999999999998        0.0000000000000000     
   8.1250000000000003E-002  0.79374999999999996        0.0000000000000000     
   8.7499999999999994E-002  0.83750000000000002        0.0000000000000000     
   4.3749999999999997E-002  0.83125000000000004        0.0000000000000000     
  0.18750000000000000       0.75000000000000000        0.0000000000000000     
  0.25000000000000000       0.75000000000000000        0.0000000000000000     
  0.25000000000000000       0.81250000000000000        0.0000000000000000     
  0.16250000000000001       0.78749999999999998        0.0000000000000000     
  0.20624999999999999       0.79374999999999996        0.0000000000000000     
  0.21249999999999999       0.83750000000000002        0.0000000000000000     
  0.16875000000000001       0.83125000000000004        0.0000000000000000     
  0.31250000000000000       0.87500000000000000        0.0000000000000000     
  0.37500000000000000       0.87500000000000000        0.0000000000000000     
  0.37500000000000000       0.93750000000000000        0.0000000000000000     
  0.28749999999999998       0.91249999999999998        0.0000000000000000     
  0.33124999999999999       0.91874999999999996        0.0000000000000000     
  0.33750000000000002       0.96250000000000002        0.0000000000000000     
  0.29375000000000001       0.95625000000000004        0.0000000000000000     
  0.43750000000000000       0.87500000000000000        0.0000000000000000     
  0.50000000000000000       0.87500000000000000        0.0000000000000000     
  0.50000000000000000       0.93750000000000000        0.0000000000000000     
  0.41249999999999998       0.91249999999999998        0.0000000000000000     
  0.45624999999999999       0.91874999999999996        0.0000000000000000     
  0.46250000000000002       0.96250000000000002        0.0000000000000000     
  0.41875000000000001       0.95625000000000004        0.0000000000000000     
  0.31250000000000000       0.75000000000000000        0.0000000000000000     
  0.37500000000000000       0.75000000000000000        0.0000000000000000     
  0.37500000000000000       0.81250000000000000        0.0000000000000000     
  0.28749999999999998       0.78749999999999998        0.0000000000000000     
  0.33124999999999999       0.79374999999999996        0.0000000000000000     
  0.33750000000000002       0.83750000000000002        0.0000000000000000     
  0.29375000000000001       0.83125000000000004        0.0000000000000000     
  0.43750000000000000       0.75000000000000000        0.0000000000000000     
  0.50000000000000000       0.75000000000000000        0.0000000000000000     
  0.50000000000000000       0.81250000000000000        0.0000000000000000     
  0.41249999999999998       0.78749999999999998        0.0000000000000000     
  0.45624999999999999       0.79374999999999996        0.0000000000000000     
  0.46250000000000002       0.83750000000000002        0.0000000000000000     
  0.41875000000000001       0.83125000000000004        0.0000000000000000     
   6.2500000000000000E-002  0.62500000000000000        0.0000000000000000     
  0.12500000000000000       0.62500000000000000        0.0000000000000000     
  0.12500000000000000       0.68750000000000000        0.0000000000000000     
   3.7499999999999999E-002  0.66249999999999998        0.0000000000000000     
   8.1250000000000003E-002  0.66874999999999996        0.0000000000000000     
   8.7499999999999994E-002  0.71250000000000002        0.0000000000000000     
   4.3749999999999997E-002  0.70625000000000004        0.0000000000000000     
  0.18750000000000000       0.62500000000000000        0.0000000000000000     
  0.25000000000000000       0.62500000000000000        0.0000000000000000     
  0.25000000000000000       0.68750000000000000        0.0000000000000000     
  0.16250000000000001       0.66249999999999998        0.0000000000000000     
  0.20624999999999999       0.66874999999999996        0.0000000000000000     
  0.21249999999999999       0.71250000000000002        0.0000000000000000     
  0.16875000000000001       0.70625000000000004        0.0000000000000000     
   6.2500000000000000E-002  0.50000000000000000        0.0000000000000000     
  0.12500000000000000       0.50000000000000000        0.0000000000000000     
  0.12500000000000000       0.56250000000000000        0.0000000000000000     
   3.7499999999999999E-002  0.53749999999999998        0.0000000000000000     
   8.1250000000000003E-002  0.54374999999999996        0.0000000000000000     
   8.7499999999999994E-002  0.58750000000000002        0.0000000000000000     
   4.3749999999999997E-002  0.58125000000000004        0.0000000000000000     
  0.18750000000000000       0.50000000000000000        0.0000000000000000     
  0.25000000000000000       0.50000000000000000        0.0000000000000000     
  0.25000000000000000       0.56250000000000000        0.0000000000000000     
  0.16250000000000001       0.53749999999999998        0.0000000000000000     
  0.20624999999999999       0.54374999999999996        0.0000000000000000     
  0.21249999999999999       0.58750000000000002        0.0000000000000000     
  0.16875000000000001       0.58125000000000004        0.0000000000000000     
  0.31250000000000000       0.62500000000000000        0.0000000000000000     
  0.37500000000000000       0.62500000000000000        0.0000000000000000     
  0.37500000000000000       0.68750000000000000        0.0000000000000000     
  0.28749999999999998       0.66249999999999998        0.0000000000000000     
  0.33124999999999999       0.66874999999999996        0.0000000000000000     
  0.33750000000000002       0.71250000000000002        0.0000000000000000     
  0.29375000000000001       0.70625000000000004        0.0000000000000000     
  0.43750000000000000       0.62500000000000000        0.0000000000000000     
  0.50000000000000000       0.62500000000000000        0.0000000000000000     
  0.50000000000000000       0.68750000000000000        0.0000000000000000     
  0.41249999999999998       0.66249999999999998        0.0000000000000000     
  0.45624999999999999       0.66874999999999996        0.0000000000000000     
  0.46250000000000002       0.71250000000000002        0.0000000000000000     
  0.41875000000000001       0.70625000000000004        0.0000000000000000     
  0.31250000000000000       0.50000000000000000        0.0000000000000000     
  0.37500000000000000       0.50000000000000000        0.0000000000000000     
  0.37500000000000000       0.56250000000000000        0.0000000000000000     
  0.28749999999999998       0.53749999999999998        0.0000000000000000     
  0.33124999999999999       0.54374999999999996        0.0000000000000000     
  0.33750000000000002       0.58750000000000002        0.0000000000000000     
  0.29375000000000001       0.58125000000000004        0.0000000000000000     
  0.43750000000000000       0.50000000000000000        0.0000000000000000     
  0.50000000000000000       0.50000000000000000        0.0000000000000000     
  0.50000000000000000       0.56250000000000000        0.0000000000000000     
  0.41249999999999998       0.53749999999999998        0.0000000000000000     
  0.45624999999999999       0.54374999999999996        0.0000000000000000     
  0.46250000000000002       0.58750000000000002        0.0000000000000000     
  0.41875000000000001       0.58125000000000004        0.0000000000000000     
  0.56250000000000000       0.87500000000000000        0.0000000000000000     
  0.62500000000000000       0.87500000000000000        0.0000000000000000     
  0.62500000000000000       0.93750000000000000        0.0000000000000000     
  0.53749999999999998       0.91249999999999998        0.0000000000000000     
  0.58125000000000004       0.91874999999999996        0.0000000000000000     
  0.58750000000000002       0.96250000000000002        0.0000000000000000     
  0.54374999999999996       0.95625000000000004        0.0000000000000000     
  0.68750000000000000       0.87500000000000000        0.0000000000000000     
  0.75000000000000000       0.87500000000000000        0.0000000000000000     
  0.75000000000000000       0.93750000000000000        0.0000000000000000     
  0.66249999999999998       0.91249999999999998        0.0000000000000000     
  0.70625000000000004       0.91874999999999996        0.0000000000000000     
  0.71250000000000002       0.96250000000000002        0.0000000000000000     
[...]
 CELL_DATA         896
 SCALARS Nutrients float
 LOOKUP_TABLE default
    0.60835914825530146288E+00
    0.60833318121914270460E+00
    0.60663386996606749602E+00
    0.60663386998674129202E+00
    0.60833318088625221165E+00
    0.60835914800509682809E+00
    0.60940876173535396543E+00
    0.60997134214851289613E+00
    0.61062708588433201040E+00
    0.61062708615740124429E+00
    0.60997134249812612339E+00
    0.60940876210983685457E+00
    0.60939786925689454211E+00
    0.60939786910325932645E+00
    0.60205806607369627415E+00
    0.60120038463209657387E+00
    0.59675084142078094196E+00
    0.59730138066618732040E+00
    0.60124465625515632894E+00
    0.60172638842429493344E+00
    0.60375575632352040945E+00
    0.60507333437023447242E+00
    0.60702338202447525539E+00
    0.60760440025231954309E+00
    0.60584608549275409395E+00
    0.60554678419707752557E+00
    0.60378898994975860326E+00
    0.60368280564946774636E+00
    0.60172638862015437322E+00
    0.60124465640009139289E+00
    0.59730138034922763968E+00
    0.59675084083445051331E+00
    0.60120038342910142593E+00
    0.60205806493365887633E+00
    0.60554678317439458723E+00
    0.60584608519143701155E+00
    0.60760440085976374913E+00
    0.60702338236289221651E+00
    0.60507333456687562023E+00
    0.60375575662398039967E+00
    0.60368280548301078703E+00
    0.60378898935855473962E+00
    0.58516281332145003713E+00
    0.58109450706848864154E+00
    0.56739467850502811608E+00
    0.56739467823157407889E+00
    0.58109450616984936744E+00
    0.58516281238998946179E+00
    0.59383758964269284242E+00
    0.59461441365673306514E+00
    0.60033867709529331602E+00
    0.60033867595707479659E+00
    0.59461441327333697249E+00
    0.59383759008895342646E+00
    0.58864582040182833467E+00
    0.58864582025766443163E+00
    0.58823800665422565359E+00
    0.58900453945320652149E+00
    0.58259569470829708493E+00
    0.58563841858991161349E+00
    0.59194711007950306936E+00
    0.59408403191206538008E+00
    0.59632761737635353594E+00
    0.59734411283513522140E+00
    0.59990959866864623784E+00
    0.60051397461109590203E+00
    0.59709478374477698015E+00
    0.59538238049126535056E+00
    0.59425286358038820200E+00
    0.59471814496167685338E+00
    0.57486368543416843657E+00
    0.57952623406373848791E+00
    0.57418601953721404296E+00
    0.57986702575459947440E+00
    0.58667871203493882071E+00
    0.59055062083569365150E+00
    0.59191736888761004032E+00
    0.59154293483118691732E+00
    0.59333185143873123923E+00
    0.59317786070203504245E+00
    0.58861280707546526081E+00
    0.58412141817725138360E+00
    0.58667909013120589368E+00
    0.58814885370581693191E+00
    0.53461577663667958493E+00
    0.53563534280676428079E+00
    0.51004182032031120109E+00
    0.52244992513231935938E+00
    0.54947298111335762805E+00
    0.56324312143805499442E+00
    0.57667837069233440772E+00
    0.57385070849657171532E+00
    0.58387897690803614026E+00
    0.58183190501718418108E+00
    0.56711030544986817947E+00
    0.56014910496340153401E+00
    0.55661178888283024957E+00
    0.55961148519288661518E+00
    0.48114472804640340264E+00
    0.50040010532402567911E+00
    0.47991521906429718269E+00
    0.50251243142784063345E+00
    0.53248871861603008782E+00
    0.55352601115258626141E+00
    0.56657951051884503091E+00
    0.55800023650198171676E+00
    0.56772442303803627439E+00
    0.56077198117594573290E+00
    0.53800585183001237155E+00
    0.51700681617115928912E+00
    0.53064494805800888066E+00
    0.53823709493295068818E+00
    0.59408403210120752647E+00
    0.59194711020827506243E+00
    0.58563841826177365224E+00
    0.58259569409693889863E+00
    0.58900453820196874144E+00
    0.58823800547411797535E+00
    0.59538237931018112015E+00
    0.59709478338214072579E+00
    0.60051397518671001396E+00
    0.59990959899214146844E+00
    0.59734411301542278405E+00
    0.59632761767045894263E+00
    0.59471814475456308280E+00
    0.59425286293853396558E+00
    0.56324312235266993376E+00
    0.54947298199410377073E+00
    0.52244992539178780611E+00
    0.51004182003830111913E+00
    0.53563534189739647751E+00
    0.53461577569186069514E+00
    0.56014910435595877125E+00
    0.56711030577399479391E+00
    0.58183190611119073310E+00
    0.58387897578379821528E+00
    0.57385070807730698128E+00
    0.57667837110189568151E+00
    0.55961148530717474969E+00
    0.55661178870729666190E+00
    0.59055062104390210198E+00
    0.58667871216219802388E+00
    0.57986702542890067313E+00
    0.57418601892732434866E+00
    0.57952623281074111539E+00
    0.57486368425310574448E+00
    0.58412141699034547671E+00
    0.58861280670755578015E+00
    0.59317786127078397929E+00
    0.59333185174883684709E+00
    0.59154293497601917462E+00
    0.59191736914668491298E+00
    0.58814885348682355293E+00
    0.58667908948195379715E+00
    0.55352601210158602907E+00
    0.53248871950360432415E+00
    0.50251243169140824563E+00
    0.47991521878587845018E+00
    0.50040010441629489968E+00
    0.48114472717694040105E+00
    0.51700681556974747988E+00
    0.53800585215000062966E+00
    0.56077198226064350894E+00
    0.56772442191130079170E+00
    0.55800023608240245654E+00
    0.56657951093332037384E+00
    0.53823709504600569797E+00
    0.53064494787982385837E+00
    0.43720608328591664682E+00
    0.38608833984180573884E+00
    0.32298993698799471908E+00
    0.32298993670597647698E+00
    0.38608833861893532280E+00
    0.43720608215868916879E+00
    0.48740120821137189466E+00
    0.47735902563993903858E+00
    0.52037980582213627656E+00
    0.52037980475019685045E+00
    0.47735902529073304112E+00
    0.48740120883919796357E+00
    0.42070068429759738260E+00
    0.42070068411353478410E+00
    0.25873004408258826192E+00
    0.27138093062969814717E+00
    0.23910701665730654808E+00
    0.26692055370635747735E+00
    0.33099352885778643429E+00
    0.40498779732873413373E+00
    0.45121765787482648324E+00
    0.41735940903833779192E+00
    0.45395091801712811330E+00
    0.42857995376133073417E+00
    0.34816738661739066174E+00
    0.30775927762045018898E+00
    0.32416724777735805851E+00
    0.34293161539364919177E+00
    0.40498779845555826773E+00
    0.33099353009768622824E+00
    0.26692055397683800422E+00
    0.23910701624792057851E+00
    0.27138092908728966846E+00
    0.25873004227656265508E+00
    0.30775927691130039454E+00
    0.34816738704698568796E+00
    0.42857995506705698352E+00
    0.45395091710322121870E+00
    0.41735940872694421433E+00
    0.45121765850771705653E+00
    0.34293161556606172047E+00
    0.32416724755975018235E+00
    0.16152095098112334570E+00
    0.10930088986275285357E+00
    0.52906345214555124123E-01
    0.52906344750211227457E-01
    0.10930088874156346224E+00
    0.16152094829756979966E+00
    0.21060000579054280467E+00
    0.19645611606348498124E+00
    0.23756680100623794871E+00
    0.23756679936410374232E+00
    0.19645611504417806459E+00
    0.21060000640223008883E+00
    0.14638788717504719328E+00
    0.14638788721744197541E+00
    0.57181050588228565790E+00
    0.57949019207312379987E+00
    0.57720747120080706516E+00
    0.58385785346407048646E+00
    0.58903880835652011605E+00
    0.59353315245872961814E+00
    0.59354587982871853669E+00
    0.59166081847228402246E+00
    0.59178107545013758362E+00
    0.59058655392391234962E+00
    0.58633802796421186088E+00
    0.57980311167166231900E+00
    0.58637082801133100229E+00
    0.58853865525961546190E+00
    0.58090162360478458936E+00
    0.58889691243799302534E+00
    0.58978125334606423813E+00
    0.59498662462491502811E+00
    0.59745178512343133370E+00
    0.60100413677793496081E+00
    0.60010535700568945483E+00
    0.59761461601664522814E+00
    0.59630555162172815820E+00
    0.59449455786220273268E+00
    0.59177932387633902511E+00
    0.58526539568770230559E+00
    0.59352253845217861628E+00
    0.59562022644636780644E+00
    0.47105844138885483163E+00
    0.50030542482321260778E+00
    0.48993436071632046058E+00
    0.51597230911235469897E+00
    0.53983295775493334023E+00
    0.56170445002962443581E+00
    0.57026254569067369449E+00
    0.55831112721301723312E+00
    0.56402928239488170359E+00
    0.55366357228935936252E+00
    0.53086286843637275901E+00
    0.50234600366869142096E+00
    0.52966117353250086186E+00
    0.53942424532252197800E+00
    0.50377610284765783621E+00
    0.53514240784879318902E+00
    0.53967800735103532705E+00
    0.55849044488213750448E+00
    0.56846287831539821234E+00
    0.58311260480583826382E+00
    0.58554573921785291191E+00
    0.57462114628805072147E+00
    0.57489142354044620031E+00
    0.56440624892436896953E+00
    0.54858622134982260032E+00
    0.52114062714656861353E+00
    0.55396657798684945107E+00
    0.56261890753759369321E+00
    0.59600573158832759191E+00
    0.60111839303478242780E+00
    0.60272728195165270471E+00
    0.60532123012693206388E+00
    0.60605688767197540834E+00
    0.60793448238153213747E+00
    0.60714542673697469155E+00
    0.60531784732928251014E+00
    0.60380955919635737050E+00
    0.60223418421157071112E+00
    0.60121181680582758133E+00
    0.59684984579623667766E+00
    0.60315979908927475073E+00
    0.60447823335855388471E+00
    0.60639767048600989874E+00
    0.60835215554685284634E+00
    0.60868556224821634970E+00
    0.60948001092252968025E+00
    0.61010074434288052991E+00
    0.61070707092732945398E+00
    0.61070707146802705179E+00
    0.61010074525925228617E+00
    0.60948001282903729869E+00
    0.60868556368071657925E+00
    0.60835215577200241199E+00
    0.60639766998867228320E+00
    0.60921550299451732169E+00
    0.60972528774183643030E+00
    0.56563425566178049397E+00
    0.58078247835146734612E+00
    0.58647926470958766654E+00
    0.59307913905881770589E+00
    0.59517545844861696747E+00
    0.60103867096829499683E+00
    0.60103867066852401102E+00
    0.59517545948882133455E+00
    0.59307914095435165791E+00
    0.58647926507111247663E+00
    0.58078247797288962140E+00
    0.56563425479611650903E+00
    0.58666915688092069470E+00
    0.59086534233749032907E+00
    0.59684984597061807587E+00
    0.60121181622297226177E+00
    0.60223418260552064041E+00
    0.60380955697530813708E+00
    0.60531784557057044527E+00
    0.60714542461855369737E+00
    0.60793448052139842375E+00
    0.60605688765362242254E+00
    0.60532123134908488726E+00
    0.60272728197194225253E+00
    0.60111839224544771909E+00
    0.59600573038674020676E+00
    0.60315979836366484523E+00
    0.60447823261628652602E+00
    0.23141783156897821616E+00
    0.27100021612182717545E+00
    0.26618477192895617645E+00
    0.30335710440015500877E+00
    0.35204855995889822173E+00
    0.43165401597494135189E+00
    0.46326890877272453029E+00
    0.41818221163089069892E+00
    0.44190690332849918986E+00
    0.40568740342671255616E+00
    0.32749361645862651304E+00
    0.26729165471672000631E+00
    0.32123492558037136657E+00
    0.34623325244001645906E+00
    0.31915838120563333469E+00
    0.38515786751306696489E+00
    0.44185705572855799028E+00
    0.48103009450752887144E+00
    0.48142249762853622785E+00
    0.52575620941174294742E+00
    0.52575620899996500235E+00
    0.48142249862738845101E+00
    0.48103009618668152170E+00
    0.44185705580215201005E+00
    0.38515786674015034530E+00
    0.31915837968121668622E+00
    0.40817604733064155598E+00
    0.43625755393150322803E+00
    0.53698963648743658350E-01
    0.10968494237466852592E+00
    0.16341047090991556168E+00
    0.20319067034503054958E+00
    0.20306709340026840582E+00
    0.24560349316746662995E+00
    0.24560349273258078040E+00
    0.20306709462459912596E+00
    0.20319067172639676544E+00
    0.16341046937175196518E+00
    0.10968494096053528486E+00
    0.53698962403038029423E-01
    0.13603263249133723534E+00
    0.16532195624324916294E+00
    0.26729165632839252398E+00
    0.32749361729260645371E+00
    0.40568740338151709768E+00
    0.44190690172074298392E+00
    0.41818221079773071347E+00
    0.46326890930735903362E+00
    0.43165401580766604717E+00
    0.35204856165048170613E+00
    0.30335710691515571646E+00
    0.26618477257842304562E+00
    0.27100021557889297785E+00
    0.23141783055444478667E+00
    0.32123492577594586761E+00
    0.34623325274178196054E+00
    0.52114062796320570481E+00
    0.54858622170711057731E+00
    0.56440624855973320351E+00
    0.57489142164126216805E+00
    0.57462114522622353974E+00
    0.58554573945852050887E+00
    0.58311260432835265721E+00
    0.56846287926081551234E+00
    0.55849044661095770259E+00
    0.53967800763931816910E+00
    0.53514240744130014971E+00
    0.50377610196108713048E+00
    0.55396657796406278962E+00
    0.56261890750621357249E+00
    0.58526539586496306722E+00
    0.59177932329124827149E+00
    0.59449455625581193452E+00
    0.59630554939876612153E+00
    0.59761461424726591840E+00
    0.60010535485779892273E+00
    0.60100413482812009569E+00
    0.59745178504050122648E+00
    0.59498662569316995707E+00
    0.58978125330137520788E+00
    0.58889691162997925833E+00
    0.58090162240091491874E+00
    0.59352253771545104843E+00
    0.59562022568603256722E+00
    0.50234600445028387838E+00
    0.53086286878627575447E+00
    0.55366357193443049844E+00
    0.56402928052357625965E+00
    0.55831112619209222192E+00
    0.57026254595565983863E+00
    0.56170444955504506002E+00
    0.53983295870212755219E+00
    0.51597231083715389133E+00
    0.48993436107550569769E+00
    0.50030542447844139620E+00
    0.47105844054579748548E+00
    0.52966117352583363953E+00
    0.53942424530529486937E+00
    0.57980311180779298130E+00
    0.58633802735776163750E+00
    0.59058655228672762849E+00
    0.59178107321196871116E+00
    0.59166081669891135153E+00
    0.59354587767999167358E+00
    0.59353315050918997731E+00
    0.58903880827607790760E+00
    0.58385785454236072134E+00
    0.57720747119161885941E+00
    0.57949019130731482807E+00
    0.57181050468983185553E+00
    0.58637082727843636842E+00
    0.58853865450036502160E+00
    0.59353315266852291199E+00
    0.58903880848141576543E+00
    0.58385785318439220593E+00
    0.57720747061220112339E+00
    0.57949019083396757779E+00
    0.57181050470762284643E+00
    0.57980311049331423323E+00
    0.58633802763711984074E+00
    0.59058655454907760252E+00
    0.59178107582622585525E+00
    0.59166081863582675737E+00
    0.59354588009123587788E+00
    0.58853865504184887936E+00
    0.58637082738491541622E+00
    0.56170445097486476627E+00
    0.53983295861804803106E+00
    0.51597230941810356963E+00
    0.48993436045992050376E+00
    0.50030542392726418122E+00
    0.47105844052444734160E+00
    0.50234600307618360038E+00
    0.53086286880027211410E+00
    0.55366357340850125279E+00
    0.56402928127635099109E+00
    0.55831112679259808917E+00
    0.57026254611419324725E+00
    0.53942424541858347009E+00
    0.52966117337625562289E+00
    0.60100413698737054080E+00
    0.59745178524562858602E+00
    0.59498662433513571646E+00
    0.58978125272760240083E+00
    0.58889691116453790620E+00
    0.58090162242510490209E+00
    0.58526539455675608004E+00
    0.59177932356574847184E+00
    0.59449455849383037176E+00
    0.59630555200184320874E+00
    0.59761461618125522044E+00
    0.60010535726862646033E+00
    0.59562022622721533249E+00
    0.59352253782236463753E+00
    0.58311260574757362019E+00
    0.56846287916800453122E+00
    0.55849044516175527786E+00
    0.53967800702942814173E+00
    0.53514240689796288564E+00
    0.50377610195311539609E+00
    0.52114062659566073865E+00
    0.54858622172290472108E+00
    0.56440625003847788577E+00
    0.57489142240244339721E+00
    0.57462114583543766333E+00
    0.58554573962134559562E+00
    0.56261890762023258894E+00
    0.55396657781632452355E+00
    0.43165401712314044325E+00
    0.35204856119502192513E+00
    0.30335710465243548306E+00
    0.26618477156345005108E+00
    0.27100021473886404255E+00
    0.23141783040171665098E+00
    0.26729165411369737448E+00
    0.32749361691571021726E+00
    0.40568740472513109552E+00
    0.44190690241468683075E+00
    0.41818221133358224328E+00
    0.46326890942095810821E+00
    0.34623325262917131750E+00
    0.32123492540077291935E+00
    0.24560349480344370598E+00
    0.20306709448017756792E+00
    0.20319066958783002508E+00
    0.16341046839705511418E+00
    0.10968494006936153895E+00
    0.53698962200372818421E-01
    0.53698962172667563664E-01
    0.10968494275762545598E+00
    0.16341047371588968140E+00
    0.20319067152747016802E+00
    0.20306709410877207822E+00
    0.24560349334421355261E+00
    0.16532195608256616826E+00
    0.13603263204054988345E+00
    0.52575621040786935101E+00
    0.48142249850950408208E+00
    0.48103009472637270338E+00
    0.44185705514698869756E+00
    0.38515786601564017122E+00
    0.31915837943586078396E+00
    0.31915837895883897302E+00
    0.38515786713642646832E+00
    0.44185705710174955074E+00
    0.48103009522866002623E+00
    0.48142249821705734858E+00
    0.52575620955949076141E+00
    0.43625755393213594413E+00
    0.40817604703408322253E+00
    0.46326891016775451071E+00
    0.41818221163189966960E+00
    0.44190690195395992967E+00
    0.40568740281331683306E+00
    0.32749361579235014563E+00
    0.26729165452150771554E+00
    0.23141782945800479232E+00
    0.27100021615473091074E+00
    0.26618477403000256887E+00
    0.30335710533028048541E+00
    0.35204856069292267406E+00
    0.43165401609626646851E+00
    0.34623325259138604260E+00
    0.32123492545302179124E+00
    0.60793448257020599179E+00
    0.60605688778554966945E+00
    0.60532122981805325246E+00
    0.60272728132127517675E+00
    0.60111839175733672302E+00
    0.59600573040493154409E+00
    0.59684984466022139582E+00
    0.60121181649388133472E+00
    0.60223418484286073138E+00
    0.60380955957601789574E+00
    0.60531784749204642360E+00
    0.60714542699358486910E+00
    0.60447823313720039362E+00
    0.60315979845779321700E+00
    0.60103867184110348898E+00
    0.59517545927648518589E+00
    0.59307913930538658231E+00
    0.58647926434915353955E+00
    0.58078247737923194283E+00
    0.56563425472876827094E+00
    0.56563425422809965326E+00
    0.58078247834180696252E+00
    0.58647926618445089808E+00
    0.59307913981387094804E+00
    0.59517545902901491939E+00
    0.60103867105111397073E+00
    0.59086534241174404336E+00
    0.58666915670258812376E+00
    0.61070707125045620156E+00
    0.61010074408427661385E+00
    0.60948001018025099729E+00
    0.60868556081511415723E+00
    0.60835215395940467342E+00
    0.60639766912412118582E+00
    0.60639766880629697443E+00
    0.60835215538295805970E+00
    0.60868556426778996915E+00
    0.60948001311575406014E+00
    0.61010074515801304695E+00
    0.61070707124198575499E+00
    0.60972528727165442586E+00
    0.60921550216547748491E+00
    0.60714542405346016984E+00
    0.60531784485319717337E+00
    0.60380955609682707141E+00
    0.60223418114663018752E+00
    0.60121181470421092286E+00
    0.59684984483524083920E+00
    0.59600572976148058491E+00
    0.60111839236291797484E+00
    0.60272728294607080812E+00
    0.60532122993727033311E+00
    0.60605688627575249328E+00
    0.60793447962283719832E+00
    0.60447823170403280901E+00
    0.60315979750403192483E+00
    0.58554574032313211340E+00
    0.57462114605738434658E+00
    0.57489142189076392064E+00
    0.56440624820740870060E+00
    0.54858622075718876943E+00
    0.52114062709130604123E+00
    0.50377610141898188090E+00
    0.53514240783288735681E+00
    0.53967800880770377958E+00
    0.55849044559717953007E+00
    0.56846287886557467228E+00
    0.58311260481063442729E+00
    0.56261890760072175155E+00
    0.55396657780271807425E+00
    0.57026254684117905214E+00
    0.55831112706593677419E+00
    0.56402928080309766568E+00
    0.55366357159015522349E+00
    0.53086286783959990565E+00
    0.50234600355053160570E+00
    0.47105844000507274272E+00
    0.50030542488543094937E+00
    0.48993436220910480117E+00
    0.51597230984388853248E+00
    0.53983295832153510574E+00
    0.56170445004867908256E+00