# vtk DataFile Version 3.0
LAPLACIEN  2D
ASCII
DATASET UNSTRUCTURED_GRID
 POINTS         481  float
   6.2500000000000000E-002  0.87500000000000000        0.0000000000000000     
  0.12500000000000000       0.87500000000000000        0.0000000000000000     
  0.12500000000000000       0.93750000000000000        0.0000000000000000     
   3.7499999999999999E-002  0.91249999999999998        0.0000000000000000     
   8.1250000000000003E-002  0.91874999999999996        0.0000000000000000     
   8.7499999999999994E-002  0.96250000000000002        0.0000000000000000     
   4.3749999999999997E-002  0.95625000000000004        0.0000000000000000     
  0.18750000000000000       0.87500000000000000        0.0000000000000000     
  0.25000000000000000       0.87500000000000000        0.0000000000000000     
  0.25000000000000000       0.93750000000000000        0.0000000000000000     
  0.16250000000000001       0.91249999999999998        0.0000000000000000     
  0.20624999999999999       0.91874999999999996        0.0000000000000000     
  0.21249999999999999       0.96250000000000002        0.0000000000000000     
  0.16875000000000001       0.95625000000000004        0.0000000000000000     
   6.2500000000000000E-002  0.75000000000000000        0.0000000000000000     
  0.12500000000000000       0.75000000000000000        0.0000000000000000     
  0.12500000000000000       0.81250000000000000        0.0000000000000000     
   3.7499999999999999E-002  0.78749999999999998        0.0000000000000000     
   8.1250000000000003E-002  0.79374999999999996        0.0000000000000000     
   8.7499999999999994E-002  0.83750000000000002        0.0000000000000000     
   4.3749999999999997E-002  0.83125000000000004        0.0000000000000000     
  0.18750000000000000       0.75000000000000000        0.0000000000000000     
  0.25000000000000000       0.75000000000000000        0.0000000000000000     
  0.25000000000000000       0.81250000000000000        0.0000000000000000     
  0.16250000000000001       0.78749999999999998        0.0000000000000000     
  0.20624999999999999       0.79374999999999996        0.0000000000000000     
  0.21249999999999999       0.83750000000000002        0.0000000000000000     
  0.16875000000000001       0.83125000000000004        0.0000000000000000     
  0.31250000000000000       0.87500000000000000        0.0000000000000000     
  0.37500000000000000       0.87500000000000000        0.0000000000000000     
  0.37500000000000000       0.93750000000000000        0.0000000000000000     
  0.28749999999999998       0.91249999999999998        0.0000000000000000     
  0.33124999999999999       0.91874999999999996        0.0000000000000000     
  0.33750000000000002       0.96250000000000002        0.0000000000000000     
  0.29375000000000001       0.95625000000000004        0.0000000000000000     
  0.43750000000000000       0.87500000000000000        0.0000000000000000     
  0.50000000000000000       0.87500000000000000        0.0000000000000000     
  0.50000000000000000       0.93750000000000000        0.0000000000000000     
  0.41249999999999998       0.91249999999999998        0.0000000000000000     
  0.45624999999999999       0.91874999999999996        0.0000000000000000     
  0.46250000000000002       0.96250000000000002        0.0000000000000000     
  0.41875000000000001       0.95625000000000004        0.0000000000000000     
  0.31250000000000000       0.75000000000000000        0.0000000000000000     
  0.37500000000000000       0.75000000000000000        0.0000000000000000     
  0.37500000000000000       0.81250000000000000        0.0000000000000000     
  0.28749999999999998       0.78749999999999998        0.0000000000000000     
  0.33124999999999999       0.79374999999999996        0.0000000000000000     
  0.33750000000000002       0.83750000000000002        0.0000000000000000     
  0.29375000000000001       0.83125000000000004        0.0000000000000000     
  0.43750000000000000       0.75000000000000000        0.0000000000000000     
  0.50000000000000000       0.75000000000000000        0.0000000000000000     
  0.50000000000000000       0.81250000000000000        0.0000000000000000     
  0.41249999999999998       0.78749999999999998        0.0000000000000000     
  0.45624999999999999       0.79374999999999996        0.0000000000000000     
  0.46250000000000002       0.83750000000000002        0.0000000000000000     
  0.41875000000000001       0.83125000000000004        0.0000000000000000     
   6.2500000000000000E-002  0.62500000000000000        0.0000000000000000     
  0.12500000000000000       0.62500000000000000        0.0000000000000000     
  0.12500000000000000       0.68750000000000000        0.0000000000000000     
   3.7499999999999999E-002  0.66249999999999998        0.0000000000000000     
   8.1250000000000003E-002  0.66874999999999996        0.0000000000000000     
   8.7499999999999994E-002  0.71250000000000002        0.0000000000000000     
   4.3749999999999997E-002  0.70625000000000004        0.0000000000000000     
  0.18750000000000000       0.62500000000000000        0.0000000000000000     
  0.25000000000000000       0.62500000000000000        0.0000000000000000     
  0.25000000000000000       0.68750000000000000        0.0000000000000000     
  0.16250000000000001       0.66249999999999998        0.0000000000000000     
  0.20624999999999999       0.66874999999999996        0.0000000000000000     
  0.21249999999999999       0.71250000000000002        0.0000000000000000     
  0.16875000000000001       0.70625000000000004        0.0000000000000000     
   6.2500000000000000E-002  0.50000000000000000        0.0000000000000000     
  0.12500000000000000       0.50000000000000000        0.0000000000000000     
  0.12500000000000000       0.56250000000000000        0.0000000000000000     
   3.7499999999999999E-002  0.53749999999999998        0.0000000000000000     
   8.1250000000000003E-002  0.54374999999999996        0.0000000000000000     
   8.7499999999999994E-002  0.58750000000000002        0.0000000000000000     
   4.3749999999999997E-002  0.58125000000000004        0.0000000000000000     
  0.18750000000000000       0.50000000000000000        0.0000000000000000     
  0.25000000000000000       0.50000000000000000        0.0000000000000000     
  0.25000000000000000       0.56250000000000000        0.0000000000000000     
  0.16250000000000001       0.53749999999999998        0.0000000000000000     
  0.20624999999999999       0.54374999999999996        0.0000000000000000     
  0.21249999999999999       0.58750000000000002        0.0000000000000000     
  0.16875000000000001       0.58125000000000004        0.0000000000000000     
  0.31250000000000000       0.62500000000000000        0.0000000000000000     
  0.37500000000000000       0.62500000000000000        0.0000000000000000     
  0.37500000000000000       0.68750000000000000        0.0000000000000000     
  0.28749999999999998       0.66249999999999998        0.0000000000000000     
  0.33124999999999999       0.66874999999999996        0.0000000000000000     
  0.33750000000000002       0.71250000000000002        0.0000000000000000     
  0.29375000000000001       0.70625000000000004        0.0000000000000000     
  0.43750000000000000       0.62500000000000000        0.0000000000000000     
  0.50000000000000000       0.62500000000000000        0.0000000000000000     
  0.50000000000000000       0.68750000000000000        0.0000000000000000     
  0.41249999999999998       0.66249999999999998        0.0000000000000000     
  0.45624999999999999       0.66874999999999996        0.0000000000000000     
  0.46250000000000002       0.71250000000000002        0.0000000000000000     
  0.41875000000000001       0.70625000000000004        0.0000000000000000     
  0.31250000000000000       0.50000000000000000        0.0000000000000000     
  0.37500000000000000       0.50000000000000000        0.0000000000000000     
  0.37500000000000000       0.56250000000000000        0.0000000000000000     
  0.28749999999999998       0.53749999999999998        0.0000000000000000     
  0.33124999999999999       0.54374999999999996        0.0000000000000000     
  0.33750000000000002       0.58750000000000002        0.0000000000000000     
  0.29375000000000001       0.58125000000000004        0.0000000000000000     
  0.43750000000000000       0.50000000000000000        0.0000000000000000     
  0.50000000000000000       0.50000000000000000        0.0000000000000000     
  0.50000000000000000       0.56250000000000000        0.0000000000000000     
  0.41249999999999998       0.53749999999999998        0.0000000000000000     
  0.45624999999999999       0.54374999999999996        0.0000000000000000     
  0.46250000000000002       0.58750000000000002        0.0000000000000000     
  0.41875000000000001       0.58125000000000004        0.0000000000000000     
  0.56250000000000000       0.87500000000000000        0.0000000000000000     
  0.62500000000000000       0.87500000000000000        0.0000000000000000     
  0.62500000000000000       0.93750000000000000        0.0000000000000000     
  0.53749999999999998       0.91249999999999998        0.0000000000000000     
  0.58125000000000004       0.91874999999999996        0.0000000000000000     
  0.58750000000000002       0.96250000000000002        0.0000000000000000     
  0.54374999999999996       0.95625000000000004        0.0000000000000000     
  0.68750000000000000       0.87500000000000000        0.0000000000000000     
  0.75000000000000000       0.87500000000000000        0.0000000000000000     
  0.75000000000000000       0.93750000000000000        0.0000000000000000     
  0.66249999999999998       0.91249999999999998        0.0000000000000000     
  0.70625000000000004       0.91874999999999996        0.0000000000000000     
  0.71250000000000002       0.96250000000000002        0.0000000000000000     
[...]
 CELL_DATA         896
 SCALARS Nutrients float
 LOOKUP_TABLE default
    0.60831767546400439262E+00
    0.60828933108168914412E+00
    0.60656386635766912363E+00
    0.60656386579662546765E+00
    0.60828933122240735898E+00
    0.60831767676128700728E+00
    0.60937951345984275875E+00
    0.60994742210734909094E+00
    0.61060941371889765339E+00
    0.61060941357694675791E+00
    0.60994742253742328941E+00
    0.60937951409064583519E+00
    0.60936743093847101083E+00
    0.60936743075599031361E+00
    0.60189324756708717512E+00
    0.60101742422259163412E+00
    0.59644656323251543650E+00
    0.59701994343833542089E+00
    0.60107557821686508071E+00
    0.60158232242920062216E+00
    0.60365236824949497496E+00
    0.60498700710211328335E+00
    0.60696640358207387678E+00
    0.60755342696041603201E+00
    0.60576501209004895987E+00
    0.60545669945642532905E+00
    0.60367070796397737098E+00
    0.60356577521063548009E+00
    0.60158232096659636223E+00
    0.60107557797121735632E+00
    0.59701994396501856244E+00
    0.59644656273969842708E+00
    0.60101742483580422594E+00
    0.60189324941152555493E+00
    0.60545669849046579447E+00
    0.60576501171689567382E+00
    0.60755342725220051747E+00
    0.60696640299211901404E+00
    0.60498700722376574923E+00
    0.60365236867024107958E+00
    0.60356577523846233202E+00
    0.60367070770368802535E+00
    0.58443087848493135983E+00
    0.58020175284596520182E+00
    0.56589759048253440721E+00
    0.56589758993123584485E+00
    0.58020175340619617455E+00
    0.58443088009733723531E+00
    0.59343287283801926524E+00
    0.59423313279806788678E+00
    0.60012936918061032809E+00
    0.60012936897225444000E+00
    0.59423313360504448344E+00
    0.59343287393108257177E+00
    0.58805717097502419044E+00
    0.58805717073921071059E+00
    0.58762178227880357273E+00
    0.58841690048701589255E+00
    0.58170079692990916964E+00
    0.58489852942305975425E+00
    0.59150073617328091657E+00
    0.59374702118495503722E+00
    0.59606833297620331891E+00
    0.59710068656484449612E+00
    0.59973415783535777290E+00
    0.60034466203004044349E+00
    0.59681937470460422190E+00
    0.59503807376084028036E+00
    0.59388574507426139526E+00
    0.59437602400692235438E+00
    0.57348222011803295928E+00
    0.57842111368050386222E+00
    0.57271993657257380672E+00
    0.57878151850309977888E+00
    0.58599768034940347139E+00
    0.59008716392910642856E+00
    0.59152327284673877905E+00
    0.59111923621307704835E+00
    0.59298381169465452789E+00
    0.59281058936430686135E+00
    0.58802599081149498073E+00
    0.58329401440475148188E+00
    0.58599396132624270717E+00
    0.58754840425625720624E+00
    0.53141516866146465414E+00
    0.53222554849254977150E+00
    0.50482462585997278648E+00
    0.51774841559105677646E+00
    0.54662566622198649480E+00
    0.56119501374471525423E+00
    0.57546230688468813508E+00
    0.57252311518701481940E+00
    0.58307494606245890978E+00
    0.58095061277189519178E+00
    0.56552079350929518320E+00
    0.55828124146981694675E+00
    0.55439170242265667365E+00
    0.55751128039745212472E+00
    0.47248431057346418349E+00
    0.49290198117842182191E+00
    0.46999564017958289641E+00
    0.49482337700676320980E+00
    0.52764342144322340378E+00
    0.55049142476808465840E+00
    0.56456820080979452925E+00
    0.55537740158707571414E+00
    0.56588334688454289267E+00
    0.55850571603790433173E+00
    0.53402651521564703518E+00
    0.51162491572532009521E+00
    0.52585419375221942317E+00
    0.53402959975153663219E+00
    0.59374701971600341022E+00
    0.59150073578820383524E+00
    0.58489852983382084606E+00
    0.58170079615911918225E+00
    0.58841690068909102695E+00
    0.58762178406517717733E+00
    0.59503807271556097280E+00
    0.59681937413395502734E+00
    0.60034466213261128420E+00
    0.59973415704300869766E+00
    0.59710068650013281566E+00
    0.59606833331497244277E+00
    0.59437602374728137899E+00
    0.59388574448436948217E+00
    0.56119501186471276721E+00
    0.54662566538634949076E+00
    0.51774841585237152408E+00
    0.50482462403854078126E+00
    0.53222554865382065703E+00
    0.53141517063653909148E+00
    0.55828124043608906568E+00
    0.56552079273827449146E+00
    0.58095061340866571697E+00
    0.58307494612395938116E+00
    0.57252311576181402764E+00
    0.57546230765256745077E+00
    0.55751128037350550226E+00
    0.55439170193834041989E+00
    0.59008716369235858501E+00
    0.58599768063106394411E+00
    0.57878151948932610171E+00
    0.57271993637425711032E+00
    0.57842111421684705430E+00
    0.57348222206300392134E+00
    0.58329401334818853364E+00
    0.58802599036011693467E+00
    0.59281058955566379165E+00
    0.59298381107358533182E+00
    0.59111923645147435025E+00
    0.59152327382989833282E+00
    0.58754840435955713041E+00
    0.58599396102377343531E+00
    0.55049142428720987397E+00
    0.52764342119578400148E+00
    0.49482337739090553885E+00
    0.46999563815741662864E+00
    0.49290198215872077503E+00
    0.47248431411737595864E+00
    0.51162491479125282723E+00
    0.53402651448810212198E+00
    0.55850571658785264084E+00
    0.56588334705095166832E+00
    0.55537740256113476978E+00
    0.56456820231168036717E+00
    0.53402960014035250058E+00
    0.52585419362991281389E+00
    0.42665189653589102869E+00
    0.37444817483776499101E+00
    0.30454757082857819572E+00
    0.30454757138654930948E+00
    0.37444817361002175060E+00
    0.42665190615660414375E+00
    0.48080117914889419772E+00
    0.47116897575383842600E+00
    0.51647925245410242212E+00
    0.51647925208647460504E+00
    0.47116897615160119317E+00
    0.48080117818668943741E+00
    0.41256889892866072111E+00
    0.41256889868573232150E+00
    0.22573626285248046819E+00
    0.23974772686904949337E+00
    0.20161080251887489312E+00
    0.23279547489198756938E+00
    0.30864909008739849217E+00
    0.38701142161974871891E+00
    0.43831805691237474276E+00
    0.40201274110115026161E+00
    0.44306573943102511848E+00
    0.41665146918117390573E+00
    0.33101037779134756533E+00
    0.28597605006454612786E+00
    0.30273054865867304875E+00
    0.32402653797314379114E+00
    0.38701140374478348871E+00
    0.30864910144985646667E+00
    0.23279547903506359052E+00
    0.20161080481874305015E+00
    0.23974772590215195911E+00
    0.22573625787177256652E+00
    0.28597604609209353876E+00
    0.33101037484535433819E+00
    0.41665146687372300871E+00
    0.44306573850012137550E+00
    0.40201274244653983914E+00
    0.43831805571881898853E+00
    0.32402654102064670782E+00
    0.30273054935956528189E+00
    0.14034110041314826200E+00
    0.12245066772558711732E+00
    0.10670210954982838059E+00
    0.10670210669288189564E+00
    0.12245066333469552255E+00
    0.14034109447805862003E+00
    0.17411519675934408746E+00
    0.16410764257252413723E+00
    0.20126883464596082018E+00
    0.20126883038490198108E+00
    0.16410764246703496427E+00
    0.17411520105439723394E+00
    0.13546017003390636857E+00
    0.13546016920734677003E+00
    0.57018644864144574225E+00
    0.57838825117727676872E+00
    0.57598663979487263465E+00
    0.58303009582867904026E+00
    0.58848072581259180946E+00
    0.59318118156015731124E+00
    0.59320975320187696589E+00
    0.59124528762680739202E+00
    0.59138168068647956055E+00
    0.59012545432324647887E+00
    0.58564012714482527322E+00
    0.57871388876499740839E+00
    0.58567388690573629617E+00
    0.58796074654048102737E+00
    0.57993944250491169523E+00
    0.58831506919954046353E+00
    0.58924152270868057624E+00
    0.59464005966102306822E+00
    0.59719450405403884385E+00
    0.60084664447085567307E+00
    0.59993757870492803175E+00
    0.59738346983101464627E+00
    0.59604868164980351342E+00
    0.59417493535451826325E+00
    0.59133240574672196743E+00
    0.58451888034471288780E+00
    0.59313725160076080645E+00
    0.59531253158031816053E+00
    0.46024332274926788022E+00
    0.49282916515839947369E+00
    0.48217709167123151692E+00
    0.51055662217228003907E+00
    0.53606280589339727616E+00
    0.55955074231873269675E+00
    0.56860444369348039917E+00
    0.55574992750839935507E+00
    0.56184719320541232079E+00
    0.55064890814419242826E+00
    0.52590339381444062283E+00
    0.49464201695643256196E+00
    0.52476098967779372106E+00
    0.53541134778332666322E+00
    0.49830934512099311906E+00
    0.53177426828871587894E+00
    0.53681349699572078471E+00
    0.55659359681022779753E+00
    0.56698940936846420335E+00
    0.58231077173050094231E+00
    0.58483039039428563743E+00
    0.57337432452675407557E+00
    0.57361049767206961914E+00
    0.56248473686196720500E+00
    0.54574385864884500386E+00
    0.51637605768451344534E+00
    0.55161144773797876617E+00
    0.56076985956843450332E+00
    0.59568664656689629400E+00
    0.60093653637822397329E+00
    0.60258042387881627366E+00
    0.60522759862349873039E+00
    0.60597928897043584762E+00
    0.60788524547245204044E+00
    0.60708858021535561100E+00
    0.60523532163037074838E+00
    0.60370710648980729918E+00
    0.60210111747334971177E+00
    0.60104372965892327585E+00
    0.59656248753816942809E+00
    0.60303040451574219105E+00
    0.60437595786667519526E+00
    0.60632287430793563310E+00
    0.60830583144630623327E+00
    0.60864504888411175010E+00
    0.60944817147933849633E+00
    0.61007445991175324185E+00
    0.61068601846856351845E+00
    0.61068601816824441553E+00
    0.61007445970650209244E+00
    0.60944817098313175396E+00
    0.60864504650339057434E+00
    0.60830583084558687013E+00
    0.60632287559657793707E+00
    0.60917955291808090212E+00
    0.60969503858122942042E+00
    0.56409396336312034315E+00
    0.57990207905261093035E+00
    0.58582216296590694515E+00
    0.59266320000385841471E+00
    0.59482427427284756405E+00
    0.60085052884658163297E+00
    0.60085052844692343754E+00
    0.59482427412436544856E+00
    0.59266320023265262051E+00
    0.58582216127568198516E+00
    0.57990207903675039525E+00
    0.56409396478368112327E+00
    0.58602420192080995065E+00
    0.59037285321833743446E+00
    0.59656248523454158406E+00
    0.60104372967562003094E+00
    0.60210111943250554933E+00
    0.60370710670154226207E+00
    0.60523532191887285947E+00
    0.60708858150563338452E+00
    0.60788524614649075417E+00
    0.60597928938932588139E+00
    0.60522759830808503523E+00
    0.60258042174426140747E+00
    0.60093653575284455837E+00
    0.59568664696256168334E+00
    0.60303040422229270412E+00
    0.60437595780324959716E+00
    0.19250459033329705982E+00
    0.23948588108091517501E+00
    0.23546098507149917922E+00
    0.28122746148010369094E+00
    0.33592751162354284045E+00
    0.42058903517306539532E+00
    0.45338847190241704510E+00
    0.40335654080745259042E+00
    0.42809603164771115047E+00
    0.38776567975721837334E+00
    0.30468005255077601490E+00
    0.23315557325742758410E+00
    0.29903203438538639158E+00
    0.32825546969804136888E+00
    0.30032726895973460568E+00
    0.37369211960504278291E+00
    0.43213763224364160065E+00
    0.47421925744463999663E+00
    0.47560110733682625650E+00
    0.52222362376370201620E+00
    0.52222362272230549163E+00
    0.47560110578413156146E+00
    0.47421925543104875844E+00
    0.43213762823928608681E+00
    0.37369211944502367384E+00
    0.30032726762250816499E+00
    0.39929942978350374538E+00
    0.42920942322182192852E+00
    0.10661438504539499927E+00
    0.12104275926343018022E+00
    0.14022600886732844438E+00
    0.16520834828502792280E+00
    0.16564521042239499504E+00
    0.21066886560763353753E+00
    0.21066886465262130157E+00
    0.16564521232666412631E+00
    0.16520835320360868770E+00
    0.14022600890892727987E+00
    0.12104275839879823085E+00
    0.10661438245139129299E+00
    0.12907365044027732659E+00
    0.14210426029236791767E+00
    0.23315557437791276096E+00
    0.30468005023365424266E+00
    0.38776568696973756634E+00
    0.42809603700635728840E+00
    0.40335654544259097465E+00
    0.45338847686932876035E+00
    0.42058903365528688134E+00
    0.33592751887265526189E+00
    0.28122746496261452620E+00
    0.23546098494388664757E+00
    0.23948587901791773547E+00
    0.19250458666829228793E+00
    0.29903203495396685208E+00
    0.32825547257503751020E+00
    0.51637605640949069130E+00
    0.54574385868586927639E+00
    0.56248473877299809409E+00
    0.57361049755890292090E+00
    0.57337432466180582313E+00
    0.58483039062147790244E+00
    0.58231077103059247779E+00
    0.56698940885164728076E+00
    0.55659359642838157622E+00
    0.53681349517238319269E+00
    0.53177426865633636854E+00
    0.49830934790413983215E+00
    0.55161144776046144855E+00
    0.56076985947130553178E+00
    0.58451887819288639303E+00
    0.59133240569907896678E+00
    0.59417493727154269134E+00
    0.59604868171171176972E+00
    0.59738346983342127672E+00
    0.59993757961268401324E+00
    0.60084664470842907846E+00
    0.59719450398681650505E+00
    0.59464005864709257310E+00
    0.58924152019940567726E+00
    0.58831506837670888288E+00
    0.57993944297589750114E+00
    0.59313725107309156481E+00
    0.59531253120798877099E+00
    0.49464201714356764716E+00
    0.52590339446470701912E+00
    0.55064891059425369324E+00
    0.56184719368552837881E+00
    0.55574992833101743983E+00
    0.56860444453566560963E+00
    0.55955074194464160531E+00
    0.53606280594964728081E+00
    0.51055662266369938873E+00
    0.48217709224410670865E+00
    0.49282916856783359760E+00
    0.46024332990130611964E+00
    0.52476099075951576634E+00
    0.53541134846868587704E+00
    0.57871388700644599279E+00
    0.58564012728067893487E+00
    0.59012545631809276703E+00
    0.59138168090367093654E+00
    0.59124528784535135273E+00
    0.59320975425488187138E+00
    0.59318118185892476646E+00
    0.58848072595847311650E+00
    0.58303009514031778338E+00
    0.57598663798671145830E+00
    0.57838825118819670035E+00
    0.57018644970384213533E+00
    0.58567388670329079137E+00
    0.58796074643567308726E+00
    0.59318118114552409459E+00
    0.58848072588960564921E+00
    0.58303009657107407460E+00
    0.57598663957788098777E+00
    0.57838825198470145139E+00
    0.57018645115984012417E+00
    0.57871388829045300461E+00
    0.58564012743255933202E+00
    0.59012545577571795530E+00
    0.59138168095805410118E+00
    0.59124528817864474561E+00
    0.59320975415274168618E+00
    0.58796074676118625923E+00
    0.58567388692485489177E+00
    0.55955074177081509657E+00
    0.53606280536688333260E+00
    0.51055662283070846197E+00
    0.48217709077094561554E+00
    0.49282916617448646601E+00
    0.46024332526778455321E+00
    0.49464201593793422074E+00
    0.52590339346820424993E+00
    0.55064891000086424455E+00
    0.56184719407625949295E+00
    0.55574992863984618019E+00
    0.56860444519310826550E+00
    0.53541134794772693439E+00
    0.52476098956944472462E+00
    0.60084664351044103636E+00
    0.59719450367243887001E+00
    0.59464005991826385245E+00
    0.58924152184492695206E+00
    0.58831506928654397903E+00
    0.57993944463305036052E+00
    0.58451887954783088297E+00
    0.59133240580607404624E+00
    0.59417493662047082825E+00
    0.59604868173202418813E+00
    0.59738347004758063363E+00
    0.59993757904840572248E+00
    0.59531253141960183140E+00
    0.59313725124231586605E+00
    0.58231077099790273799E+00
    0.56698940870629699340E+00
    0.55659359720361167856E+00
    0.53681349596100902399E+00
    0.53177426844939179595E+00
    0.49830934711224728062E+00
    0.51637605672456510231E+00
    0.54574385855979989923E+00
    0.56248473864272097167E+00
    0.57361049827844190485E+00
    0.57337432536854526788E+00
    0.58483039142246062703E+00
    0.56076985965967884873E+00
    0.55161144760093638872E+00
    0.42058902663540709277E+00
    0.33592751731011050165E+00
    0.28122746321812042147E+00
    0.23546098505457702110E+00
    0.23948587912144364553E+00
    0.19250458929101188499E+00
    0.23315557350324855879E+00
    0.30468005071686021790E+00
    0.38776567073134898811E+00
    0.42809602722625078597E+00
    0.40335654175569179980E+00
    0.45338847256169523270E+00
    0.32825546966313517983E+00
    0.29903203316208515350E+00
    0.21066886811897861387E+00
    0.16564521258762687772E+00
    0.16520835024009605796E+00
    0.14022600838413837310E+00
    0.12104275826592918175E+00
    0.10661438277458247514E+00
    0.10661438324832116231E+00
    0.12104276151417660279E+00
    0.14022601509666113295E+00
    0.16520835258823279856E+00
    0.16564521323787004259E+00
    0.21066886694925196499E+00
    0.14210426175003343374E+00
    0.12907365146936239375E+00
    0.52222362199064964461E+00
    0.47560110570849262190E+00
    0.47421925767234501814E+00
    0.43213763045762909609E+00
    0.37369211863341122992E+00
    0.30032726841717261035E+00
    0.30032726699349038268E+00
    0.37369211742831365264E+00
    0.43213762507452430084E+00
    0.47421925400428205366E+00
    0.47560110594992172084E+00
    0.52222362342978767558E+00
    0.42920942227718167361E+00
    0.39929942849650013059E+00
    0.45338847081128796912E+00
    0.40335654508780055538E+00
    0.42809603976768623168E+00
    0.38776568619732565413E+00
    0.30468005346080251350E+00
    0.23315557495578898006E+00
    0.19250458736568443197E+00
    0.23948588095652328933E+00
    0.23546098911186730263E+00
    0.28122746384541913445E+00
    0.33592751364218720322E+00
    0.42058903605692227190E+00
    0.32825547014446621041E+00
    0.29903203439066483593E+00
    0.60788524425084755620E+00
    0.60597928838291459375E+00
    0.60522759876816223379E+00
    0.60258042272127287919E+00
    0.60093653616764142189E+00
    0.59568664835186679873E+00
    0.59656248634108077766E+00
    0.60104372936897465518E+00
    0.60210111831695922735E+00
    0.60370710623425505315E+00
    0.60523532157413983956E+00
    0.60708858030473566991E+00
    0.60437595745006711390E+00
    0.60303040387783202192E+00
    0.60085052771189628729E+00
    0.59482427338200527522E+00
    0.59266320030636387983E+00
    0.58582216163274336562E+00
    0.57990207894152479007E+00
    0.56409396529784494589E+00
    0.56409396382294263450E+00
    0.57990207884806532768E+00
    0.58582216284658927830E+00
    0.59266320056198262822E+00
    0.59482427464603082612E+00
    0.60085052902673785624E+00
    0.59037285306411146912E+00
    0.58602420156471513035E+00
    0.61068601710559711204E+00
    0.61007445842513530199E+00
    0.60944817019230412836E+00
    0.60864504659841001111E+00
    0.60830583070115595845E+00
    0.60632287604276158266E+00
    0.60632287446837518363E+00
    0.60830583029696649877E+00
    0.60864504704733779494E+00
    0.60944817034156806290E+00
    0.61007445906715984663E+00
    0.61068601752292783758E+00
    0.60969503753657383616E+00
    0.60917955176646343407E+00
    0.60708858003400167913E+00
    0.60523532046341599333E+00
    0.60370710546624972714E+00
    0.60210111722942505352E+00
    0.60104372920333604124E+00
    0.59656248738285999611E+00
    0.59568664628202372402E+00
    0.60093653539730107482E+00
    0.60258042300497871580E+00
    0.60522759838273387789E+00
    0.60597928924957611407E+00
    0.60788524592188053486E+00
    0.60437595704885649361E+00
    0.60303040340269054020E+00
    0.58483038897931094446E+00
    0.57337432388874431943E+00
    0.57361049810424458162E+00
    0.56248473758638151132E+00
    0.54574385883329790126E+00
    0.51637605889139570614E+00
    0.49830934691653555602E+00
    0.53177426818405704179E+00
    0.53681349616262075131E+00
    0.55659359659575113888E+00
    0.56698940919292784013E+00
    0.58231077110487239334E+00
    0.56076985931316047918E+00
    0.55161144739345724375E+00
    0.56860444282815247874E+00
    0.55574992748992280145E+00
    0.56184719388466453083E+00
    0.55064890894705542657E+00
    0.52590339441153666211E+00
    0.49464201834805615610E+00
    0.46024332893845104620E+00
    0.49282916719452823928E+00
    0.48217709099720013066E+00
    0.51055662238426979815E+00
    0.53606280623555546683E+00
    0.55955074212202682293E+00