# vtk DataFile Version 3.0
LAPLACIEN  2D
ASCII
DATASET UNSTRUCTURED_GRID
 POINTS         481  float
   6.2500000000000000E-002  0.87500000000000000        0.0000000000000000     
  0.12500000000000000       0.87500000000000000        0.0000000000000000     
  0.12500000000000000       0.93750000000000000        0.0000000000000000     
   3.7499999999999999E-002  0.91249999999999998        0.0000000000000000     
   8.1250000000000003E-002  0.91874999999999996        0.0000000000000000     
   8.7499999999999994E-002  0.96250000000000002        0.0000000000000000     
   4.3749999999999997E-002  0.95625000000000004        0.0000000000000000     
  0.18750000000000000       0.87500000000000000        0.0000000000000000     
  0.25000000000000000       0.87500000000000000        0.0000000000000000     
  0.25000000000000000       0.93750000000000000        0.0000000000000000     
  0.16250000000000001       0.91249999999999998        0.0000000000000000     
  0.20624999999999999       0.91874999999999996        0.0000000000000000     
  0.21249999999999999       0.96250000000000002        0.0000000000000000     
  0.16875000000000001       0.95625000000000004        0.0000000000000000     
   6.2500000000000000E-002  0.75000000000000000        0.0000000000000000     
  0.12500000000000000       0.75000000000000000        0.0000000000000000     
  0.12500000000000000       0.81250000000000000        0.0000000000000000     
   3.7499999999999999E-002  0.78749999999999998        0.0000000000000000     
   8.1250000000000003E-002  0.79374999999999996        0.0000000000000000     
   8.7499999999999994E-002  0.83750000000000002        0.0000000000000000     
   4.3749999999999997E-002  0.83125000000000004        0.0000000000000000     
  0.18750000000000000       0.75000000000000000        0.0000000000000000     
  0.25000000000000000       0.75000000000000000        0.0000000000000000     
  0.25000000000000000       0.81250000000000000        0.0000000000000000     
  0.16250000000000001       0.78749999999999998        0.0000000000000000     
  0.20624999999999999       0.79374999999999996        0.0000000000000000     
  0.21249999999999999       0.83750000000000002        0.0000000000000000     
  0.16875000000000001       0.83125000000000004        0.0000000000000000     
  0.31250000000000000       0.87500000000000000        0.0000000000000000     
  0.37500000000000000       0.87500000000000000        0.0000000000000000     
  0.37500000000000000       0.93750000000000000        0.0000000000000000     
  0.28749999999999998       0.91249999999999998        0.0000000000000000     
  0.33124999999999999       0.91874999999999996        0.0000000000000000     
  0.33750000000000002       0.96250000000000002        0.0000000000000000     
  0.29375000000000001       0.95625000000000004        0.0000000000000000     
  0.43750000000000000       0.87500000000000000        0.0000000000000000     
  0.50000000000000000       0.87500000000000000        0.0000000000000000     
  0.50000000000000000       0.93750000000000000        0.0000000000000000     
  0.41249999999999998       0.91249999999999998        0.0000000000000000     
  0.45624999999999999       0.91874999999999996        0.0000000000000000     
  0.46250000000000002       0.96250000000000002        0.0000000000000000     
  0.41875000000000001       0.95625000000000004        0.0000000000000000     
  0.31250000000000000       0.75000000000000000        0.0000000000000000     
  0.37500000000000000       0.75000000000000000        0.0000000000000000     
  0.37500000000000000       0.81250000000000000        0.0000000000000000     
  0.28749999999999998       0.78749999999999998        0.0000000000000000     
  0.33124999999999999       0.79374999999999996        0.0000000000000000     
  0.33750000000000002       0.83750000000000002        0.0000000000000000     
  0.29375000000000001       0.83125000000000004        0.0000000000000000     
  0.43750000000000000       0.75000000000000000        0.0000000000000000     
  0.50000000000000000       0.75000000000000000        0.0000000000000000     
  0.50000000000000000       0.81250000000000000        0.0000000000000000     
  0.41249999999999998       0.78749999999999998        0.0000000000000000     
  0.45624999999999999       0.79374999999999996        0.0000000000000000     
  0.46250000000000002       0.83750000000000002        0.0000000000000000     
  0.41875000000000001       0.83125000000000004        0.0000000000000000     
   6.2500000000000000E-002  0.62500000000000000        0.0000000000000000     
  0.12500000000000000       0.62500000000000000        0.0000000000000000     
  0.12500000000000000       0.68750000000000000        0.0000000000000000     
   3.7499999999999999E-002  0.66249999999999998        0.0000000000000000     
   8.1250000000000003E-002  0.66874999999999996        0.0000000000000000     
   8.7499999999999994E-002  0.71250000000000002        0.0000000000000000     
   4.3749999999999997E-002  0.70625000000000004        0.0000000000000000     
  0.18750000000000000       0.62500000000000000        0.0000000000000000     
  0.25000000000000000       0.62500000000000000        0.0000000000000000     
  0.25000000000000000       0.68750000000000000        0.0000000000000000     
  0.16250000000000001       0.66249999999999998        0.0000000000000000     
  0.20624999999999999       0.66874999999999996        0.0000000000000000     
  0.21249999999999999       0.71250000000000002        0.0000000000000000     
  0.16875000000000001       0.70625000000000004        0.0000000000000000     
   6.2500000000000000E-002  0.50000000000000000        0.0000000000000000     
  0.12500000000000000       0.50000000000000000        0.0000000000000000     
  0.12500000000000000       0.56250000000000000        0.0000000000000000     
   3.7499999999999999E-002  0.53749999999999998        0.0000000000000000     
   8.1250000000000003E-002  0.54374999999999996        0.0000000000000000     
   8.7499999999999994E-002  0.58750000000000002        0.0000000000000000     
   4.3749999999999997E-002  0.58125000000000004        0.0000000000000000     
  0.18750000000000000       0.50000000000000000        0.0000000000000000     
  0.25000000000000000       0.50000000000000000        0.0000000000000000     
  0.25000000000000000       0.56250000000000000        0.0000000000000000     
  0.16250000000000001       0.53749999999999998        0.0000000000000000     
  0.20624999999999999       0.54374999999999996        0.0000000000000000     
  0.21249999999999999       0.58750000000000002        0.0000000000000000     
  0.16875000000000001       0.58125000000000004        0.0000000000000000     
  0.31250000000000000       0.62500000000000000        0.0000000000000000     
  0.37500000000000000       0.62500000000000000        0.0000000000000000     
  0.37500000000000000       0.68750000000000000        0.0000000000000000     
  0.28749999999999998       0.66249999999999998        0.0000000000000000     
  0.33124999999999999       0.66874999999999996        0.0000000000000000     
  0.33750000000000002       0.71250000000000002        0.0000000000000000     
  0.29375000000000001       0.70625000000000004        0.0000000000000000     
  0.43750000000000000       0.62500000000000000        0.0000000000000000     
  0.50000000000000000       0.62500000000000000        0.0000000000000000     
  0.50000000000000000       0.68750000000000000        0.0000000000000000     
  0.41249999999999998       0.66249999999999998        0.0000000000000000     
  0.45624999999999999       0.66874999999999996        0.0000000000000000     
  0.46250000000000002       0.71250000000000002        0.0000000000000000     
  0.41875000000000001       0.70625000000000004        0.0000000000000000     
  0.31250000000000000       0.50000000000000000        0.0000000000000000     
  0.37500000000000000       0.50000000000000000        0.0000000000000000     
  0.37500000000000000       0.56250000000000000        0.0000000000000000     
  0.28749999999999998       0.53749999999999998        0.0000000000000000     
  0.33124999999999999       0.54374999999999996        0.0000000000000000     
  0.33750000000000002       0.58750000000000002        0.0000000000000000     
  0.29375000000000001       0.58125000000000004        0.0000000000000000     
  0.43750000000000000       0.50000000000000000        0.0000000000000000     
  0.50000000000000000       0.50000000000000000        0.0000000000000000     
  0.50000000000000000       0.56250000000000000        0.0000000000000000     
  0.41249999999999998       0.53749999999999998        0.0000000000000000     
  0.45624999999999999       0.54374999999999996        0.0000000000000000     
  0.46250000000000002       0.58750000000000002        0.0000000000000000     
  0.41875000000000001       0.58125000000000004        0.0000000000000000     
  0.56250000000000000       0.87500000000000000        0.0000000000000000     
  0.62500000000000000       0.87500000000000000        0.0000000000000000     
  0.62500000000000000       0.93750000000000000        0.0000000000000000     
  0.53749999999999998       0.91249999999999998        0.0000000000000000     
  0.58125000000000004       0.91874999999999996        0.0000000000000000     
  0.58750000000000002       0.96250000000000002        0.0000000000000000     
  0.54374999999999996       0.95625000000000004        0.0000000000000000     
  0.68750000000000000       0.87500000000000000        0.0000000000000000     
  0.75000000000000000       0.87500000000000000        0.0000000000000000     
  0.75000000000000000       0.93750000000000000        0.0000000000000000     
  0.66249999999999998       0.91249999999999998        0.0000000000000000     
  0.70625000000000004       0.91874999999999996        0.0000000000000000     
  0.71250000000000002       0.96250000000000002        0.0000000000000000     
[...]
 CELL_DATA         896
 SCALARS Tumor_cells float
 LOOKUP_TABLE default
   -0.29782481029242180710E-07
   -0.36706844308648511523E-07
   -0.27208931253541204284E-07
   -0.27208763215332186003E-07
   -0.36706915639443351763E-07
   -0.29782681507922122593E-07
   -0.45238074125389167352E-07
   -0.36718676054003944175E-07
   -0.42835967020566601814E-07
   -0.42835862234823946089E-07
   -0.36718723448096993047E-07
   -0.45238105247786202427E-07
   -0.19572393984684993843E-07
   -0.19572421478428722962E-07
   -0.29722225709028723244E-07
   -0.36656499054994300058E-07
   -0.27102710485687376507E-07
   -0.27110869871901081819E-07
   -0.36657711992397022940E-07
   -0.29722021348913914252E-07
   -0.45214555321984737244E-07
   -0.36686478545879199200E-07
   -0.42820802650068921563E-07
   -0.27221211756301087886E-07
   -0.36689418398800971467E-07
   -0.29755765465595898923E-07
   -0.19509825793970506534E-07
   -0.19508359118790680187E-07
   -0.29721930152661622160E-07
   -0.36657867801613853171E-07
   -0.27110963349041024139E-07
   -0.27102705378532932599E-07
   -0.36656561156572429916E-07
   -0.29722410769894551485E-07
   -0.29755598927702147776E-07
   -0.36689446315723254390E-07
   -0.27221216650055910565E-07
   -0.42820827591601821912E-07
   -0.36686549190882912683E-07
   -0.45214501122890168408E-07
   -0.19508259952612551726E-07
   -0.19509797467149435812E-07
   -0.29497459723285960091E-07
   -0.36415415341055674254E-07
   -0.26440539628481489938E-07
   -0.26440603598304241058E-07
   -0.36415569791134739916E-07
   -0.29497782476023348378E-07
   -0.29631345077993877165E-07
   -0.36592318971524764159E-07
   -0.27144965924037355676E-07
   -0.27144903395045666097E-07
   -0.36592458004705057702E-07
   -0.29631364599059515025E-07
   -0.19259536927631331127E-07
   -0.19259555555032902531E-07
   -0.29551644414996623694E-07
   -0.36543721355468387678E-07
   -0.26881448374251642624E-07
   -0.26946838833931168350E-07
   -0.36579600734173118185E-07
   -0.29648719017945242758E-07
   -0.45184615132509983470E-07
   -0.36630445858565278349E-07
   -0.42785927538048658938E-07
   -0.27150359983265554402E-07
   -0.36623902404939088401E-07
   -0.29654111976609576927E-07
   -0.19377616606837580906E-07
   -0.19383885432347212111E-07
   -0.29305922265855418201E-07
   -0.36427432403044783747E-07
   -0.26698553127930972186E-07
   -0.26839721270676562716E-07
   -0.36527977482846059843E-07
   -0.29609105478229839954E-07
   -0.45165155954143017166E-07
   -0.36581947841151483910E-07
   -0.42753042758793745816E-07
   -0.27071271138076910377E-07
   -0.36548318952458763630E-07
   -0.29500064754986158126E-07
   -0.19249493088301163952E-07
   -0.19273151191801593071E-07
   -0.27201399073224275754E-07
   -0.34942425893522690668E-07
   -0.22131781517850819754E-07
   -0.23850150635525372627E-07
   -0.35603139571277922809E-07
   -0.28968698932892371689E-07
   -0.29334564144532273448E-07
   -0.36283616854700202674E-07
   -0.26899978148035086867E-07
   -0.26854324222513660175E-07
   -0.36123798071615571810E-07
   -0.28761234070244482420E-07
   -0.18082595335371773835E-07
   -0.18244835466525841347E-07
    0.25083803939957524628E-08
   -0.32013804503168025861E-07
    0.12481158896738042790E-06
   -0.21359354771006380008E-07
   -0.34828604051623898551E-07
   -0.28615508631241048502E-07
   -0.29082665674286879631E-07
   -0.35904974244109602653E-07
   -0.26510162002419155056E-07
   -0.26261423737539587449E-07
   -0.35119264052460042397E-07
   -0.26095333580959410924E-07
   -0.16208763338410368723E-07
   -0.16847566082175580008E-07
   -0.29648657791696691301E-07
   -0.36579493208933799997E-07
   -0.26946928444409269093E-07
   -0.26881422540334919796E-07
   -0.36543696994168216764E-07
   -0.29551820029896945434E-07
   -0.29653965176905478810E-07
   -0.36623957982342755251E-07
   -0.27150526349908235682E-07
   -0.42785919012151369983E-07
   -0.36630623693525114456E-07
   -0.45184700642903923896E-07
   -0.19383935538901411863E-07
   -0.19377475140222914245E-07
   -0.28968472764883556095E-07
   -0.35603167418843989957E-07
   -0.23850066232986400859E-07
   -0.22131592188139396300E-07
   -0.34942497514055003892E-07
   -0.27201665983810662981E-07
   -0.28761151260758385157E-07
   -0.36123603720597770820E-07
   -0.26854330135985438186E-07
   -0.26900064370954611597E-07
   -0.36283566995733448854E-07
   -0.29334538612985798711E-07
   -0.18244910793522477938E-07
   -0.18082524312499704339E-07
   -0.29609058451934653271E-07
   -0.36527937246606877271E-07
   -0.26839605669216783696E-07
   -0.26698604650700082912E-07
   -0.36427685561651707669E-07
   -0.29306115716719818260E-07
   -0.29499937621553924051E-07
   -0.36548264930932806960E-07
   -0.27071411356311569337E-07
   -0.42753013662615464826E-07
   -0.36582031543852223859E-07
   -0.45165139518480846981E-07
   -0.19273266391665283959E-07
   -0.19249442750750256653E-07
   -0.28615343169382940645E-07
   -0.34828616662366579901E-07
   -0.21359331420129677747E-07
    0.12481216470088006468E-06
   -0.32013948695091549810E-07
    0.25082533282173505527E-08
   -0.26095279073278947117E-07
   -0.35119086923120334638E-07
   -0.26261294787739698409E-07
   -0.26510407348516997973E-07
   -0.35905025541884365846E-07
   -0.29082797482626142990E-07
   -0.16847483808298220266E-07
   -0.16208705832309339165E-07
    0.14148224500811860599E-04
    0.18487858495269638912E-03
    0.10557745285794616595E-02
    0.10557696821360841848E-02
    0.18487692476457735693E-03
    0.14148118996310796709E-04
    0.50918052447949241331E-07
    0.19907973441123953451E-04
    0.61907445638486301349E-07
    0.61907292489903117793E-07
    0.19907989790026060914E-04
    0.50919800842816831950E-07
    0.38446822003152656051E-04
    0.38446700799882769172E-04
    0.10864239536497699926E-01
    0.10414853732001936454E-01
    0.14795074255285228793E-01
    0.10970332169889273830E-01
    0.71238006584779653071E-02
    0.18036510627084624200E-02
    0.36170006018463465663E-04
    0.54653517208182861558E-03
    0.83543124299305019889E-05
    0.32872253692359693382E-03
    0.20629581943896386532E-02
    0.44484122065228202253E-02
    0.55921389404289629718E-02
    0.28536492765739627196E-02
    0.18036468253194123165E-02
    0.71238136088789781597E-02
    0.10970332049398207053E-01
    0.14795073666397514159E-01
    0.10414852220155390930E-01
    0.10864252246909738772E-01
    0.44484229030803106725E-02
    0.20629588174254560352E-02
    0.32872289600623946044E-03
    0.83543006504600805833E-05
    0.54653512606980597308E-03
    0.36170552101479504887E-04
    0.28536488988910218081E-02
    0.55921381426681966709E-02
    0.20351543094004567735E-01
    0.19429562822986919113E-01
    0.15497398362042934597E-01
    0.15497405594398407785E-01
    0.19429568077171673057E-01
    0.20351550830201202424E-01
    0.17765543008599241070E-01
    0.18468581696311551360E-01
    0.13628067157441645443E-01
    0.13628078288496825454E-01
    0.18468581833835196609E-01
    0.17765539468674314966E-01
    0.20373473291815633740E-01
    0.20373475542166133434E-01
   -0.29235400476782148974E-07
   -0.36429033059927278694E-07
   -0.26773266421940866295E-07
   -0.26916240882079141930E-07
   -0.36553912799334910014E-07
   -0.29644686824483104701E-07
   -0.45173652087031298237E-07
   -0.36584311053312778234E-07
   -0.42742803328533058707E-07
   -0.27037818512950548475E-07
   -0.36526878746408656743E-07
   -0.29427655045727394350E-07
   -0.19244523181708285278E-07
   -0.19279222962983126677E-07
   -0.29433052377841134773E-07
   -0.36546886393251933168E-07
   -0.27008065499138347869E-07
   -0.27082532984467336538E-07
   -0.36627057867929643126E-07
   -0.29719250737812730465E-07
   -0.45201192741909882404E-07
   -0.36634260037141341745E-07
   -0.42767250301665412808E-07
   -0.27087170863544958772E-07
   -0.36581206681179390981E-07
   -0.29522015166431875323E-07
   -0.19371509389837876538E-07
   -0.19394888773250319274E-07
    0.13159114946500657077E-06
   -0.31980110117694044643E-07
    0.24286433122807088590E-10
   -0.23174715601033965241E-07
   -0.35237676522013941668E-07
   -0.28928823757818752425E-07
   -0.29191273809571509755E-07
   -0.35923548914077596335E-07
   -0.26390906011670063619E-07
   -0.25966066483741161613E-07
   -0.34752269982116288131E-07
   -0.24328941209907261434E-07
   -0.16100430627553680869E-07
   -0.16950125831566214692E-07
   -0.24346956276576776757E-07
   -0.34943194214147928111E-07
   -0.24916538015537716631E-07
   -0.26088333084788943007E-07
   -0.36178159074646256641E-07
   -0.29470095643932028087E-07
   -0.29516053952040549577E-07
   -0.36312795356411360223E-07
   -0.26703932229414394013E-07
   -0.26390594735261153801E-07
   -0.35597061718254353317E-07
   -0.26608939142557640830E-07
   -0.17955763331951473527E-07
   -0.18383460049781761772E-07
   -0.29661339674193034399E-07
   -0.36658514749831444648E-07
   -0.27173678758425593896E-07
   -0.27197632135404494828E-07
   -0.36692594559360414229E-07
   -0.29782424083752464935E-07
   -0.45230571654317641034E-07
   -0.36689832625678150442E-07
   -0.42804382243990335248E-07
   -0.27168484925364126525E-07
   -0.36659384557509774489E-07
   -0.29673025861896342379E-07
   -0.19504272376714241691E-07
   -0.19514606125057701115E-07
   -0.29765568770738821512E-07
   -0.36709216673596675374E-07
   -0.27232450782933153031E-07
   -0.42832316629945739110E-07
   -0.36720443137807952085E-07
   -0.45243037329022383387E-07
   -0.45243034124131832505E-07
   -0.36720330947620816174E-07
   -0.42832373110403034468E-07
   -0.27232120294625803155E-07
   -0.36709296211735502330E-07
   -0.29765641324919990345E-07
   -0.19577306929112529773E-07
   -0.19580356431872442031E-07
   -0.29021142072736679138E-07
   -0.36420534161621644666E-07
   -0.26949165721861655858E-07
   -0.27053612354996167524E-07
   -0.36601761954669638218E-07
   -0.29717707506335458587E-07
   -0.29717589651696138023E-07
   -0.36601783068772020560E-07
   -0.27053558525905951927E-07
   -0.26948986967118043147E-07
   -0.36420441525896773061E-07
   -0.29021261927667545111E-07
   -0.19227150329803738323E-07
   -0.19300466695387871506E-07
   -0.29672937974500103403E-07
   -0.36659407137775644484E-07
   -0.27168615192552297095E-07
   -0.42804363043214996196E-07
   -0.36689812430756910541E-07
   -0.45230498842190203752E-07
   -0.29782532035641871682E-07
   -0.36692511186931465587E-07
   -0.27197592251437388087E-07
   -0.27173435750689743198E-07
   -0.36658546377317931940E-07
   -0.29661459841849288370E-07
   -0.19504191835492049053E-07
   -0.19514692853524410034E-07
    0.16179104272167146167E-01
    0.10640321227851121111E-01
    0.88682132896545726869E-02
    0.32709917811802077629E-02
    0.83621516269637553940E-03
    0.12032083097151311630E-03
    0.85446214552837008825E-05
    0.54368965523587887891E-03
    0.32911873815817301590E-04
    0.16321332659019974903E-02
    0.70134820307733401756E-02
    0.11095881448711635703E-01
    0.52149673429328418858E-02
    0.24611513906715814202E-02
    0.57740507739803634962E-03
    0.84549997041110039743E-04
    0.51390098849514417357E-05
   -0.76254297066773593596E-08
    0.16392870224896047971E-04
    0.45789831691752078907E-07
    0.45790065083218987887E-07
    0.16392867177534792083E-04
   -0.76250917319498361725E-08
    0.51390431970063664535E-05
    0.84550453604322284512E-04
    0.57740586996677593749E-03
    0.32934046078073418034E-04
    0.31906941823342360569E-04
    0.15648825869411582545E-01
    0.19681921806953439624E-01
    0.20454574725481348280E-01
    0.18797159690633093165E-01
    0.18500673300263538457E-01
    0.12429706649977209643E-01
    0.12429706938698378144E-01
    0.18500675036484344471E-01
    0.18797150546726999060E-01
    0.20454575618598275916E-01
    0.19681919985473500523E-01
    0.15648832172695262277E-01
    0.20553251917700802315E-01
    0.20246966277728119937E-01
    0.11095882084080228511E-01
    0.70134745372439702416E-02
    0.16321334895207937135E-02
    0.32911625647483985823E-04
    0.54368971628829471446E-03
    0.85446260441178539726E-05
    0.12032102204079373929E-03
    0.83621813309223678480E-03
    0.32709934688125519645E-02
    0.88682186920905139993E-02
    0.10640329209399572788E-01
    0.16179112665654669240E-01
    0.52149679862030142580E-02
    0.24611517067657804128E-02
   -0.26608672703446163603E-07
   -0.35597071675216817596E-07
   -0.26390740369912884644E-07
   -0.26704069140779133300E-07
   -0.36312897487810991806E-07
   -0.29516207509965940878E-07
   -0.29470022343408784860E-07
   -0.36178122588420779167E-07
   -0.26088265621468454080E-07
   -0.24916290466805984358E-07
   -0.34943093332588860345E-07
   -0.24347062540275498115E-07
   -0.17955884943969391108E-07
   -0.18383401661631178222E-07
   -0.29522014458560780078E-07
   -0.36581265891468742579E-07
   -0.27087301942892704455E-07
   -0.42767305601833687244E-07
   -0.36634302906033589013E-07
   -0.45201180706642655968E-07
   -0.29719280325215285406E-07
   -0.36627272434617808234E-07
   -0.27082469358055641137E-07
   -0.27007862420950511447E-07
   -0.36546956185006165777E-07
   -0.29433058563215935010E-07
   -0.19371581725946568365E-07
   -0.19394895686270076486E-07
   -0.24328656641574073162E-07
   -0.34752328488601728690E-07
   -0.25966165669404340039E-07
   -0.26391077226364482157E-07
   -0.35923650823389377990E-07
   -0.29191220789963695909E-07
   -0.28928803956856175886E-07
   -0.35237721795217819014E-07
   -0.23174679404554748717E-07
    0.24030377027683587507E-10
   -0.31980129030759548768E-07
    0.13159015969245866917E-06
   -0.16100404532956324965E-07
   -0.16950308703488618064E-07
   -0.29427600200956692757E-07
   -0.36526858327042227900E-07
   -0.27037935492792353062E-07
   -0.42742743748515751309E-07
   -0.36584365566792109007E-07
   -0.45173615289848676907E-07
   -0.29644784551361699834E-07
   -0.36553929922722975792E-07
   -0.26916220426269874920E-07
   -0.26773127887296640244E-07
   -0.36429238906215818818E-07
   -0.29235421751031588198E-07
   -0.19244511875571628889E-07
   -0.19279357649376715247E-07
   -0.29644696094339483128E-07
   -0.36553852913946938833E-07
   -0.26916303075796341193E-07
   -0.26773172797049049458E-07
   -0.36429199915279386486E-07
   -0.29235630321330255801E-07
   -0.29427535145017157054E-07
   -0.36526784795095908533E-07
   -0.27037877196249504415E-07
   -0.42742696564723195548E-07
   -0.36584308538591329925E-07
   -0.45173461730216213124E-07
   -0.19279314937502800220E-07
   -0.19244503609221603223E-07
   -0.28928684841547312764E-07
   -0.35237716444927689499E-07
   -0.23174868536032146467E-07
    0.24000069224874919525E-10
   -0.31980067109158972926E-07
    0.13159208218387810537E-06
   -0.24328899046650309697E-07
   -0.34752244301665156814E-07
   -0.25966137472045303679E-07
   -0.26391011069365233440E-07
   -0.35923542024038038196E-07
   -0.29191274559354430505E-07
   -0.16950210297898086527E-07
   -0.16100247509279454111E-07
   -0.29719171090643260056E-07
   -0.36627122643410687085E-07
   -0.27082666534979419625E-07
   -0.27008029952476183189E-07
   -0.36546958010301180738E-07
   -0.29433209605585970756E-07
   -0.29522089200548629096E-07
   -0.36581212057322468206E-07
   -0.27087175201659449264E-07
   -0.42767326306479039247E-07
   -0.36634345048817675005E-07
   -0.45201188623043954313E-07
   -0.19394839704519988979E-07
   -0.19371378297262328338E-07
   -0.29469855279202979096E-07
   -0.36178018918751882566E-07
   -0.26088391733206807555E-07
   -0.24916479358632350340E-07
   -0.34943152316485800135E-07
   -0.24347188905868742453E-07
   -0.26608802942549054292E-07
   -0.35597099401824329945E-07
   -0.26390495831336959251E-07
   -0.26703945934911564453E-07
   -0.36312835290691185093E-07
   -0.29516135851830857275E-07
   -0.18383479535010041129E-07
   -0.17955727608310287861E-07
    0.12032096210978549021E-03
    0.83621833335978965149E-03
    0.32709932617174175204E-02
    0.88682176298026937911E-02
    0.10640327196175310143E-01
    0.16179109064855781014E-01
    0.11095883817030749441E-01
    0.70134773244538680184E-02
    0.16321308002624642340E-02
    0.32911812801906553834E-04
    0.54369077232322153732E-03
    0.85446306063725773519E-05
    0.24611550242744188732E-02
    0.52149724560167348003E-02
    0.12429703566755868210E-01
    0.18500676262166369096E-01
    0.18797157035334712688E-01
    0.20454577510831319781E-01
    0.19681920219789664217E-01
    0.15648832277065111845E-01
    0.15648829242755173119E-01
    0.19681919751025220289E-01
    0.20454566434327567381E-01
    0.18797154505269097341E-01
    0.18500671606591391483E-01
    0.12429705167491479981E-01
    0.20246964650470541253E-01
    0.20553252932366729983E-01
    0.45790172327408525777E-07
    0.16392866626490250868E-04
   -0.76253266737580660105E-08
    0.51390160518269058999E-05
    0.84550103425417246395E-04
    0.57740392487941609619E-03
    0.57740605075886079940E-03
    0.84550266334255941292E-04
    0.51390363188302905760E-05
   -0.76251205392053839955E-08
    0.16392868984153167626E-04
    0.45789764128020903046E-07
    0.31906943075792408538E-04
    0.32934061803171501247E-04
    0.85446191427525528629E-05
    0.54369061609772046870E-03
    0.32911899528770945588E-04
    0.16321349189343317687E-02
    0.70134841772141942248E-02
    0.11095881792511358768E-01
    0.16179110396859826271E-01
    0.10640324512320392322E-01
    0.88682038500964358030E-02
    0.32709852588448215700E-02
    0.83621329379272239368E-03
    0.12032048170987606230E-03
    0.24611545258623689601E-02
    0.52149720907272677228E-02
   -0.29782296048263096910E-07
   -0.36692465849344117612E-07
   -0.27197676170679864305E-07
   -0.27173464810552161555E-07
   -0.36658468265771099313E-07
   -0.29661531751194471941E-07
   -0.29672973734792609837E-07
   -0.36659526777234110269E-07
   -0.27168446298965137970E-07
   -0.42804400852145822547E-07
   -0.36689843379131211891E-07
   -0.45230456968039844273E-07
   -0.19514656009873581070E-07
   -0.19504101342390307811E-07
   -0.29717562517774757754E-07
   -0.36601753465026477754E-07
   -0.27053694412444823573E-07
   -0.26949102222407265455E-07
   -0.36420466470712296658E-07
   -0.29021266384891927759E-07
   -0.29021211034696540808E-07
   -0.36420412289279443417E-07
   -0.26949060439328634459E-07
   -0.27053715201930461337E-07
   -0.36601884123996916777E-07
   -0.29717704761953596466E-07
   -0.19300474551045221126E-07
   -0.19227092917756628497E-07
   -0.45243110401795814729E-07
   -0.36720504144700156199E-07
   -0.42832298532778653230E-07
   -0.27232293893729082213E-07
   -0.36709440978203075823E-07
   -0.29765800457163026833E-07
   -0.29765634392879549128E-07
   -0.36709314791523505501E-07
   -0.27232279455522829356E-07
   -0.42832245656342204568E-07
   -0.36720368137021216549E-07
   -0.45243041348012810400E-07
   -0.19580344366731021981E-07
   -0.19577327493620075757E-07
   -0.45230587383994631522E-07
   -0.36689765829384507097E-07
   -0.42804366930637767510E-07
   -0.27168653685708360909E-07
   -0.36659444939560027390E-07
   -0.29673115989204493290E-07
   -0.29661431676265515120E-07
   -0.36658447069167066017E-07
   -0.27173435211917099391E-07
   -0.27197648617712064661E-07
   -0.36692581617220916383E-07
   -0.29782609854291722332E-07
   -0.19514738838919244037E-07
   -0.19504106700095297572E-07
   -0.29515902664558634184E-07
   -0.36312830108059713132E-07
   -0.26704173199107837125E-07
   -0.26390631232263146913E-07
   -0.35597117027823039107E-07
   -0.26608937087858575182E-07
   -0.24346963312567288326E-07
   -0.34943008629689891208E-07
   -0.24916341604555408642E-07
   -0.26088462151471719075E-07
   -0.36178180226133146177E-07
   -0.29469970537576817465E-07
   -0.18383296619657714143E-07
   -0.17955723509493063840E-07
   -0.29190986845959612883E-07
   -0.35923633285453673416E-07
   -0.26391090112931733212E-07
   -0.25966166280611859981E-07
   -0.34752400973860422176E-07
   -0.24328891478031908515E-07
    0.13158953514573435760E-06
   -0.31980169589477396014E-07
    0.24459346460736766737E-10
   -0.23174745348488520777E-07
   -0.35237588800251829080E-07
   -0.28928884210424126753E-07