# vtk DataFile Version 3.0
LAPLACIEN  2D
ASCII
DATASET UNSTRUCTURED_GRID
 POINTS         481  float
   6.2500000000000000E-002  0.87500000000000000        0.0000000000000000     
  0.12500000000000000       0.87500000000000000        0.0000000000000000     
  0.12500000000000000       0.93750000000000000        0.0000000000000000     
   3.7499999999999999E-002  0.91249999999999998        0.0000000000000000     
   8.1250000000000003E-002  0.91874999999999996        0.0000000000000000     
   8.7499999999999994E-002  0.96250000000000002        0.0000000000000000     
   4.3749999999999997E-002  0.95625000000000004        0.0000000000000000     
  0.18750000000000000       0.87500000000000000        0.0000000000000000     
  0.25000000000000000       0.87500000000000000        0.0000000000000000     
  0.25000000000000000       0.93750000000000000        0.0000000000000000     
  0.16250000000000001       0.91249999999999998        0.0000000000000000     
  0.20624999999999999       0.91874999999999996        0.0000000000000000     
  0.21249999999999999       0.96250000000000002        0.0000000000000000     
  0.16875000000000001       0.95625000000000004        0.0000000000000000     
   6.2500000000000000E-002  0.75000000000000000        0.0000000000000000     
  0.12500000000000000       0.75000000000000000        0.0000000000000000     
  0.12500000000000000       0.81250000000000000        0.0000000000000000     
   3.7499999999999999E-002  0.78749999999999998        0.0000000000000000     
   8.1250000000000003E-002  0.79374999999999996        0.0000000000000000     
   8.7499999999999994E-002  0.83750000000000002        0.0000000000000000     
   4.3749999999999997E-002  0.83125000000000004        0.0000000000000000     
  0.18750000000000000       0.75000000000000000        0.0000000000000000     
  0.25000000000000000       0.75000000000000000        0.0000000000000000     
  0.25000000000000000       0.81250000000000000        0.0000000000000000     
  0.16250000000000001       0.78749999999999998        0.0000000000000000     
  0.20624999999999999       0.79374999999999996        0.0000000000000000     
  0.21249999999999999       0.83750000000000002        0.0000000000000000     
  0.16875000000000001       0.83125000000000004        0.0000000000000000     
  0.31250000000000000       0.87500000000000000        0.0000000000000000     
  0.37500000000000000       0.87500000000000000        0.0000000000000000     
  0.37500000000000000       0.93750000000000000        0.0000000000000000     
  0.28749999999999998       0.91249999999999998        0.0000000000000000     
  0.33124999999999999       0.91874999999999996        0.0000000000000000     
  0.33750000000000002       0.96250000000000002        0.0000000000000000     
  0.29375000000000001       0.95625000000000004        0.0000000000000000     
  0.43750000000000000       0.87500000000000000        0.0000000000000000     
  0.50000000000000000       0.87500000000000000        0.0000000000000000     
  0.50000000000000000       0.93750000000000000        0.0000000000000000     
  0.41249999999999998       0.91249999999999998        0.0000000000000000     
  0.45624999999999999       0.91874999999999996        0.0000000000000000     
  0.46250000000000002       0.96250000000000002        0.0000000000000000     
  0.41875000000000001       0.95625000000000004        0.0000000000000000     
  0.31250000000000000       0.75000000000000000        0.0000000000000000     
  0.37500000000000000       0.75000000000000000        0.0000000000000000     
  0.37500000000000000       0.81250000000000000        0.0000000000000000     
  0.28749999999999998       0.78749999999999998        0.0000000000000000     
  0.33124999999999999       0.79374999999999996        0.0000000000000000     
  0.33750000000000002       0.83750000000000002        0.0000000000000000     
  0.29375000000000001       0.83125000000000004        0.0000000000000000     
  0.43750000000000000       0.75000000000000000        0.0000000000000000     
  0.50000000000000000       0.75000000000000000        0.0000000000000000     
  0.50000000000000000       0.81250000000000000        0.0000000000000000     
  0.41249999999999998       0.78749999999999998        0.0000000000000000     
  0.45624999999999999       0.79374999999999996        0.0000000000000000     
  0.46250000000000002       0.83750000000000002        0.0000000000000000     
  0.41875000000000001       0.83125000000000004        0.0000000000000000     
   6.2500000000000000E-002  0.62500000000000000        0.0000000000000000     
  0.12500000000000000       0.62500000000000000        0.0000000000000000     
  0.12500000000000000       0.68750000000000000        0.0000000000000000     
   3.7499999999999999E-002  0.66249999999999998        0.0000000000000000     
   8.1250000000000003E-002  0.66874999999999996        0.0000000000000000     
   8.7499999999999994E-002  0.71250000000000002        0.0000000000000000     
   4.3749999999999997E-002  0.70625000000000004        0.0000000000000000     
  0.18750000000000000       0.62500000000000000        0.0000000000000000     
  0.25000000000000000       0.62500000000000000        0.0000000000000000     
  0.25000000000000000       0.68750000000000000        0.0000000000000000     
  0.16250000000000001       0.66249999999999998        0.0000000000000000     
  0.20624999999999999       0.66874999999999996        0.0000000000000000     
  0.21249999999999999       0.71250000000000002        0.0000000000000000     
  0.16875000000000001       0.70625000000000004        0.0000000000000000     
   6.2500000000000000E-002  0.50000000000000000        0.0000000000000000     
  0.12500000000000000       0.50000000000000000        0.0000000000000000     
  0.12500000000000000       0.56250000000000000        0.0000000000000000     
   3.7499999999999999E-002  0.53749999999999998        0.0000000000000000     
   8.1250000000000003E-002  0.54374999999999996        0.0000000000000000     
   8.7499999999999994E-002  0.58750000000000002        0.0000000000000000     
   4.3749999999999997E-002  0.58125000000000004        0.0000000000000000     
  0.18750000000000000       0.50000000000000000        0.0000000000000000     
  0.25000000000000000       0.50000000000000000        0.0000000000000000     
  0.25000000000000000       0.56250000000000000        0.0000000000000000     
  0.16250000000000001       0.53749999999999998        0.0000000000000000     
  0.20624999999999999       0.54374999999999996        0.0000000000000000     
  0.21249999999999999       0.58750000000000002        0.0000000000000000     
  0.16875000000000001       0.58125000000000004        0.0000000000000000     
  0.31250000000000000       0.62500000000000000        0.0000000000000000     
  0.37500000000000000       0.62500000000000000        0.0000000000000000     
  0.37500000000000000       0.68750000000000000        0.0000000000000000     
  0.28749999999999998       0.66249999999999998        0.0000000000000000     
  0.33124999999999999       0.66874999999999996        0.0000000000000000     
  0.33750000000000002       0.71250000000000002        0.0000000000000000     
  0.29375000000000001       0.70625000000000004        0.0000000000000000     
  0.43750000000000000       0.62500000000000000        0.0000000000000000     
  0.50000000000000000       0.62500000000000000        0.0000000000000000     
  0.50000000000000000       0.68750000000000000        0.0000000000000000     
  0.41249999999999998       0.66249999999999998        0.0000000000000000     
  0.45624999999999999       0.66874999999999996        0.0000000000000000     
  0.46250000000000002       0.71250000000000002        0.0000000000000000     
  0.41875000000000001       0.70625000000000004        0.0000000000000000     
  0.31250000000000000       0.50000000000000000        0.0000000000000000     
  0.37500000000000000       0.50000000000000000        0.0000000000000000     
  0.37500000000000000       0.56250000000000000        0.0000000000000000     
  0.28749999999999998       0.53749999999999998        0.0000000000000000     
  0.33124999999999999       0.54374999999999996        0.0000000000000000     
  0.33750000000000002       0.58750000000000002        0.0000000000000000     
  0.29375000000000001       0.58125000000000004        0.0000000000000000     
  0.43750000000000000       0.50000000000000000        0.0000000000000000     
  0.50000000000000000       0.50000000000000000        0.0000000000000000     
  0.50000000000000000       0.56250000000000000        0.0000000000000000     
  0.41249999999999998       0.53749999999999998        0.0000000000000000     
  0.45624999999999999       0.54374999999999996        0.0000000000000000     
  0.46250000000000002       0.58750000000000002        0.0000000000000000     
  0.41875000000000001       0.58125000000000004        0.0000000000000000     
  0.56250000000000000       0.87500000000000000        0.0000000000000000     
  0.62500000000000000       0.87500000000000000        0.0000000000000000     
  0.62500000000000000       0.93750000000000000        0.0000000000000000     
  0.53749999999999998       0.91249999999999998        0.0000000000000000     
  0.58125000000000004       0.91874999999999996        0.0000000000000000     
  0.58750000000000002       0.96250000000000002        0.0000000000000000     
  0.54374999999999996       0.95625000000000004        0.0000000000000000     
  0.68750000000000000       0.87500000000000000        0.0000000000000000     
  0.75000000000000000       0.87500000000000000        0.0000000000000000     
  0.75000000000000000       0.93750000000000000        0.0000000000000000     
  0.66249999999999998       0.91249999999999998        0.0000000000000000     
  0.70625000000000004       0.91874999999999996        0.0000000000000000     
  0.71250000000000002       0.96250000000000002        0.0000000000000000     
[...]
 CELL_DATA         896
 SCALARS Tumor_cells float
 LOOKUP_TABLE default
    0.20267806389279163781E-04
    0.20400765281906812441E-04
    0.20218196287389816852E-04
    0.20218121356465985423E-04
    0.20400735973204689878E-04
    0.20267851883111643604E-04
    0.20565783664774685030E-04
    0.20400941816302488866E-04
    0.20519063631744616157E-04
    0.20519040708526157640E-04
    0.20400926908908698196E-04
    0.20565803148309855323E-04
    0.20073354134358423488E-04
    0.20073345891805292299E-04
    0.20265286570671669131E-04
    0.20398882497034884187E-04
    0.20212593046822474715E-04
    0.20213388121543555324E-04
    0.20399196799437673152E-04
    0.20266028156285339655E-04
    0.20565475536552627224E-04
    0.20400251111920615919E-04
    0.20518810809515911347E-04
    0.20218621665549745540E-04
    0.20400247525638506423E-04
    0.20266819006850273052E-04
    0.20070968239618133588E-04
    0.20071045734579427998E-04
    0.20265966836261367260E-04
    0.20399205154782982147E-04
    0.20213481718671389293E-04
    0.20212533850134185897E-04
    0.20398869950746284410E-04
    0.20265296659459374368E-04
    0.20266809669010496330E-04
    0.20400275187159658128E-04
    0.20218638444455101452E-04
    0.20518777047644998034E-04
    0.20400243250008793811E-04
    0.20565499670249949831E-04
    0.20071054704707423286E-04
    0.20070974783679369009E-04
    0.20248594619302265877E-04
    0.20381622196816370638E-04
    0.20153606985140228714E-04
    0.20153520880568639236E-04
    0.20381610650183542839E-04
    0.20248605016320679866E-04
    0.20259402756134500990E-04
    0.20395002076136998988E-04
    0.20214927283953530577E-04
    0.20214835768227025297E-04
    0.20394970258682616944E-04
    0.20259413936276796071E-04
    0.20052149572586938436E-04
    0.20052147703671928977E-04
    0.20254138713269765498E-04
    0.20392393370135260229E-04
    0.20196555518572448262E-04
    0.20202630856392014933E-04
    0.20395625198393456276E-04
    0.20262965300132236796E-04
    0.20564753669437780073E-04
    0.20398409087116412658E-04
    0.20518030945687770235E-04
    0.20216276789463647487E-04
    0.20397693274301347558E-04
    0.20261629559662622311E-04
    0.20064173542181902923E-04
    0.20065142371201940310E-04
    0.20234249284433085208E-04
    0.20384000702339679056E-04
    0.20181365238275267835E-04
    0.20194835435261494392E-04
    0.20392751235884786100E-04
    0.20261055310990506523E-04
    0.20564137310460255044E-04
    0.20396518394690230948E-04
    0.20516986624905548528E-04
    0.20212873965347190710E-04
    0.20393669120393993017E-04
    0.20251510241106229131E-04
    0.20056099563638406539E-04
    0.20058865018029461790E-04
    0.20116117310923933257E-04
    0.20248024255287878909E-04
    0.22517096116228570830E-04
    0.19857313053217998583E-04
    0.20311544903839236209E-04
    0.20199919735982260532E-04
    0.20236009999727761654E-04
    0.20371840648492012206E-04
    0.20196832845591202674E-04
    0.20192567324155860056E-04
    0.20355150217798829667E-04
    0.20186534729367243694E-04
    0.19942106813749661511E-04
    0.19954065422282157074E-04
    0.51804238749378903398E-03
    0.35490937065454305512E-04
    0.24041128532858641910E-02
    0.35327235913197941924E-04
    0.20265602627477846746E-04
    0.20166658481334630559E-04
    0.20212685810918687299E-04
    0.20339547437521471448E-04
    0.20162029025164813958E-04
    0.20139902200128215811E-04
    0.20250975467193651006E-04
    0.22932155924343474611E-04
    0.19795503993945362477E-04
    0.19787884697335039399E-04
    0.20262902898984582340E-04
    0.20395634696961421027E-04
    0.20202727198960777942E-04
    0.20196493360241936474E-04
    0.20392379084794866442E-04
    0.20254149367087776129E-04
    0.20261619338775609182E-04
    0.20397721371528590152E-04
    0.20216291191222597519E-04
    0.20517996828976005396E-04
    0.20398393591720291785E-04
    0.20564773895333103207E-04
    0.20065149881644149456E-04
    0.20064180292050904329E-04
    0.20199905697716156349E-04
    0.20311551454138323798E-04
    0.19857471139443562836E-04
    0.22516767747181383772E-04
    0.20248013186706856744E-04
    0.20116166280593330765E-04
    0.20186517945672841426E-04
    0.20355184974337419248E-04
    0.20192629367833960608E-04
    0.20196701805826300743E-04
    0.20371819587292102206E-04
    0.20236035277204772600E-04
    0.19954075631422097162E-04
    0.19942113528512626865E-04
    0.20261039497838012136E-04
    0.20392760336320736570E-04
    0.20194934571376064542E-04
    0.20181299637506892961E-04
    0.20383984320512198147E-04
    0.20234263750494375412E-04
    0.20251499693270671537E-04
    0.20393698554996802483E-04
    0.20212894629212618770E-04
    0.20516955452343149993E-04
    0.20396501311163227983E-04
    0.20564156270095745594E-04
    0.20058872333566872391E-04
    0.20056106021086670798E-04
    0.20166692131313941659E-04
    0.20265602507606106581E-04
    0.35328590392531004005E-04
    0.24039725793042750028E-02
    0.35491897536076293281E-04
    0.51810635916729622184E-03
    0.22932374981398654154E-04
    0.20251017446759040334E-04
    0.20139971574984813751E-04
    0.20161886260246271186E-04
    0.20339523730492415124E-04
    0.20212711587551079038E-04
    0.19787898392125932609E-04
    0.19795515366493146478E-04
    0.53175232015608385472E-02
    0.63729247640777657649E-02
    0.63627068077607151775E-02
    0.63627076420926841419E-02
    0.63728845233778563459E-02
    0.53177512307273477193E-02
    0.46095677513064103837E-03
    0.17657249792906366294E-02
    0.60808140384801261547E-04
    0.60808480891606312151E-04
    0.17657274169053948937E-02
    0.46095160850786516147E-03
    0.32279375745319226383E-02
    0.32279397583462911270E-02
    0.99537343858879124420E-02
    0.11629201796457266926E-01
    0.12255123893207452157E-01
    0.14159394100389877461E-01
    0.18214394409222799814E-01
    0.20780005814194518060E-01
    0.14263042325620782155E-01
    0.16141546378348987228E-01
    0.78433607750565473293E-02
    0.14240418340105488390E-01
    0.15027899544553399713E-01
    0.84668240519674801969E-02
    0.14996590470245488996E-01
    0.17936093173461713918E-01
    0.20779016037527960753E-01
    0.18210666234472004665E-01
    0.14163281934984223512E-01
    0.12256369636936811918E-01
    0.11629183296436133854E-01
    0.99537865754473053154E-02
    0.84667939818869782098E-02
    0.15027448276699042692E-01
    0.14240746330134836442E-01
    0.78427383269011555905E-02
    0.16140771252453414014E-01
    0.14262757388169232040E-01
    0.17957231536785838583E-01
    0.14996991668999232195E-01
    0.12714590701096329869E-01
    0.13072626377623710464E-01
    0.13482958208389628219E-01
    0.13482989704560913863E-01
    0.13072679254936698731E-01
    0.12714661601869519866E-01
    0.12171096142536587739E-01
    0.11855564113915105506E-01
    0.10433459176332409574E-01
    0.10433554439723820989E-01
    0.11855630447414342368E-01
    0.12171464545305958269E-01
    0.12667947188057960412E-01
    0.12667956285009933370E-01
    0.20227959130739133549E-04
    0.20383996866164442400E-04
    0.20187377564527753592E-04
    0.20200488267772103432E-04
    0.20394078602702612346E-04
    0.20262679843473481916E-04
    0.20564385348576620850E-04
    0.20396587595812392356E-04
    0.20516654292377291567E-04
    0.20211271385576375217E-04
    0.20392327639828242765E-04
    0.20246090765657795906E-04
    0.20055675169505814327E-04
    0.20059220487230827951E-04
    0.20244726400168658190E-04
    0.20392430368809892068E-04
    0.20206006072004911272E-04
    0.20211759795840579540E-04
    0.20397903814568561174E-04
    0.20265762267804409010E-04
    0.20565150143837911394E-04
    0.20398586592389937009E-04
    0.20517546609257626396E-04
    0.20213570599916651932E-04
    0.20395516122088725477E-04
    0.20252901761518272804E-04
    0.20063679948422203113E-04
    0.20065790417923060594E-04
    0.22473087476161291050E-02
    0.44425454961126317711E-04
    0.32883327134090482380E-03
    0.21129479035499930877E-04
    0.20266915317269111114E-04
    0.20198254038055103460E-04
    0.20222258656897651924E-04
    0.20340185186666492884E-04
    0.20150520546951933125E-04
    0.20109163196924344610E-04
    0.20255808221669144341E-04
    0.41925984052493207714E-04
    0.19790237421903628264E-04
    0.19802165484004847205E-04
    0.20989367132581380484E-04
    0.20258717169034575487E-04
    0.20026235251087637286E-04
    0.20122442229755678337E-04
    0.20359569919862807773E-04
    0.20246194166515404754E-04
    0.20250359771313202275E-04
    0.20373356458143468601E-04
    0.20180236378319492321E-04
    0.20148451670522696938E-04
    0.20308922359295280733E-04
    0.19923866771193416374E-04
    0.19923398051581139493E-04
    0.19969356717453689675E-04
    0.20261677777755962164E-04
    0.20398903484366006310E-04
    0.20216526085769915655E-04
    0.20217703177228795857E-04
    0.20400340331235416742E-04
    0.20267771800362421186E-04
    0.20565693857953576499E-04
    0.20400335635097163083E-04
    0.20518550628400113368E-04
    0.20216970918794900934E-04
    0.20399204948409852163E-04
    0.20262809719646544051E-04
    0.20070772303033386838E-04
    0.20071334660812460823E-04
    0.20267219135916861669E-04
    0.20400823145058900957E-04
    0.20218963342457798535E-04
    0.20518991037994408172E-04
    0.20400960628222213067E-04
    0.20565868854881278269E-04
    0.20565852997442689450E-04
    0.20400985630624949132E-04
    0.20519017214005707677E-04
    0.20218932860978112840E-04
    0.20400798843895778551E-04
    0.20267225913545934741E-04
    0.20073511199580796759E-04
    0.20073498624796687264E-04
    0.20204220142882349184E-04
    0.20381644346478974638E-04
    0.20199994066633916923E-04
    0.20208897105779406419E-04
    0.20395528954758334629E-04
    0.20264772207692420650E-04
    0.20264749852138780551E-04
    0.20395537805475643338E-04
    0.20209001239065584830E-04
    0.20199931920662906714E-04
    0.20381629228427974789E-04
    0.20204233135606697574E-04
    0.20048703231005713629E-04
    0.20056145510064479797E-04
    0.20262806809773954990E-04
    0.20399216478721954267E-04
    0.20216997819876337292E-04
    0.20518527247558552570E-04
    0.20400319036913448979E-04
    0.20565719551985375206E-04
    0.20267713918188544266E-04
    0.20400347680177804396E-04
    0.20217804141517486613E-04
    0.20216467317956020923E-04
    0.20398888600913063181E-04
    0.20261690626324732102E-04
    0.20070773281321322931E-04
    0.20071333360604574317E-04
    0.12173180210890081898E-01
    0.10992397357132928370E-01
    0.90657478932766686480E-02
    0.74512643531028611640E-02
    0.12520395827385108478E-01
    0.10078410481269055310E-01
    0.61307619090099014017E-02
    0.12941680841613005526E-01
    0.13362457813781451407E-01
    0.19490591848923766172E-01
    0.14785453347274126606E-01
    0.13787853470916506399E-01
    0.13215592229044290443E-01
    0.14497172446922503355E-01
    0.55009610393812798795E-02
    0.49510550420242974493E-02
    0.27977681634967360713E-02
    0.21937148558083581907E-03
    0.46545032130391794439E-03
    0.30933139571086476136E-04
    0.30932816688111026623E-04
    0.46545149273575061113E-03
    0.21938291689459156388E-03
    0.27976031886192808534E-02
    0.49511031429509575960E-02
    0.55010105793054132894E-02
    0.24928762568875721846E-02
    0.13055879424443165779E-02
    0.13489380791042868829E-01
    0.13140287283348376507E-01
    0.12713642544513400340E-01
    0.12235887826166302883E-01
    0.11721126922174696094E-01
    0.98438250455325122801E-02
    0.98439071175895811322E-02
    0.11721077398900874023E-01
    0.12235765065540034346E-01
    0.12713637890173637782E-01
    0.13140321835250530144E-01
    0.13489462834063140409E-01
    0.12887917826415379308E-01
    0.12478653301553472438E-01
    0.13788351871075979482E-01
    0.14786353204355002014E-01
    0.19490363573012297466E-01
    0.13362197027038513059E-01
    0.12945158137500490173E-01
    0.61321509429490541829E-02
    0.10078753356340033193E-01
    0.12518921663632959912E-01
    0.74511369339971388753E-02
    0.90653976924285079725E-02
    0.10989815843669198739E-01
    0.12173102886773277953E-01
    0.13228153648643516810E-01
    0.14484407805202182198E-01
    0.19923850911939923941E-04
    0.20308937754892560134E-04
    0.20148521372080559932E-04
    0.20180110409547271467E-04
    0.20373330154343252630E-04
    0.20250392681174900591E-04
    0.20246177007043085537E-04
    0.20359577812589386959E-04
    0.20122568880109338428E-04
    0.20026139434668453098E-04
    0.20258695579264723901E-04
    0.20989692541334173891E-04
    0.19923398117406150137E-04
    0.19969356788668669118E-04
    0.20252897999856673595E-04
    0.20395527504369175540E-04
    0.20213597615576485786E-04
    0.20517523033783591533E-04
    0.20398569740213025987E-04
    0.20565175243055110643E-04
    0.20265703774537938055E-04
    0.20397909162364867032E-04
    0.20211863429558028467E-04
    0.20205944709046180481E-04
    0.20392414484913683653E-04
    0.20244743489588425323E-04
    0.20063680121624377693E-04
    0.20065789635113245767E-04
    0.41927990919834624427E-04
    0.20255823988406235605E-04
    0.20109236843841844469E-04
    0.20150388367202673874E-04
    0.20340156906979937331E-04
    0.20222296977477173324E-04
    0.20198232821255356247E-04
    0.20266917071613597094E-04
    0.21129936184410982809E-04
    0.32887250676628905282E-03
    0.44427681669713968481E-04
    0.22475762052070139690E-02
    0.19790258295967251572E-04
    0.19802163932928197273E-04
    0.20246129077507856738E-04
    0.20392344673119364872E-04
    0.20211297946184481977E-04
    0.20516629467246184682E-04
    0.20396565960014987256E-04
    0.20564408935501246893E-04
    0.20262617242935342327E-04
    0.20394098918743135677E-04
    0.20200594169885648864E-04
    0.20187318125813044303E-04
    0.20383986895140222487E-04
    0.20227978534932866586E-04
    0.20055685814378557336E-04
    0.20059243481513663453E-04
    0.20262663199280374685E-04
    0.20394109089166104378E-04
    0.20200544140800004406E-04
    0.20187313751330273655E-04
    0.20383980374706605211E-04
    0.20227974370589476606E-04
    0.20246080175690700932E-04
    0.20392357265913739413E-04
    0.20211336666621948933E-04
    0.20516623422051142841E-04
    0.20396570294649784080E-04
    0.20564405185054306308E-04
    0.20059262716452612283E-04
    0.20055681959826083692E-04
    0.20198284871738451035E-04
    0.20266933603789663310E-04
    0.21129781395927828107E-04
    0.32883942701467799852E-03
    0.44428595024256038455E-04
    0.22476637865739578816E-02
    0.41928699629871468127E-04
    0.20255855107763763887E-04
    0.20109280596767253689E-04
    0.20150372881840603550E-04
    0.20340160364915562454E-04
    0.20222284788844569565E-04
    0.19802190064951208967E-04
    0.19790254802668404090E-04
    0.20265745720765953724E-04
    0.20397918957472080289E-04
    0.20211814083071513005E-04
    0.20205941198578208939E-04
    0.20392409733775690152E-04
    0.20244739551107631114E-04
    0.20252845163162919921E-04
    0.20395538578844798241E-04
    0.20213636075055492090E-04
    0.20517517799574414066E-04
    0.20398575529538089845E-04
    0.20565168669287816510E-04
    0.20065808078599516463E-04
    0.20063674354524746864E-04
    0.20246225552535828551E-04
    0.20359588984414740069E-04
    0.20122513053700877262E-04
    0.20026136543137776363E-04
    0.20258688080086748523E-04
    0.20989683639603648636E-04
    0.19923770384342367193E-04
    0.20308956073379031229E-04
    0.20148563494443940574E-04
    0.20180096779652742636E-04
    0.20373333560964734118E-04
    0.20250383422114446344E-04
    0.19969378146769114281E-04
    0.19923389685714400579E-04
    0.10078755284834289840E-01
    0.12520738745879139708E-01
    0.74513088164583499498E-02
    0.90657710697020239127E-02
    0.10992426694350534988E-01
    0.12173423802306362895E-01
    0.13789741355799607983E-01
    0.14786202065057305055E-01
    0.19491038795271385664E-01
    0.13362221687062433503E-01
    0.12942137746903014522E-01
    0.61312083698411871599E-02
    0.14497408363560370867E-01
    0.13215799495999382487E-01
    0.98437510743218121362E-02
    0.11721161932943558251E-01
    0.12236184039982146710E-01
    0.12713805534575760292E-01
    0.13140368547475678868E-01
    0.13489479296228547300E-01
    0.13489477725753646134E-01
    0.13140283980534786176E-01
    0.12713509060762623673E-01
    0.12235820287590655833E-01
    0.11721083571716613483E-01
    0.98438764099354533060E-02
    0.12478657587402689627E-01
    0.12887936333155707025E-01
    0.30932901844125868494E-04
    0.46545356938662238184E-03
    0.21938106267854840599E-03
    0.27975807651668574243E-02
    0.49510730544901609268E-02
    0.55008681853186613617E-02
    0.55010330499233638449E-02
    0.49511263619815672546E-02
    0.27977235953860805050E-02
    0.21936077518407886069E-03
    0.46545327094170749595E-03
    0.30933092056687891880E-04
    0.13056018576072738087E-02
    0.24929020268178105242E-02
    0.61313073005860117132E-02
    0.12942478111165342872E-01
    0.13361813114832280999E-01
    0.19488895439488094358E-01
    0.14787285694295692826E-01
    0.13791983831317772280E-01
    0.12173980506970341620E-01
    0.10990432876856356254E-01
    0.90652677794999907135E-02
    0.74506948451463677133E-02
    0.12515745667528506424E-01
    0.10077700520938188619E-01
    0.14481004653307134530E-01
    0.13228720304834552801E-01
    0.20267755809250344236E-04
    0.20400356582594158676E-04
    0.20217756226648911122E-04
    0.20216463975391277323E-04
    0.20398884014679533326E-04
    0.20261686575668423789E-04
    0.20262755019837432448E-04
    0.20399226145067470987E-04
    0.20217036069670158934E-04
    0.20518521971873414117E-04
    0.20400325331334979333E-04
    0.20565713069059200150E-04
    0.20071351848912335418E-04
    0.20070767099565389778E-04
    0.20264807491077934336E-04
    0.20395546616362538909E-04
    0.20208951734456971324E-04
    0.20199928811949140162E-04
    0.20381624196183900085E-04
    0.20204227540783434313E-04
    0.20204161776076924860E-04
    0.20381657250937306082E-04
    0.20200032444648895945E-04
    0.20208885358453207735E-04
    0.20395533310439081267E-04
    0.20264775467285628386E-04
    0.20056164361037603320E-04
    0.20048696117681074838E-04
    0.20565852353127023769E-04
    0.20400985630912737046E-04
    0.20519024228730256516E-04
    0.20218899330776521247E-04
    0.20400803038356326213E-04
    0.20267227386230552766E-04
    0.20267173510209225977E-04
    0.20400821333739350256E-04
    0.20218994392131759227E-04
    0.20518985116846833236E-04
    0.20400965306579530768E-04
    0.20565868261150762399E-04
    0.20073513860864618247E-04
    0.20073510156628935681E-04
    0.20565699942852837121E-04
    0.20400334440126967426E-04
    0.20518555748605381576E-04
    0.20216931607310240559E-04
    0.20399196196955531556E-04
    0.20262818030131385573E-04
    0.20261638063889103183E-04
    0.20398913372812520022E-04
    0.20216564074583467242E-04
    0.20217693325621096886E-04
    0.20400343620486517508E-04
    0.20267730134902466364E-04
    0.20071352075370012491E-04
    0.20070766373336457644E-04
    0.20250420957755803066E-04
    0.20373354001128367785E-04
    0.20180173973794351586E-04
    0.20148449131715418111E-04
    0.20308913541910453222E-04
    0.19923887337816192542E-04
    0.20989376002281802072E-04
    0.20258740011466799097E-04
    0.20026278054176693003E-04
    0.20122425970418502680E-04
    0.20359576062193995583E-04
    0.20246197853953932697E-04
    0.19969378976722892375E-04
    0.19923387591975610109E-04
    0.20222323515589169207E-04
    0.20340182571742221166E-04
    0.20150456715131085365E-04
    0.20109160375860849363E-04
    0.20255798455449386663E-04
    0.41928390448279132083E-04
    0.22473560129095734167E-02
    0.44428091344834530572E-04
    0.32884331851459213834E-03
    0.21129401995416772630E-04
    0.20266924743166239909E-04
    0.20198256392317233757E-04