# vtk DataFile Version 3.0
LAPLACIEN  2D
ASCII
DATASET UNSTRUCTURED_GRID
 POINTS         481  float
   6.2500000000000000E-002  0.87500000000000000        0.0000000000000000     
  0.12500000000000000       0.87500000000000000        0.0000000000000000     
  0.12500000000000000       0.93750000000000000        0.0000000000000000     
   3.7499999999999999E-002  0.91249999999999998        0.0000000000000000     
   8.1250000000000003E-002  0.91874999999999996        0.0000000000000000     
   8.7499999999999994E-002  0.96250000000000002        0.0000000000000000     
   4.3749999999999997E-002  0.95625000000000004        0.0000000000000000     
  0.18750000000000000       0.87500000000000000        0.0000000000000000     
  0.25000000000000000       0.87500000000000000        0.0000000000000000     
  0.25000000000000000       0.93750000000000000        0.0000000000000000     
  0.16250000000000001       0.91249999999999998        0.0000000000000000     
  0.20624999999999999       0.91874999999999996        0.0000000000000000     
  0.21249999999999999       0.96250000000000002        0.0000000000000000     
  0.16875000000000001       0.95625000000000004        0.0000000000000000     
   6.2500000000000000E-002  0.75000000000000000        0.0000000000000000     
  0.12500000000000000       0.75000000000000000        0.0000000000000000     
  0.12500000000000000       0.81250000000000000        0.0000000000000000     
   3.7499999999999999E-002  0.78749999999999998        0.0000000000000000     
   8.1250000000000003E-002  0.79374999999999996        0.0000000000000000     
   8.7499999999999994E-002  0.83750000000000002        0.0000000000000000     
   4.3749999999999997E-002  0.83125000000000004        0.0000000000000000     
  0.18750000000000000       0.75000000000000000        0.0000000000000000     
  0.25000000000000000       0.75000000000000000        0.0000000000000000     
  0.25000000000000000       0.81250000000000000        0.0000000000000000     
  0.16250000000000001       0.78749999999999998        0.0000000000000000     
  0.20624999999999999       0.79374999999999996        0.0000000000000000     
  0.21249999999999999       0.83750000000000002        0.0000000000000000     
  0.16875000000000001       0.83125000000000004        0.0000000000000000     
  0.31250000000000000       0.87500000000000000        0.0000000000000000     
  0.37500000000000000       0.87500000000000000        0.0000000000000000     
  0.37500000000000000       0.93750000000000000        0.0000000000000000     
  0.28749999999999998       0.91249999999999998        0.0000000000000000     
  0.33124999999999999       0.91874999999999996        0.0000000000000000     
  0.33750000000000002       0.96250000000000002        0.0000000000000000     
  0.29375000000000001       0.95625000000000004        0.0000000000000000     
  0.43750000000000000       0.87500000000000000        0.0000000000000000     
  0.50000000000000000       0.87500000000000000        0.0000000000000000     
  0.50000000000000000       0.93750000000000000        0.0000000000000000     
  0.41249999999999998       0.91249999999999998        0.0000000000000000     
  0.45624999999999999       0.91874999999999996        0.0000000000000000     
  0.46250000000000002       0.96250000000000002        0.0000000000000000     
  0.41875000000000001       0.95625000000000004        0.0000000000000000     
  0.31250000000000000       0.75000000000000000        0.0000000000000000     
  0.37500000000000000       0.75000000000000000        0.0000000000000000     
  0.37500000000000000       0.81250000000000000        0.0000000000000000     
  0.28749999999999998       0.78749999999999998        0.0000000000000000     
  0.33124999999999999       0.79374999999999996        0.0000000000000000     
  0.33750000000000002       0.83750000000000002        0.0000000000000000     
  0.29375000000000001       0.83125000000000004        0.0000000000000000     
  0.43750000000000000       0.75000000000000000        0.0000000000000000     
  0.50000000000000000       0.75000000000000000        0.0000000000000000     
  0.50000000000000000       0.81250000000000000        0.0000000000000000     
  0.41249999999999998       0.78749999999999998        0.0000000000000000     
  0.45624999999999999       0.79374999999999996        0.0000000000000000     
  0.46250000000000002       0.83750000000000002        0.0000000000000000     
  0.41875000000000001       0.83125000000000004        0.0000000000000000     
   6.2500000000000000E-002  0.62500000000000000        0.0000000000000000     
  0.12500000000000000       0.62500000000000000        0.0000000000000000     
  0.12500000000000000       0.68750000000000000        0.0000000000000000     
   3.7499999999999999E-002  0.66249999999999998        0.0000000000000000     
   8.1250000000000003E-002  0.66874999999999996        0.0000000000000000     
   8.7499999999999994E-002  0.71250000000000002        0.0000000000000000     
   4.3749999999999997E-002  0.70625000000000004        0.0000000000000000     
  0.18750000000000000       0.62500000000000000        0.0000000000000000     
  0.25000000000000000       0.62500000000000000        0.0000000000000000     
  0.25000000000000000       0.68750000000000000        0.0000000000000000     
  0.16250000000000001       0.66249999999999998        0.0000000000000000     
  0.20624999999999999       0.66874999999999996        0.0000000000000000     
  0.21249999999999999       0.71250000000000002        0.0000000000000000     
  0.16875000000000001       0.70625000000000004        0.0000000000000000     
   6.2500000000000000E-002  0.50000000000000000        0.0000000000000000     
  0.12500000000000000       0.50000000000000000        0.0000000000000000     
  0.12500000000000000       0.56250000000000000        0.0000000000000000     
   3.7499999999999999E-002  0.53749999999999998        0.0000000000000000     
   8.1250000000000003E-002  0.54374999999999996        0.0000000000000000     
   8.7499999999999994E-002  0.58750000000000002        0.0000000000000000     
   4.3749999999999997E-002  0.58125000000000004        0.0000000000000000     
  0.18750000000000000       0.50000000000000000        0.0000000000000000     
  0.25000000000000000       0.50000000000000000        0.0000000000000000     
  0.25000000000000000       0.56250000000000000        0.0000000000000000     
  0.16250000000000001       0.53749999999999998        0.0000000000000000     
  0.20624999999999999       0.54374999999999996        0.0000000000000000     
  0.21249999999999999       0.58750000000000002        0.0000000000000000     
  0.16875000000000001       0.58125000000000004        0.0000000000000000     
  0.31250000000000000       0.62500000000000000        0.0000000000000000     
  0.37500000000000000       0.62500000000000000        0.0000000000000000     
  0.37500000000000000       0.68750000000000000        0.0000000000000000     
  0.28749999999999998       0.66249999999999998        0.0000000000000000     
  0.33124999999999999       0.66874999999999996        0.0000000000000000     
  0.33750000000000002       0.71250000000000002        0.0000000000000000     
  0.29375000000000001       0.70625000000000004        0.0000000000000000     
  0.43750000000000000       0.62500000000000000        0.0000000000000000     
  0.50000000000000000       0.62500000000000000        0.0000000000000000     
  0.50000000000000000       0.68750000000000000        0.0000000000000000     
  0.41249999999999998       0.66249999999999998        0.0000000000000000     
  0.45624999999999999       0.66874999999999996        0.0000000000000000     
  0.46250000000000002       0.71250000000000002        0.0000000000000000     
  0.41875000000000001       0.70625000000000004        0.0000000000000000     
  0.31250000000000000       0.50000000000000000        0.0000000000000000     
  0.37500000000000000       0.50000000000000000        0.0000000000000000     
  0.37500000000000000       0.56250000000000000        0.0000000000000000     
  0.28749999999999998       0.53749999999999998        0.0000000000000000     
  0.33124999999999999       0.54374999999999996        0.0000000000000000     
  0.33750000000000002       0.58750000000000002        0.0000000000000000     
  0.29375000000000001       0.58125000000000004        0.0000000000000000     
  0.43750000000000000       0.50000000000000000        0.0000000000000000     
  0.50000000000000000       0.50000000000000000        0.0000000000000000     
  0.50000000000000000       0.56250000000000000        0.0000000000000000     
  0.41249999999999998       0.53749999999999998        0.0000000000000000     
  0.45624999999999999       0.54374999999999996        0.0000000000000000     
  0.46250000000000002       0.58750000000000002        0.0000000000000000     
  0.41875000000000001       0.58125000000000004        0.0000000000000000     
  0.56250000000000000       0.87500000000000000        0.0000000000000000     
  0.62500000000000000       0.87500000000000000        0.0000000000000000     
  0.62500000000000000       0.93750000000000000        0.0000000000000000     
  0.53749999999999998       0.91249999999999998        0.0000000000000000     
  0.58125000000000004       0.91874999999999996        0.0000000000000000     
  0.58750000000000002       0.96250000000000002        0.0000000000000000     
  0.54374999999999996       0.95625000000000004        0.0000000000000000     
  0.68750000000000000       0.87500000000000000        0.0000000000000000     
  0.75000000000000000       0.87500000000000000        0.0000000000000000     
  0.75000000000000000       0.93750000000000000        0.0000000000000000     
  0.66249999999999998       0.91249999999999998        0.0000000000000000     
  0.70625000000000004       0.91874999999999996        0.0000000000000000     
  0.71250000000000002       0.96250000000000002        0.0000000000000000     
[...]
 CELL_DATA         896
 SCALARS Tumor_cells float
 LOOKUP_TABLE default
   -0.27177182682336328394E-07
   -0.33505029084294568801E-07
   -0.24825971153663364550E-07
   -0.24825824906900071530E-07
   -0.33505094496759410695E-07
   -0.27177371832325571649E-07
   -0.41305623857793933424E-07
   -0.33515748791546776437E-07
   -0.39108570000534072386E-07
   -0.39108478272087042154E-07
   -0.33515789188661537016E-07
   -0.41305680965454363745E-07
   -0.17851136310419869378E-07
   -0.17851167194701020642E-07
   -0.27122094554221574953E-07
   -0.33459187026506650770E-07
   -0.24728877368858565599E-07
   -0.24736367500415986118E-07
   -0.33460240168007827286E-07
   -0.27121869159084312635E-07
   -0.41284105736265189455E-07
   -0.33486337085943792117E-07
   -0.39094676465117996846E-07
   -0.24837018316655933651E-07
   -0.33489301915181952121E-07
   -0.27152699978455722287E-07
   -0.17793734794227482264E-07
   -0.17792420544675099908E-07
   -0.27121795413647435111E-07
   -0.33460385041820719983E-07
   -0.24736427774489221834E-07
   -0.24728887524983956248E-07
   -0.33459246127649798475E-07
   -0.27122283666520972180E-07
   -0.27152571261284313372E-07
   -0.33489325597570386117E-07
   -0.24837015552262368903E-07
   -0.39094699274618332268E-07
   -0.33486388835787430946E-07
   -0.41284067851325868199E-07
   -0.17792331270383525588E-07
   -0.17793720611647818720E-07
   -0.26916882070379763299E-07
   -0.33239749194793101184E-07
   -0.24125256874351614189E-07
   -0.24125309469822085875E-07
   -0.33239894278415459346E-07
   -0.26917181517031091664E-07
   -0.27039063665157419071E-07
   -0.33401224559402727848E-07
   -0.24767215520450376587E-07
   -0.24767147731604868991E-07
   -0.33401368522053153727E-07
   -0.27039077049670372197E-07
   -0.17564776075549337057E-07
   -0.17564787287138461955E-07
   -0.26966557773331257516E-07
   -0.33356269481876369469E-07
   -0.24526897206722998619E-07
   -0.24586702199795691119E-07
   -0.33388983165371443550E-07
   -0.27054748221115335803E-07
   -0.41256579480542925358E-07
   -0.33435249903004478678E-07
   -0.39062634600026532425E-07
   -0.24772141734499819604E-07
   -0.33429548522294124468E-07
   -0.27059818419374972533E-07
   -0.17672648957832793508E-07
   -0.17678808363245318864E-07
   -0.26742535522640018545E-07
   -0.33250133534412392153E-07
   -0.24360056786232487935E-07
   -0.24489044323842443221E-07
   -0.33341807661700745159E-07
   -0.27018403810703833404E-07
   -0.41238551882978096020E-07
   -0.33391102543260651629E-07
   -0.39032424342500112689E-07
   -0.24699903784643675082E-07
   -0.33360397808296204672E-07
   -0.26919164459499896052E-07
   -0.17555435947331495360E-07
   -0.17578077292836794695E-07
   -0.24855497135764392429E-07
   -0.31897744923019217412E-07
   -0.20245434699737884562E-07
   -0.21768850046028074500E-07
   -0.32499898486577329204E-07
   -0.26434178446950054524E-07
   -0.26768123585357170945E-07
   -0.33120913218799355002E-07
   -0.24543415316674894260E-07
   -0.24501446961968590295E-07
   -0.32974853668042416839E-07
   -0.26245584200752097795E-07
   -0.16490628592048335232E-07
   -0.16640931290582584649E-07
   -0.92613169150351982249E-08
   -0.29293508520710224846E-07
    0.43903720158505213224E-07
   -0.19569712328922180015E-07
   -0.31794596279527236674E-07
   -0.26111443348920148362E-07
   -0.26538121750073791856E-07
   -0.32776790312833919565E-07
   -0.24188150954768059876E-07
   -0.23960291475530127481E-07
   -0.32059382526536450932E-07
   -0.23829604233734968329E-07
   -0.14782713610965597992E-07
   -0.15372190895761814312E-07
   -0.27054715892894859497E-07
   -0.33388868481175805975E-07
   -0.24586766593427942943E-07
   -0.24526875928602943081E-07
   -0.33356243980104667854E-07
   -0.26966689890134820297E-07
   -0.27059681346623037411E-07
   -0.33429595924377665265E-07
   -0.24772269919336465246E-07
   -0.39062631283485220339E-07
   -0.33435425005348742844E-07
   -0.41256650944008714797E-07
   -0.17678823864507497195E-07
   -0.17672506640063054050E-07
   -0.26433973962053607525E-07
   -0.32499930725805278215E-07
   -0.21768778838710779018E-07
   -0.20245263095610820644E-07
   -0.31897796238054745213E-07
   -0.24855733787916306265E-07
   -0.26245497644846580486E-07
   -0.32974665039768843617E-07
   -0.24501448417948677279E-07
   -0.24543500403782601819E-07
   -0.33120871633518094299E-07
   -0.26768116078012845308E-07
   -0.16640989255918444825E-07
   -0.16490571176459764110E-07
   -0.27018381029578145494E-07
   -0.33341759687116185050E-07
   -0.24488955626215028677E-07
   -0.24360123630903514781E-07
   -0.33250338771556215495E-07
   -0.26742728430527503603E-07
   -0.26919055610659107832E-07
   -0.33360339925751373008E-07
   -0.24700030635437892451E-07
   -0.39032395851795666505E-07
   -0.33391183720493312011E-07
   -0.41238541857346531741E-07
   -0.17578182310744444704E-07
   -0.17555410086253873603E-07
   -0.26111289214902963256E-07
   -0.31794618461157537653E-07
   -0.19569705457356245020E-07
    0.43904088885222151155E-07
   -0.29293645602761086186E-07
   -0.92615199037858431784E-08
   -0.23829558532931604222E-07
   -0.32059223332051127301E-07
   -0.23960174122789019492E-07
   -0.24188383643144838587E-07
   -0.32776840606446385697E-07
   -0.26538232592264247111E-07
   -0.15372109369334441442E-07
   -0.14782654400423235006E-07
    0.71917801485973876637E-05
    0.11108748156462686823E-03
    0.74181236418893411501E-03
    0.74180864438914832001E-03
    0.11108649367700159500E-03
    0.71917207950951500152E-05
    0.13322866810104577118E-07
    0.16018577559201556415E-04
    0.37117231386503798961E-07
    0.37117124518638214633E-07
    0.16018585991834268097E-04
    0.13323446985257833074E-07
    0.31811005378258586291E-04
    0.31810939041175414035E-04
    0.10646282784353287149E-01
    0.10128886813266856776E-01
    0.15100020336513291647E-01
    0.10565095063877377388E-01
    0.60095268348534913033E-02
    0.12850288114752569067E-02
    0.18654668841362039917E-04
    0.34054910165002736603E-03
    0.38914811221034310373E-05
    0.20273688831723096315E-03
    0.14814375472135645536E-02
    0.39167547226532008903E-02
    0.48326961167691889765E-02
    0.19938675214476462086E-02
    0.12850265163377768817E-02
    0.60095363204733954349E-02
    0.10565094153526983362E-01
    0.15100019832362161082E-01
    0.10128885977528371415E-01
    0.10646298259996961680E-01
    0.39167657470296161210E-02
    0.14814384477689671558E-02
    0.20273713960240481160E-03
    0.38914763107993837087E-05
    0.34054903215714830414E-03
    0.18654946436696528950E-04
    0.19938670378139983219E-02
    0.48326952153390501099E-02
    0.21326247059123962235E-01
    0.20192761009435612057E-01
    0.15078290442584775521E-01
    0.15078300544244728487E-01
    0.20192767582878148880E-01
    0.21326256722846388680E-01
    0.18473164713156225297E-01
    0.19310335760238730995E-01
    0.13793285942732550625E-01
    0.13793300231783803614E-01
    0.19310336031060772871E-01
    0.18473159812393159102E-01
    0.21418836060023913048E-01
    0.21418838650725531558E-01
   -0.26678298862233709302E-07
   -0.33251484129345769024E-07
   -0.24428222351790550894E-07
   -0.24558858428267643039E-07
   -0.33365445424148817700E-07
   -0.27050901192081562223E-07
   -0.41246270094124588344E-07
   -0.33393216381910628194E-07
   -0.39023155664594872913E-07
   -0.24669369888530026957E-07
   -0.33340510024020540701E-07
   -0.26853103245456769680E-07
   -0.17550961801313391283E-07
   -0.17583896707171542408E-07
   -0.26858413041475739843E-07
   -0.33358969352132607731E-07
   -0.24642412330804292671E-07
   -0.24710585847140592019E-07
   -0.33432358472113036328E-07
   -0.27118990308529927565E-07
   -0.41271664317383343950E-07
   -0.33438634731688865958E-07
   -0.39045725889065765516E-07
   -0.24714518709619035576E-07
   -0.33390241491899452458E-07
   -0.26939275243944746530E-07
   -0.17666867442187424938E-07
   -0.17689357490231126253E-07
    0.47706763523411984725E-07
   -0.29293769382587404811E-07
   -0.96151990058711039659E-08
   -0.21162833540499696356E-07
   -0.32166722439152493553E-07
   -0.26396904959998740907E-07
   -0.26636932466744853417E-07
   -0.32793521230156326995E-07
   -0.24079833400172795772E-07
   -0.23691222875031159572E-07
   -0.31723682988119358634E-07
   -0.22299434811858394750E-07
   -0.14684894187212601508E-07
   -0.15466785139252914421E-07
   -0.22238964865418697273E-07
   -0.31896984921987414748E-07
   -0.22756901588522572829E-07
   -0.23804713645622632283E-07
   -0.33024011947550683249E-07
   -0.26891065674308900253E-07
   -0.26933223436136806594E-07
   -0.33147069287292199159E-07
   -0.24365416604167276951E-07
   -0.24078635473682654594E-07
   -0.32493153726564537655E-07
   -0.24287664273833268964E-07
   -0.16374721105600308699E-07
   -0.16769170359477296151E-07
   -0.27066589490390318514E-07
   -0.33460911665922942355E-07
   -0.24793619154136356750E-07
   -0.24815694906975662764E-07
   -0.33492157916835827476E-07
   -0.27176880387035552623E-07
   -0.41298675649806960628E-07
   -0.33489309001144724205E-07
   -0.39079808302367285015E-07
   -0.24788915670259510952E-07
   -0.33461651574722353339E-07
   -0.27077184645230653601E-07
   -0.17788413686331334757E-07
   -0.17798570069693435480E-07
   -0.27161724533902531919E-07
   -0.33507154574752207552E-07
   -0.24847450070289750566E-07
   -0.39105340795244354576E-07
   -0.33517338792972475774E-07
   -0.41310092294988422334E-07
   -0.41310094453040304154E-07
   -0.33517224699060619405E-07
   -0.39105378444696459510E-07
   -0.24847181072416276688E-07
   -0.33507233026960200126E-07
   -0.27161812980106877264E-07
   -0.17855498318416423700E-07
   -0.17858592244859947182E-07
   -0.26483141234885817886E-07
   -0.33244015080986571639E-07
   -0.24588445919608627183E-07
   -0.24684234803912190359E-07
   -0.33409702178349527270E-07
   -0.27117634481338126420E-07
   -0.27117508081232299654E-07
   -0.33409709493719175690E-07
   -0.24684168849757589363E-07
   -0.24588277793649708719E-07
   -0.33243919608593589916E-07
   -0.26483272880934058242E-07
   -0.17534492472656734088E-07
   -0.17603454385273463466E-07
   -0.27077094512263187711E-07
   -0.33461680673921656746E-07
   -0.24789022962836679456E-07
   -0.39079786565532334814E-07
   -0.33489310172605597174E-07
   -0.41298624672056842225E-07
   -0.27176983310796753838E-07
   -0.33492080064118487051E-07
   -0.24815652470375878375E-07
   -0.24793404789130237011E-07
   -0.33460931027578465158E-07
   -0.27066688378692697653E-07
   -0.17788342275035958900E-07
   -0.17798651175997565254E-07
    0.16621968212537301113E-01
    0.10452790657921238321E-01
    0.84231907399144496928E-02
    0.26989111338901628639E-02
    0.55894919787298708372E-03
    0.70079342866405898503E-04
    0.40887905031568879641E-05
    0.35359630170742848429E-03
    0.17090419382249208202E-04
    0.11643743882101451580E-02
    0.58679558652679295744E-02
    0.10697387164958365585E-01
    0.46076677275182290061E-02
    0.18191466685212158167E-02
    0.38884446978493036407E-03
    0.47811183511573965364E-04
    0.21052234854866303178E-05
   -0.16326782949131365082E-07
    0.13477437945114824445E-04
    0.25771770023496247506E-07
    0.25771906178549983119E-07
    0.13477435847260314436E-04
   -0.16326659838198210024E-07
    0.21052433535047365674E-05
    0.47811479966269216648E-04
    0.38884543200825693460E-03
    0.28958136516310262762E-04
    0.30287265132516825458E-04
    0.15271740013382861453E-01
    0.20434815753286719731E-01
    0.21421674681025727055E-01
    0.19566752003725453729E-01
    0.19290656369126930186E-01
    0.12500708478707231106E-01
    0.12500710192235385543E-01
    0.19290657181748615406E-01
    0.19566740056336247300E-01
    0.21421676708815250156E-01
    0.20434814488872556082E-01
    0.15271747432901688901E-01
    0.21523066527760061767E-01
    0.21222953336039577371E-01
    0.10697387697072735513E-01
    0.58679503618767605774E-02
    0.11643744299096381919E-02
    0.17090301471922848771E-04
    0.35359629453288399714E-03
    0.40887907773636173015E-05
    0.70079447748061437238E-04
    0.55895096462546729234E-03
    0.26989123602390984596E-02
    0.84231963404011976626E-02
    0.10452799204856751819E-01
    0.16621978636585005989E-01
    0.46076680852067727207E-02
    0.18191466509075448783E-02
   -0.24287408573252743238E-07
   -0.32493158378191478498E-07
   -0.24078770413930333316E-07
   -0.24365550469314132354E-07
   -0.33147152468130447824E-07
   -0.26933379077783722514E-07
   -0.26891016201418235162E-07
   -0.33023979266264424846E-07
   -0.23804639868072442784E-07
   -0.22756683817479184971E-07
   -0.31896880366122929785E-07
   -0.22239059483858856375E-07
   -0.16374825170398249820E-07
   -0.16769138347450926877E-07
   -0.26939268421862701307E-07
   -0.33390294383665662219E-07
   -0.24714619247415472701E-07
   -0.39045762119926558912E-07
   -0.33438681503134328199E-07
   -0.41271665631362903512E-07
   -0.27119009486456433751E-07
   -0.33432577715950608174E-07
   -0.24710525299859979439E-07
   -0.24642202546431176342E-07
   -0.33359037240980949280E-07
   -0.26858446767302597439E-07
   -0.17666914393948093011E-07
   -0.17689371987061942214E-07
   -0.22299205195638451257E-07
   -0.31723737683419790780E-07
   -0.23691347424421758243E-07
   -0.24079997003672999819E-07
   -0.32793617872489195064E-07
   -0.26636859597633354019E-07
   -0.26396888263252197405E-07
   -0.32166761871982692511E-07
   -0.21162801425407320898E-07
   -0.96152457322170198857E-08
   -0.29293773202035176612E-07
    0.47706142555844582365E-07
   -0.14684857474762644779E-07
   -0.15466929033719001226E-07
   -0.26853054278949436028E-07
   -0.33340510038118861477E-07
   -0.24669483346027016907E-07
   -0.39023067614048994149E-07
   -0.33393259658772800497E-07
   -0.41246247179271155211E-07
   -0.27050987175567954412E-07
   -0.33365464353644259607E-07
   -0.24558823040939492800E-07
   -0.24428097617340233613E-07
   -0.33251634610645773015E-07
   -0.26678319091623714221E-07
   -0.17550963106570880533E-07
   -0.17584013306732002564E-07
   -0.27050903493702338994E-07
   -0.33365394709262893976E-07
   -0.24558899457716457204E-07
   -0.24428124251205721128E-07
   -0.33251603426593355294E-07
   -0.26678500669234103893E-07
   -0.26852996591486837015E-07
   -0.33340412133881496666E-07
   -0.24669420043001836756E-07
   -0.39023031667645587981E-07
   -0.33393208199979290874E-07
   -0.41246106909323033782E-07
   -0.17583980533150132479E-07
   -0.17550959900225815263E-07
   -0.26396782221408110673E-07
   -0.32166773131855067757E-07
   -0.21162984299751877849E-07
   -0.96153477039630706871E-08
   -0.29293711157502756989E-07
    0.47706825899937108523E-07
   -0.22299404501174435927E-07
   -0.31723657832582598162E-07
   -0.23691307651950809341E-07
   -0.24079930107191866031E-07
   -0.32793519006872029157E-07
   -0.26636928781110691496E-07
   -0.15466844533712990465E-07
   -0.14684711710471490692E-07
   -0.27118913811033231300E-07
   -0.33432426780523048056E-07
   -0.24710682787390319961E-07
   -0.24642373878741555837E-07
   -0.33359047058012167774E-07
   -0.26858559384990348867E-07
   -0.26939347930105483846E-07
   -0.33390237769610796704E-07
   -0.24714521094663892108E-07
   -0.39045786928343347926E-07
   -0.33438708220387780769E-07
   -0.41271668240848187733E-07
   -0.17689311573161146149E-07
   -0.17666747137121674616E-07
   -0.26890857299593832705E-07
   -0.33023880278698006464E-07
   -0.23804764675106039020E-07
   -0.22756856987125331444E-07
   -0.31896950714499113123E-07
   -0.22239189034837170268E-07
   -0.24287520640443502045E-07
   -0.32493185671259245483E-07
   -0.24078550732078878891E-07
   -0.24365416592883378652E-07
   -0.33147104825974403577E-07
   -0.26933317260821934220E-07
   -0.16769209229897490320E-07
   -0.16374689541709988147E-07
    0.70079420394974912384E-04
    0.55895108450201771034E-03
    0.26989122304352324531E-02
    0.84231954425170278700E-02
    0.10452797166673350251E-01
    0.16621974916583945325E-01
    0.10697390170715850508E-01
    0.58679526071980505839E-02
    0.11643728814477957191E-02
    0.17090402753140290700E-04
    0.35359697471547556257E-03
    0.40887935768788001990E-05
    0.18191493978016025791E-02
    0.46076727173122496856E-02
    0.12500706410072712216E-01
    0.19290658681420363302E-01
    0.19566748185045890196E-01
    0.21421678810975477297E-01
    0.20434814954944396925E-01
    0.15271747748577172918E-01
    0.15271744795424207694E-01
    0.20434813388244588844E-01
    0.21421664335788234007E-01
    0.19566746389728259525E-01
    0.19290654523144292604E-01
    0.12500707129115936483E-01
    0.21222951549511502589E-01
    0.21523067775872685437E-01
    0.25772004416042061713E-07
    0.13477435458053686220E-04
   -0.16326775674354609298E-07
    0.21052285528655617934E-05
    0.47811267966000971555E-04
    0.38884404622786187655E-03
    0.38884550147682856325E-03
    0.47811376988244407254E-04
    0.21052396212332159357E-05
   -0.16326631661454387266E-07
    0.13477436962763427358E-04
    0.25771677145804159010E-07
    0.30287265520331985218E-04
    0.28958144868725366308E-04
    0.40887891671619034821E-05
    0.35359690301871023015E-03
    0.17090431734234412992E-04
    0.11643755727780411881E-02
    0.58679581341613204493E-02
    0.10697388206361638230E-01
    0.16621976585250112374E-01
    0.10452794680017229653E-01
    0.84231796333477521044E-02
    0.26989050231093509452E-02
    0.55894779911603307068E-03
    0.70079126712264071773E-04
    0.18191491244952740555E-02
    0.46076723664370058953E-02
   -0.27176747389873106995E-07
   -0.33492043144044328797E-07
   -0.24815726510534743154E-07
   -0.24793431874877399263E-07
   -0.33460868520539328473E-07
   -0.27066767172062301063E-07
   -0.27077139767220850406E-07
   -0.33461777143100436612E-07
   -0.24788880905026341064E-07
   -0.39079814446475238940E-07
   -0.33489323215302398063E-07
   -0.41298584376395029386E-07
   -0.17798606395150117346E-07
   -0.17788262351393829394E-07
   -0.27117507261280848608E-07
   -0.33409682175247778886E-07
   -0.24684299949441484378E-07
   -0.24588378516666049635E-07
   -0.33243933943291013720E-07
   -0.26483267521975999041E-07
   -0.26483213412733735647E-07
   -0.33243894429278404387E-07
   -0.24588345552951861859E-07
   -0.24684324413811135634E-07
   -0.33409825447389514772E-07
   -0.27117605485436271024E-07
   -0.17603467584564742633E-07
   -0.17534453410569441541E-07
   -0.41310155243842022184E-07
   -0.33517388008244819751E-07
   -0.39105311812056337986E-07
   -0.24847335379925625331E-07
   -0.33507363225515041295E-07
   -0.27161940421282039784E-07
   -0.27161779761912377290E-07
   -0.33507251872045116306E-07
   -0.24847304844801500206E-07
   -0.39105267862351856584E-07
   -0.33517262441674152587E-07
   -0.41310089992955775792E-07
   -0.17858585758904735720E-07
   -0.17855525200011284797E-07
   -0.41298713532635383135E-07
   -0.33489256570943039701E-07
   -0.39079796306636803700E-07
   -0.24789084861916277122E-07
   -0.33461706674434378047E-07
   -0.27077273955025246637E-07
   -0.27066659868541334531E-07
   -0.33460855871175246834E-07
   -0.24793399944988460085E-07
   -0.24815706911147664505E-07
   -0.33492151987306981542E-07
   -0.27177038258616997412E-07
   -0.17798700176113746810E-07
   -0.17788253227022059821E-07
   -0.26933095382987771074E-07
   -0.33147092266304473754E-07
   -0.24365608806458863435E-07
   -0.24078690224030573459E-07
   -0.32493192781287163276E-07
   -0.24287654873303695013E-07
   -0.22238972472606306957E-07
   -0.31896821419565048577E-07
   -0.22756733899225540012E-07
   -0.23804827622232780227E-07
   -0.33024033634252301019E-07
   -0.26890969255655076517E-07
   -0.16769042179210889568E-07
   -0.16374677730561002553E-07
   -0.26636656590840839460E-07
   -0.32793581772890953452E-07
   -0.24079990833222582623E-07
   -0.23691324003348209639E-07
   -0.31723804735014134128E-07
   -0.22299398547807346543E-07
    0.47706006277241095744E-07
   -0.29293824851616355964E-07
   -0.96151420024873049769E-08
   -0.21162861392480926051E-07
   -0.32166644601902735750E-07
   -0.26396955679735397326E-07