# vtk DataFile Version 3.0
LAPLACIEN  2D
ASCII
DATASET UNSTRUCTURED_GRID
 POINTS         481  float
   6.2500000000000000E-002  0.87500000000000000        0.0000000000000000     
  0.12500000000000000       0.87500000000000000        0.0000000000000000     
  0.12500000000000000       0.93750000000000000        0.0000000000000000     
   3.7499999999999999E-002  0.91249999999999998        0.0000000000000000     
   8.1250000000000003E-002  0.91874999999999996        0.0000000000000000     
   8.7499999999999994E-002  0.96250000000000002        0.0000000000000000     
   4.3749999999999997E-002  0.95625000000000004        0.0000000000000000     
  0.18750000000000000       0.87500000000000000        0.0000000000000000     
  0.25000000000000000       0.87500000000000000        0.0000000000000000     
  0.25000000000000000       0.93750000000000000        0.0000000000000000     
  0.16250000000000001       0.91249999999999998        0.0000000000000000     
  0.20624999999999999       0.91874999999999996        0.0000000000000000     
  0.21249999999999999       0.96250000000000002        0.0000000000000000     
  0.16875000000000001       0.95625000000000004        0.0000000000000000     
   6.2500000000000000E-002  0.75000000000000000        0.0000000000000000     
  0.12500000000000000       0.75000000000000000        0.0000000000000000     
  0.12500000000000000       0.81250000000000000        0.0000000000000000     
   3.7499999999999999E-002  0.78749999999999998        0.0000000000000000     
   8.1250000000000003E-002  0.79374999999999996        0.0000000000000000     
   8.7499999999999994E-002  0.83750000000000002        0.0000000000000000     
   4.3749999999999997E-002  0.83125000000000004        0.0000000000000000     
  0.18750000000000000       0.75000000000000000        0.0000000000000000     
  0.25000000000000000       0.75000000000000000        0.0000000000000000     
  0.25000000000000000       0.81250000000000000        0.0000000000000000     
  0.16250000000000001       0.78749999999999998        0.0000000000000000     
  0.20624999999999999       0.79374999999999996        0.0000000000000000     
  0.21249999999999999       0.83750000000000002        0.0000000000000000     
  0.16875000000000001       0.83125000000000004        0.0000000000000000     
  0.31250000000000000       0.87500000000000000        0.0000000000000000     
  0.37500000000000000       0.87500000000000000        0.0000000000000000     
  0.37500000000000000       0.93750000000000000        0.0000000000000000     
  0.28749999999999998       0.91249999999999998        0.0000000000000000     
  0.33124999999999999       0.91874999999999996        0.0000000000000000     
  0.33750000000000002       0.96250000000000002        0.0000000000000000     
  0.29375000000000001       0.95625000000000004        0.0000000000000000     
  0.43750000000000000       0.87500000000000000        0.0000000000000000     
  0.50000000000000000       0.87500000000000000        0.0000000000000000     
  0.50000000000000000       0.93750000000000000        0.0000000000000000     
  0.41249999999999998       0.91249999999999998        0.0000000000000000     
  0.45624999999999999       0.91874999999999996        0.0000000000000000     
  0.46250000000000002       0.96250000000000002        0.0000000000000000     
  0.41875000000000001       0.95625000000000004        0.0000000000000000     
  0.31250000000000000       0.75000000000000000        0.0000000000000000     
  0.37500000000000000       0.75000000000000000        0.0000000000000000     
  0.37500000000000000       0.81250000000000000        0.0000000000000000     
  0.28749999999999998       0.78749999999999998        0.0000000000000000     
  0.33124999999999999       0.79374999999999996        0.0000000000000000     
  0.33750000000000002       0.83750000000000002        0.0000000000000000     
  0.29375000000000001       0.83125000000000004        0.0000000000000000     
  0.43750000000000000       0.75000000000000000        0.0000000000000000     
  0.50000000000000000       0.75000000000000000        0.0000000000000000     
  0.50000000000000000       0.81250000000000000        0.0000000000000000     
  0.41249999999999998       0.78749999999999998        0.0000000000000000     
  0.45624999999999999       0.79374999999999996        0.0000000000000000     
  0.46250000000000002       0.83750000000000002        0.0000000000000000     
  0.41875000000000001       0.83125000000000004        0.0000000000000000     
   6.2500000000000000E-002  0.62500000000000000        0.0000000000000000     
  0.12500000000000000       0.62500000000000000        0.0000000000000000     
  0.12500000000000000       0.68750000000000000        0.0000000000000000     
   3.7499999999999999E-002  0.66249999999999998        0.0000000000000000     
   8.1250000000000003E-002  0.66874999999999996        0.0000000000000000     
   8.7499999999999994E-002  0.71250000000000002        0.0000000000000000     
   4.3749999999999997E-002  0.70625000000000004        0.0000000000000000     
  0.18750000000000000       0.62500000000000000        0.0000000000000000     
  0.25000000000000000       0.62500000000000000        0.0000000000000000     
  0.25000000000000000       0.68750000000000000        0.0000000000000000     
  0.16250000000000001       0.66249999999999998        0.0000000000000000     
  0.20624999999999999       0.66874999999999996        0.0000000000000000     
  0.21249999999999999       0.71250000000000002        0.0000000000000000     
  0.16875000000000001       0.70625000000000004        0.0000000000000000     
   6.2500000000000000E-002  0.50000000000000000        0.0000000000000000     
  0.12500000000000000       0.50000000000000000        0.0000000000000000     
  0.12500000000000000       0.56250000000000000        0.0000000000000000     
   3.7499999999999999E-002  0.53749999999999998        0.0000000000000000     
   8.1250000000000003E-002  0.54374999999999996        0.0000000000000000     
   8.7499999999999994E-002  0.58750000000000002        0.0000000000000000     
   4.3749999999999997E-002  0.58125000000000004        0.0000000000000000     
  0.18750000000000000       0.50000000000000000        0.0000000000000000     
  0.25000000000000000       0.50000000000000000        0.0000000000000000     
  0.25000000000000000       0.56250000000000000        0.0000000000000000     
  0.16250000000000001       0.53749999999999998        0.0000000000000000     
  0.20624999999999999       0.54374999999999996        0.0000000000000000     
  0.21249999999999999       0.58750000000000002        0.0000000000000000     
  0.16875000000000001       0.58125000000000004        0.0000000000000000     
  0.31250000000000000       0.62500000000000000        0.0000000000000000     
  0.37500000000000000       0.62500000000000000        0.0000000000000000     
  0.37500000000000000       0.68750000000000000        0.0000000000000000     
  0.28749999999999998       0.66249999999999998        0.0000000000000000     
  0.33124999999999999       0.66874999999999996        0.0000000000000000     
  0.33750000000000002       0.71250000000000002        0.0000000000000000     
  0.29375000000000001       0.70625000000000004        0.0000000000000000     
  0.43750000000000000       0.62500000000000000        0.0000000000000000     
  0.50000000000000000       0.62500000000000000        0.0000000000000000     
  0.50000000000000000       0.68750000000000000        0.0000000000000000     
  0.41249999999999998       0.66249999999999998        0.0000000000000000     
  0.45624999999999999       0.66874999999999996        0.0000000000000000     
  0.46250000000000002       0.71250000000000002        0.0000000000000000     
  0.41875000000000001       0.70625000000000004        0.0000000000000000     
  0.31250000000000000       0.50000000000000000        0.0000000000000000     
  0.37500000000000000       0.50000000000000000        0.0000000000000000     
  0.37500000000000000       0.56250000000000000        0.0000000000000000     
  0.28749999999999998       0.53749999999999998        0.0000000000000000     
  0.33124999999999999       0.54374999999999996        0.0000000000000000     
  0.33750000000000002       0.58750000000000002        0.0000000000000000     
  0.29375000000000001       0.58125000000000004        0.0000000000000000     
  0.43750000000000000       0.50000000000000000        0.0000000000000000     
  0.50000000000000000       0.50000000000000000        0.0000000000000000     
  0.50000000000000000       0.56250000000000000        0.0000000000000000     
  0.41249999999999998       0.53749999999999998        0.0000000000000000     
  0.45624999999999999       0.54374999999999996        0.0000000000000000     
  0.46250000000000002       0.58750000000000002        0.0000000000000000     
  0.41875000000000001       0.58125000000000004        0.0000000000000000     
  0.56250000000000000       0.87500000000000000        0.0000000000000000     
  0.62500000000000000       0.87500000000000000        0.0000000000000000     
  0.62500000000000000       0.93750000000000000        0.0000000000000000     
  0.53749999999999998       0.91249999999999998        0.0000000000000000     
  0.58125000000000004       0.91874999999999996        0.0000000000000000     
  0.58750000000000002       0.96250000000000002        0.0000000000000000     
  0.54374999999999996       0.95625000000000004        0.0000000000000000     
  0.68750000000000000       0.87500000000000000        0.0000000000000000     
  0.75000000000000000       0.87500000000000000        0.0000000000000000     
  0.75000000000000000       0.93750000000000000        0.0000000000000000     
  0.66249999999999998       0.91249999999999998        0.0000000000000000     
  0.70625000000000004       0.91874999999999996        0.0000000000000000     
  0.71250000000000002       0.96250000000000002        0.0000000000000000     
[...]
 CELL_DATA         896
 SCALARS Tumor_cells float
 LOOKUP_TABLE default
    0.97134596148606427318E-05
    0.97710381048914313125E-05
    0.96919626280068923904E-05
    0.96919368915650620338E-05
    0.97710291787142426279E-05
    0.97134763026699887171E-05
    0.98427632084447680709E-05
    0.97711636217490284830E-05
    0.98224666513222780599E-05
    0.98224591819107955005E-05
    0.97711592107098642075E-05
    0.98427698052883398280E-05
    0.96294504310881890005E-05
    0.96294483995302633712E-05
    0.97121643584775483232E-05
    0.97700196382703033898E-05
    0.96891776460467256542E-05
    0.96895690241960904794E-05
    0.97701646104639210230E-05
    0.97124957223416254508E-05
    0.98424932733270155448E-05
    0.97707384161240648290E-05
    0.98222729298004320705E-05
    0.96921684969098160849E-05
    0.97707682191067055317E-05
    0.97129431007446019564E-05
    0.96282253280262063166E-05
    0.96282600198665101735E-05
    0.97124736364556235195E-05
    0.97701669348187867068E-05
    0.96896009177428133667E-05
    0.96891571635456578374E-05
    0.97700162994609565941E-05
    0.97121710160203210085E-05
    0.97129384904677657609E-05
    0.97707770488337263498E-05
    0.96921743492873281339E-05
    0.98222612850622205237E-05
    0.97707340872375537640E-05
    0.98425005463219236251E-05
    0.96282636848145752552E-05
    0.96282267033093656307E-05
    0.97041273741306899433E-05
    0.97614334256314688417E-05
    0.96614166704989490553E-05
    0.96613873336379141164E-05
    0.97614298922070765315E-05
    0.97041337709753697411E-05
    0.97092450718587481061E-05
    0.97681300146874777191E-05
    0.96902975212097736428E-05
    0.96902673714692949070E-05
    0.97681203529493052353E-05
    0.97092506327739153767E-05
    0.96192141167879838606E-05
    0.96192124977424286851E-05
    0.97067422267250036953E-05
    0.97667480282314358346E-05
    0.96814496476559460834E-05
    0.96843751950768206947E-05
    0.97682958985941676489E-05
    0.97109103815583962266E-05
    0.98419785488152061769E-05
    0.97697309146385340347E-05
    0.98217459622262441837E-05
    0.96909354925612375064E-05
    0.97694079950799297360E-05
    0.97103173593197879607E-05
    0.96248761618201855841E-05
    0.96253718467435262987E-05
    0.96971946470987664207E-05
    0.97626321026129351811E-05
    0.96741697310414953510E-05
    0.96806292161703732710E-05
    0.97668276273930078053E-05
    0.97099396921211989539E-05
    0.98415731077600027425E-05
    0.97687316691306766013E-05
    0.98210989831580733882E-05
    0.96892073875154806697E-05
    0.97673401885449718374E-05
    0.97053554578928743292E-05
    0.96209548188944914442E-05
    0.96223728881152120361E-05
    0.96129707732388140344E-05
    0.96921261335006317914E-05
    0.97336622427998588397E-05
    0.95221635137283663442E-05
    0.97253231600444523192E-05
    0.96808935846294703626E-05
    0.96978960661084209142E-05
    0.97567254190935972423E-05
    0.96815556292992597701E-05
    0.96794057615102154429E-05
    0.97490273302135988361E-05
    0.96729275109305590924E-05
    0.95663149682033466489E-05
    0.95735669255082539664E-05
    0.75748927985015362756E-04
    0.10575079651640864877E-04
    0.34422383409566195168E-03
    0.10490620343321715587E-04
    0.96851053046936924553E-05
    0.96639847801808063677E-05
    0.96866883477206489799E-05
    0.97403445488890330438E-05
    0.96650579866015465637E-05
    0.96534962872964511182E-05
    0.96969785121395982858E-05
    0.97865462815046045102E-05
    0.94711448995402437235E-05
    0.94972109783340097680E-05
    0.97108878188026248336E-05
    0.97682992007224189328E-05
    0.96844078553827769314E-05
    0.96814285032394518932E-05
    0.97667438299687317607E-05
    0.97067483423368980204E-05
    0.97103123997403082741E-05
    0.97694169795273693634E-05
    0.96909400132791846292E-05
    0.98217341636473303883E-05
    0.97697261744233048267E-05
    0.98419853603561834992E-05
    0.96253746813577462153E-05
    0.96248776908846819957E-05
    0.96808854422203245493E-05
    0.97253259349145178964E-05
    0.95222141171579652232E-05
    0.97336156816513351897E-05
    0.96921220786458149403E-05
    0.96129851917935244736E-05
    0.96729200979181436038E-05
    0.97490375893715815431E-05
    0.96794270274656461138E-05
    0.96815133928613171570E-05
    0.97567195996676997206E-05
    0.96979060777539709796E-05
    0.95735711451625599768E-05
    0.95663156941563425538E-05
    0.97099331376452157195E-05
    0.97668307658082336803E-05
    0.96806629639473139450E-05
    0.96741474778415530752E-05
    0.97626268204836920390E-05
    0.96972016053387503773E-05
    0.97053503903900587794E-05
    0.97673497803899733449E-05
    0.96892150746907432598E-05
    0.98210885798505769852E-05
    0.97687262513536809343E-05
    0.98415794809390800494E-05
    0.96223755254202524598E-05
    0.96209559840900915655E-05
    0.96639928086064648866E-05
    0.96851080124578573893E-05
    0.10490751194112037244E-04
    0.34421793984631293174E-03
    0.10575109335754460994E-04
    0.75754681410420906824E-04
    0.97865364547103884458E-05
    0.96969899849559729855E-05
    0.96535199196550418440E-05
    0.96650124879479483290E-05
    0.97403379209281067710E-05
    0.96866983529937431783E-05
    0.94972163741417524394E-05
    0.94711449573557650284E-05
    0.19178003543494370493E-02
    0.42803889977117808019E-02
    0.53723356126681443001E-02
    0.53723427751332548941E-02
    0.42803653031014176136E-02
    0.19178326757560871119E-02
    0.85452598888295571377E-04
    0.58284017813121479900E-03
    0.17267530982459260630E-04
    0.17267482221508620460E-04
    0.58284250803775886247E-03
    0.85454493297116586835E-04
    0.14764150263622045391E-02
    0.14764134198464210716E-02
    0.10237866886275056796E-01
    0.11325936872840331252E-01
    0.12478818925672824011E-01
    0.13324575475930302074E-01
    0.17256056970318817134E-01
    0.15232848737069657266E-01
    0.60372973043770292861E-02
    0.10883695082920755853E-01
    0.27713650558411637506E-02
    0.84573729513512385658E-02
    0.11907120688152457097E-01
    0.76524311871841634719E-02
    0.12807670039464686892E-01
    0.15127933510514312773E-01
    0.15233296901946743324E-01
    0.17256394541498649292E-01
    0.13324060379438696158E-01
    0.12478761691606266721E-01
    0.11325974230162925982E-01
    0.10237974931731973205E-01
    0.76525009657477105485E-02
    0.11907183700672174798E-01
    0.84575003771386238899E-02
    0.27712890885287157390E-02
    0.10883678238587509920E-01
    0.60374039357666622885E-02
    0.15127978625245213501E-01
    0.12807708919437202702E-01
    0.13900218326620717227E-01
    0.14254469469174600726E-01
    0.14538921024183009550E-01
    0.14538988186782685758E-01
    0.14254522766046839183E-01
    0.13900333439659448564E-01
    0.12935450956940559158E-01
    0.12869143091830298128E-01
    0.11094113308423031103E-01
    0.11094272509386382541E-01
    0.12869154285904510840E-01
    0.12935371603316897504E-01
    0.13896294126635523256E-01
    0.13896314315625421520E-01
    0.96941713165842901038E-05
    0.97626000326130541108E-05
    0.96770581752119899692E-05
    0.96833050939369783695E-05
    0.97675310139291746320E-05
    0.97107534837195690801E-05
    0.98417262470920895958E-05
    0.97687648860790877461E-05
    0.98209143736621534027E-05
    0.96884178806714429331E-05
    0.97666275640903168440E-05
    0.97027738935639254615E-05
    0.96207606717584744050E-05
    0.96225767157448743335E-05
    0.97022123347916896130E-05
    0.97667324976564628747E-05
    0.96859883220555034034E-05
    0.96887602165183875390E-05
    0.97695122573049209664E-05
    0.97123379540344941370E-05
    0.98422495333215146264E-05
    0.97698081421619045598E-05
    0.98214468259644592692E-05
    0.96895740559568634300E-05
    0.97682329844702533485E-05
    0.97061015762540267879E-05
    0.96246081473871831515E-05
    0.96257383333056510395E-05
    0.31393983202056784370E-03
    0.11192501154760794557E-04
    0.53167689317251432555E-04
    0.96081897796748244297E-05
    0.97039318243170789418E-05
    0.96790804464754224504E-05
    0.96913111999626778650E-05
    0.97408290960345043799E-05
    0.96595966223269704359E-05
    0.96387414654714641477E-05
    0.96781418739418323361E-05
    0.10992201411868266910E-04
    0.94615673806631429529E-05
    0.95033984869980463731E-05
    0.95403261390992206005E-05
    0.96934353282631295710E-05
    0.95950630410165958296E-05
    0.96456865730890309243E-05
    0.97511124146460024278E-05
    0.97027295539698512716E-05
    0.97048248157497670358E-05
    0.97575507696179079978E-05
    0.96736652275055935263E-05
    0.96585295000080906573E-05
    0.97239479581966775445E-05
    0.95502552563257029798E-05
    0.95578891223308668808E-05
    0.95806622948419882697E-05
    0.97103843574166132921E-05
    0.97700215167804936047E-05
    0.96911065311066739843E-05
    0.96917173136913545512E-05
    0.97708140344391734443E-05
    0.97134159857810269540E-05
    0.98426670715657234523E-05
    0.97707757225929124022E-05
    0.98220895988983370037E-05
    0.96913118338085656964E-05
    0.97701630959370951309E-05
    0.97109238847780974749E-05
    0.96280923792881061587E-05
    0.96284556383062240358E-05
    0.97131461918770905134E-05
    0.97710621056069579750E-05
    0.96923624246462071615E-05
    0.98224211763391375090E-05
    0.97711767992586660207E-05
    0.98428213885721623861E-05
    0.98428161423456236645E-05
    0.97711854010487327916E-05
    0.98224298878366642746E-05
    0.96923496515631381521E-05
    0.97710551210430924538E-05
    0.97131507324764408142E-05
    0.96294970153299292391E-05
    0.96295463597119320521E-05
    0.96832604667685642959E-05
    0.97613706144333875454E-05
    0.96831421768320008486E-05
    0.96873945360985839109E-05
    0.97683934264559985099E-05
    0.97118810461268586338E-05
    0.97118724590813823670E-05
    0.97683957149988803899E-05
    0.96874276955343185225E-05
    0.96831187171708530168E-05
    0.97613658965737583068E-05
    0.96832666333252721743E-05
    0.96175173156165146818E-05
    0.96212168625084771228E-05
    0.97109200103374969051E-05
    0.97701674364971364482E-05
    0.96913241591468339434E-05
    0.98220819466126715251E-05
    0.97707707527904192804E-05
    0.98426761099396359452E-05
    0.97133974559432336733E-05
    0.97708169320428036659E-05
    0.96917500834198543102E-05
    0.96910843153096195700E-05
    0.97700167687720225690E-05
    0.97103900236867312647E-05
    0.96280928365829814789E-05
    0.96284552390166054008E-05
    0.12659095761490031171E-01
    0.10794782817853261839E-01
    0.92741862567026853853E-02
    0.67036300316614290395E-02
    0.88960808670916439317E-02
    0.52217942512720492629E-02
    0.21802162056406672666E-02
    0.83325523486208249307E-02
    0.54521632364555698558E-02
    0.14349385917109000813E-01
    0.15767661581639624141E-01
    0.13354055152517195146E-01
    0.11808322041132475466E-01
    0.11679396838060416078E-01
    0.44076435293581737659E-02
    0.29301362812445192786E-02
    0.96043667481277017473E-03
    0.43647919874414267748E-04
    0.16232596209727958594E-03
    0.12427084834428257987E-04
    0.12427039524714567580E-04
    0.16232614754059586067E-03
    0.43649418646329945723E-04
    0.96040900936076017275E-03
    0.29301598446106243839E-02
    0.44077001131085135135E-02
    0.10942196217735931235E-02
    0.42378165495430436017E-03
    0.14552894350083979413E-01
    0.14365303239521136705E-01
    0.13930322525861921906E-01
    0.13219896723700040944E-01
    0.12814352043995367453E-01
    0.10465120148439558886E-01
    0.10465156181395684695E-01
    0.12814305628893459671E-01
    0.13219698897096988921E-01
    0.13930370973811315519E-01
    0.14365340540547317724E-01
    0.14552985269768342266E-01
    0.14186337132024124524E-01
    0.13749099708368447970E-01
    0.13356328014119945441E-01
    0.15764280587056010013E-01
    0.14349015228868220936E-01
    0.54520834104924975616E-02
    0.83347632724362925166E-02
    0.21804722351176759020E-02
    0.52219771698582516384E-02
    0.88973473642230457153E-02
    0.67036279864044366270E-02
    0.92741477358466595932E-02
    0.10793856385718026206E-01
    0.12659342424580818931E-01
    0.11805727755645019014E-01
    0.11681755847678958540E-01
    0.95502455943653791648E-05
    0.97239526353588639444E-05
    0.96585554648356500572E-05
    0.96736254816488784957E-05
    0.97575430816481844074E-05
    0.97048368841163842256E-05
    0.97027228879537438409E-05
    0.97511148445911127080E-05
    0.96457253084205168541E-05
    0.95950299429631179851E-05
    0.96934293339649643006E-05
    0.95403654543960137412E-05
    0.95578887120786429105E-05
    0.95806622216361137884E-05
    0.97060970648842791663E-05
    0.97682371897718046021E-05
    0.96895864688154597792E-05
    0.98214390809895928174E-05
    0.97698030453236580343E-05
    0.98422583136372225263E-05
    0.97123196206139072220E-05
    0.97695141489957603803E-05
    0.96887937568141402209E-05
    0.96859653659588037410E-05
    0.97667273715030887533E-05
    0.97022192265447574993E-05
    0.96246080057316597128E-05
    0.96257382734343028446E-05
    0.10992222245949114488E-04
    0.96781469616810341018E-05
    0.96387690877812601324E-05
    0.96595553262813908698E-05
    0.97408210938350492803E-05
    0.96913252192410104881E-05
    0.96790723934963946790E-05
    0.97039334032175312991E-05
    0.96082534962137291265E-05
    0.53167652115002352292E-04
    0.11192519023739325152E-04
    0.31395991971419460759E-03
    0.94615706450736167948E-05
    0.95033972186819328892E-05
    0.97027832171182120074E-05
    0.97666337535899810544E-05
    0.96884302782200559800E-05
    0.98209064480906841472E-05
    0.97687582750584832993E-05
    0.98417343735318335693E-05
    0.97107331832280481966E-05
    0.97675398462746826101E-05
    0.96833390271485385667E-05
    0.96770364703639914474E-05
    0.97625971837882861049E-05
    0.96941785905271008969E-05
    0.96207637728726478016E-05
    0.96225867123892828617E-05
    0.97107465850638670764E-05
    0.97675422735692929671E-05
    0.96833240839440600531E-05
    0.96770365520951102413E-05
    0.97625950183481566497E-05
    0.96941783512364071104E-05
    0.97027687696593780753E-05
    0.97666371752534412315E-05
    0.96884411933707870765E-05
    0.98209043342287168028E-05
    0.97687594557606156361E-05
    0.98417332477769572198E-05
    0.96225929898008297068E-05
    0.96207619821788220100E-05
    0.96790878075053497331E-05
    0.97039368277501851420E-05
    0.96082330468876841649E-05
    0.53167694121343547450E-04
    0.11192544620391701557E-04
    0.31396809955632854015E-03
    0.10992221716521526632E-04
    0.96781528883199304105E-05
    0.96387812557034814256E-05
    0.96595504974449719431E-05
    0.97408222604077555673E-05
    0.96913213696085497408E-05
    0.95034057720021435339E-05
    0.94615684385091941057E-05
    0.97123311214470096534E-05
    0.97695167234956947040E-05
    0.96887788718010216954E-05
    0.96859656793952567078E-05
    0.97667258180920041603E-05
    0.97022191988309846537E-05
    0.97060810212655208949E-05
    0.97682401807834906365E-05
    0.96895974123555622822E-05
    0.98214373154768588430E-05
    0.97698045660270227668E-05
    0.98422556548465832258E-05
    0.96257441851274857581E-05
    0.96246059049492109158E-05
    0.97027376327105374068E-05
    0.97511175450907808850E-05
    0.96457093500017212411E-05
    0.95950309336413893498E-05
    0.96934269672522170916E-05
    0.95403720348568925666E-05
    0.95502231068127046277E-05
    0.97239565566100288365E-05
    0.96585678073755752053E-05
    0.96736214144854684401E-05
    0.97575441810267681816E-05
    0.97048340752020773590E-05
    0.95806690229870340334E-05
    0.95578858921526061858E-05
    0.52219275062670060875E-02
    0.88965640082178353010E-02
    0.67036394803239966744E-02
    0.92742052315640862575E-02
    0.10794528500041212712E-01
    0.12658949249328211792E-01
    0.13353434549899885139E-01
    0.15768782215113130718E-01
    0.14350077061692603428E-01
    0.54521324302060428235E-02
    0.83333119194388006329E-02
    0.21803701474066286212E-02
    0.11679437868243871743E-01
    0.11808497937677150599E-01
    0.10465061480464084645E-01
    0.12814319377365532282E-01
    0.13219898849594385187E-01
    0.13930402299285602960E-01
    0.14365355623796337292E-01
    0.14552997693262440318E-01
    0.14553012456421817594E-01
    0.14365305442156224916E-01
    0.13930180617027186629E-01
    0.13219751738396250465E-01
    0.12814319677688409960E-01
    0.10465109667080030320E-01
    0.13749085907390868472E-01
    0.14186357149727586366E-01
    0.12427062503174216070E-04
    0.16232639920193945335E-03
    0.43649115697406260612E-04
    0.96040893280872885723E-03
    0.29301548343110797763E-02
    0.44076960480154362548E-02
    0.44077153049437017840E-02
    0.29301666198339624755E-02
    0.96043873254581131876E-03
    0.43647399096567700966E-04
    0.16232635903412858986E-03
    0.12427079085520182665E-04
    0.42378426632436611834E-03
    0.10942311922423641514E-02
    0.21803028753119872360E-02
    0.83337943833351173922E-02
    0.54521129971778214962E-02
    0.14348479187446935498E-01
    0.15761359763383570726E-01
    0.13359539664840654888E-01
    0.12659771819269138859E-01
    0.10794833048452093238E-01
    0.92740482545207308940E-02
    0.67036059597230966342E-02
    0.88961537209718451191E-02
    0.52218512263215088529E-02
    0.11674309133278968492E-01
    0.11810991317861927602E-01
    0.97134093491823094070E-05
    0.97708191310506387566E-05
    0.96917358741904852197E-05
    0.96910848682094475422E-05
    0.97700153478972352479E-05
    0.97103900128725464307E-05
    0.97109041433104493839E-05
    0.97701697550853493110E-05
    0.96913350811133054354E-05
    0.98220800792675681774E-05
    0.97707725753088432995E-05
    0.98426736575734381904E-05
    0.96284612465502838883E-05
    0.96280904896827042126E-05
    0.97118897899357920964E-05
    0.97683978343459959315E-05
    0.96874130289918730679E-05
    0.96831194735106307440E-05
    0.97613642935054874598E-05
    0.96832661204167969879E-05
    0.96832424876090077495E-05
    0.97613738365195918236E-05
    0.96831534227773633373E-05
    0.96873905797947257133E-05
    0.97683945600071016313E-05
    0.97118817990554483352E-05
    0.96212231103411963807E-05
    0.96175147870906725400E-05
    0.98428158207872140179E-05
    0.97711851732457776626E-05
    0.98224325468718877267E-05
    0.96923397419315105019E-05
    0.97710553748449429344E-05
    0.97131525127295555388E-05
    0.97131323057422930820E-05
    0.97710619270386619609E-05
    0.96923716271924910306E-05
    0.98224192367401874431E-05
    0.97711784556306253708E-05
    0.98428211665701547479E-05
    0.96295517571228455124E-05
    0.96294953089292360208E-05
    0.98426696274586732654E-05
    0.97707755238081574694E-05
    0.98220913112465957280E-05
    0.96913004723468420827E-05
    0.97701608414302823665E-05
    0.97109276547445260824E-05
    0.97103720321882729810E-05
    0.97700243299455082622E-05
    0.96911180889838319707E-05
    0.96917143493337811226E-05
    0.97708161919960468804E-05
    0.97134045525726633391E-05
    0.96284617181992217841E-05
    0.96280905596214574199E-05
    0.97048430917980697407E-05
    0.97575499487943590291E-05
    0.96736469855009527403E-05
    0.96585305691039218077E-05
    0.97239451126158814022E-05
    0.95502625189720504015E-05
    0.95403085577283572473E-05
    0.96934402837887332889E-05
    0.95950759618956519848E-05
    0.96456818140582302603E-05
    0.97511142753974032086E-05
    0.97027304297491231690E-05
    0.95806697015003183419E-05
    0.95578856174978396180E-05
    0.96913303527616129104E-05
    0.97408283811741503083E-05
    0.96595785116442747488E-05
    0.96387422581149672681E-05
    0.96781381223939386550E-05
    0.10992257973869556926E-04
    0.31394573680759067878E-03
    0.11192555979046205517E-04
    0.53167537758586027772E-04
    0.96081804793418834523E-05
    0.97039344926525107025E-05
    0.96790806602931876880E-05