# vtk DataFile Version 3.0
LAPLACIEN  2D
ASCII
DATASET UNSTRUCTURED_GRID
 POINTS         481  float
   6.2500000000000000E-002  0.87500000000000000        0.0000000000000000     
  0.12500000000000000       0.87500000000000000        0.0000000000000000     
  0.12500000000000000       0.93750000000000000        0.0000000000000000     
   3.7499999999999999E-002  0.91249999999999998        0.0000000000000000     
   8.1250000000000003E-002  0.91874999999999996        0.0000000000000000     
   8.7499999999999994E-002  0.96250000000000002        0.0000000000000000     
   4.3749999999999997E-002  0.95625000000000004        0.0000000000000000     
  0.18750000000000000       0.87500000000000000        0.0000000000000000     
  0.25000000000000000       0.87500000000000000        0.0000000000000000     
  0.25000000000000000       0.93750000000000000        0.0000000000000000     
  0.16250000000000001       0.91249999999999998        0.0000000000000000     
  0.20624999999999999       0.91874999999999996        0.0000000000000000     
  0.21249999999999999       0.96250000000000002        0.0000000000000000     
  0.16875000000000001       0.95625000000000004        0.0000000000000000     
   6.2500000000000000E-002  0.75000000000000000        0.0000000000000000     
  0.12500000000000000       0.75000000000000000        0.0000000000000000     
  0.12500000000000000       0.81250000000000000        0.0000000000000000     
   3.7499999999999999E-002  0.78749999999999998        0.0000000000000000     
   8.1250000000000003E-002  0.79374999999999996        0.0000000000000000     
   8.7499999999999994E-002  0.83750000000000002        0.0000000000000000     
   4.3749999999999997E-002  0.83125000000000004        0.0000000000000000     
  0.18750000000000000       0.75000000000000000        0.0000000000000000     
  0.25000000000000000       0.75000000000000000        0.0000000000000000     
  0.25000000000000000       0.81250000000000000        0.0000000000000000     
  0.16250000000000001       0.78749999999999998        0.0000000000000000     
  0.20624999999999999       0.79374999999999996        0.0000000000000000     
  0.21249999999999999       0.83750000000000002        0.0000000000000000     
  0.16875000000000001       0.83125000000000004        0.0000000000000000     
  0.31250000000000000       0.87500000000000000        0.0000000000000000     
  0.37500000000000000       0.87500000000000000        0.0000000000000000     
  0.37500000000000000       0.93750000000000000        0.0000000000000000     
  0.28749999999999998       0.91249999999999998        0.0000000000000000     
  0.33124999999999999       0.91874999999999996        0.0000000000000000     
  0.33750000000000002       0.96250000000000002        0.0000000000000000     
  0.29375000000000001       0.95625000000000004        0.0000000000000000     
  0.43750000000000000       0.87500000000000000        0.0000000000000000     
  0.50000000000000000       0.87500000000000000        0.0000000000000000     
  0.50000000000000000       0.93750000000000000        0.0000000000000000     
  0.41249999999999998       0.91249999999999998        0.0000000000000000     
  0.45624999999999999       0.91874999999999996        0.0000000000000000     
  0.46250000000000002       0.96250000000000002        0.0000000000000000     
  0.41875000000000001       0.95625000000000004        0.0000000000000000     
  0.31250000000000000       0.75000000000000000        0.0000000000000000     
  0.37500000000000000       0.75000000000000000        0.0000000000000000     
  0.37500000000000000       0.81250000000000000        0.0000000000000000     
  0.28749999999999998       0.78749999999999998        0.0000000000000000     
  0.33124999999999999       0.79374999999999996        0.0000000000000000     
  0.33750000000000002       0.83750000000000002        0.0000000000000000     
  0.29375000000000001       0.83125000000000004        0.0000000000000000     
  0.43750000000000000       0.75000000000000000        0.0000000000000000     
  0.50000000000000000       0.75000000000000000        0.0000000000000000     
  0.50000000000000000       0.81250000000000000        0.0000000000000000     
  0.41249999999999998       0.78749999999999998        0.0000000000000000     
  0.45624999999999999       0.79374999999999996        0.0000000000000000     
  0.46250000000000002       0.83750000000000002        0.0000000000000000     
  0.41875000000000001       0.83125000000000004        0.0000000000000000     
   6.2500000000000000E-002  0.62500000000000000        0.0000000000000000     
  0.12500000000000000       0.62500000000000000        0.0000000000000000     
  0.12500000000000000       0.68750000000000000        0.0000000000000000     
   3.7499999999999999E-002  0.66249999999999998        0.0000000000000000     
   8.1250000000000003E-002  0.66874999999999996        0.0000000000000000     
   8.7499999999999994E-002  0.71250000000000002        0.0000000000000000     
   4.3749999999999997E-002  0.70625000000000004        0.0000000000000000     
  0.18750000000000000       0.62500000000000000        0.0000000000000000     
  0.25000000000000000       0.62500000000000000        0.0000000000000000     
  0.25000000000000000       0.68750000000000000        0.0000000000000000     
  0.16250000000000001       0.66249999999999998        0.0000000000000000     
  0.20624999999999999       0.66874999999999996        0.0000000000000000     
  0.21249999999999999       0.71250000000000002        0.0000000000000000     
  0.16875000000000001       0.70625000000000004        0.0000000000000000     
   6.2500000000000000E-002  0.50000000000000000        0.0000000000000000     
  0.12500000000000000       0.50000000000000000        0.0000000000000000     
  0.12500000000000000       0.56250000000000000        0.0000000000000000     
   3.7499999999999999E-002  0.53749999999999998        0.0000000000000000     
   8.1250000000000003E-002  0.54374999999999996        0.0000000000000000     
   8.7499999999999994E-002  0.58750000000000002        0.0000000000000000     
   4.3749999999999997E-002  0.58125000000000004        0.0000000000000000     
  0.18750000000000000       0.50000000000000000        0.0000000000000000     
  0.25000000000000000       0.50000000000000000        0.0000000000000000     
  0.25000000000000000       0.56250000000000000        0.0000000000000000     
  0.16250000000000001       0.53749999999999998        0.0000000000000000     
  0.20624999999999999       0.54374999999999996        0.0000000000000000     
  0.21249999999999999       0.58750000000000002        0.0000000000000000     
  0.16875000000000001       0.58125000000000004        0.0000000000000000     
  0.31250000000000000       0.62500000000000000        0.0000000000000000     
  0.37500000000000000       0.62500000000000000        0.0000000000000000     
  0.37500000000000000       0.68750000000000000        0.0000000000000000     
  0.28749999999999998       0.66249999999999998        0.0000000000000000     
  0.33124999999999999       0.66874999999999996        0.0000000000000000     
  0.33750000000000002       0.71250000000000002        0.0000000000000000     
  0.29375000000000001       0.70625000000000004        0.0000000000000000     
  0.43750000000000000       0.62500000000000000        0.0000000000000000     
  0.50000000000000000       0.62500000000000000        0.0000000000000000     
  0.50000000000000000       0.68750000000000000        0.0000000000000000     
  0.41249999999999998       0.66249999999999998        0.0000000000000000     
  0.45624999999999999       0.66874999999999996        0.0000000000000000     
  0.46250000000000002       0.71250000000000002        0.0000000000000000     
  0.41875000000000001       0.70625000000000004        0.0000000000000000     
  0.31250000000000000       0.50000000000000000        0.0000000000000000     
  0.37500000000000000       0.50000000000000000        0.0000000000000000     
  0.37500000000000000       0.56250000000000000        0.0000000000000000     
  0.28749999999999998       0.53749999999999998        0.0000000000000000     
  0.33124999999999999       0.54374999999999996        0.0000000000000000     
  0.33750000000000002       0.58750000000000002        0.0000000000000000     
  0.29375000000000001       0.58125000000000004        0.0000000000000000     
  0.43750000000000000       0.50000000000000000        0.0000000000000000     
  0.50000000000000000       0.50000000000000000        0.0000000000000000     
  0.50000000000000000       0.56250000000000000        0.0000000000000000     
  0.41249999999999998       0.53749999999999998        0.0000000000000000     
  0.45624999999999999       0.54374999999999996        0.0000000000000000     
  0.46250000000000002       0.58750000000000002        0.0000000000000000     
  0.41875000000000001       0.58125000000000004        0.0000000000000000     
  0.56250000000000000       0.87500000000000000        0.0000000000000000     
  0.62500000000000000       0.87500000000000000        0.0000000000000000     
  0.62500000000000000       0.93750000000000000        0.0000000000000000     
  0.53749999999999998       0.91249999999999998        0.0000000000000000     
  0.58125000000000004       0.91874999999999996        0.0000000000000000     
  0.58750000000000002       0.96250000000000002        0.0000000000000000     
  0.54374999999999996       0.95625000000000004        0.0000000000000000     
  0.68750000000000000       0.87500000000000000        0.0000000000000000     
  0.75000000000000000       0.87500000000000000        0.0000000000000000     
  0.75000000000000000       0.93750000000000000        0.0000000000000000     
  0.66249999999999998       0.91249999999999998        0.0000000000000000     
  0.70625000000000004       0.91874999999999996        0.0000000000000000     
  0.71250000000000002       0.96250000000000002        0.0000000000000000     
[...]
 CELL_DATA         896
 SCALARS Tumor_cells float
 LOOKUP_TABLE default
    0.25794651025848672199E-04
    0.25963849457929146506E-04
    0.25731573553536883718E-04
    0.25731475749761236187E-04
    0.25963811683364210241E-04
    0.25794710821447029150E-04
    0.26173771465319877925E-04
    0.25964019350702468171E-04
    0.26114292633678995014E-04
    0.26114262569677817002E-04
    0.25964000277495719238E-04
    0.26173797266603821893E-04
    0.25547125823313998421E-04
    0.25547115127427290088E-04
    0.25791692433784207543E-04
    0.25961731363292882312E-04
    0.25724857777144001964E-04
    0.25725833265620113774E-04
    0.25962131728399814694E-04
    0.25792655395244724399E-04
    0.26173597038041125206E-04
    0.25963329238807954718E-04
    0.26114106054319485291E-04
    0.25732094081893555068E-04
    0.25963269510062523550E-04
    0.25793508867353465700E-04
    0.25544330665624321848E-04
    0.25544432161363191472E-04
    0.25792575169781502454E-04
    0.25962142285218170245E-04
    0.25725955680427679644E-04
    0.25724780160202837908E-04
    0.25961715347677151862E-04
    0.25791705995456395484E-04
    0.25793496736752512174E-04
    0.25963305667356448829E-04
    0.25732115300544980679E-04
    0.26114061526775645826E-04
    0.25963318634885985161E-04
    0.26173628716977749602E-04
    0.25544443714942594069E-04
    0.25544339384906962313E-04
    0.25771220539869062497E-04
    0.25941049461659531256E-04
    0.25651507896709710920E-04
    0.25651394177876193860E-04
    0.25941035786900689422E-04
    0.25771234958277447995E-04
    0.25784632210077616338E-04
    0.25957038037689638614E-04
    0.25727705997040105118E-04
    0.25727586529455347662E-04
    0.25956996204151899300E-04
    0.25784646806014119367E-04
    0.25521169797169832792E-04
    0.25521167710069148050E-04
    0.25778130123491676206E-04
    0.25954029743840378684E-04
    0.25705219564607410077E-04
    0.25712683520677307705E-04
    0.25958013372153144533E-04
    0.25789094659881417747E-04
    0.26172990381990413294E-04
    0.25961290504254127046E-04
    0.26113403234924413023E-04
    0.25729407160792339414E-04
    0.25960366374387024467E-04
    0.25787368406101431094E-04
    0.25536147051175060399E-04
    0.25537301236948383077E-04
    0.25753720322388913734E-04
    0.25943866653152798771E-04
    0.25686559577182189226E-04
    0.25703127376010185374E-04
    0.25954634627145454194E-04
    0.25786846397584767639E-04
    0.26172411403911195152E-04
    0.25959133899143922361E-04
    0.26112362047429772802E-04
    0.25725402790319332652E-04
    0.25955652293145927681E-04
    0.25775126157736678791E-04
    0.25526320912402336756E-04
    0.25529597324423236468E-04
    0.25703802937478832208E-04
    0.25792668096539350637E-04
    0.32576873106657530741E-04
    0.25289675043686047224E-04
    0.25859744904283463152E-04
    0.25711262588273643340E-04
    0.25756119738736678960E-04
    0.25929132567558813612E-04
    0.25705568353433691747E-04
    0.25700512584997401360E-04
    0.25908092048138113935E-04
    0.25697771222509687518E-04
    0.25386518660113871178E-04
    0.25398503829450083902E-04
    0.11579122772213952357E-02
    0.76725072694081190914E-04
    0.49688787199399994665E-02
    0.75597657655218465709E-04
    0.25891178615404591642E-04
    0.25672300384538305904E-04
    0.25727520694527458906E-04
    0.25891196452977705369E-04
    0.25662512569877989993E-04
    0.25637100224148013614E-04
    0.25788505018021258699E-04
    0.34096610826946681177E-04
    0.25319698553621302223E-04
    0.25189594935221420481E-04
    0.25789013004691978558E-04
    0.25958024994666222901E-04
    0.25712810099154035493E-04
    0.25705137319674811795E-04
    0.25954011566290540613E-04
    0.25778145729984106504E-04
    0.25787355048231140251E-04
    0.25960403260711528055E-04
    0.25729426399995943280E-04
    0.26113358805990516197E-04
    0.25961269987370989013E-04
    0.26173017046071729466E-04
    0.25537310940906967027E-04
    0.25536156164146068496E-04
    0.25711243152204088606E-04
    0.25859748581618917525E-04
    0.25289890210151336582E-04
    0.32575979557275664929E-04
    0.25792658559959115417E-04
    0.25703897584490905781E-04
    0.25697748545750908109E-04
    0.25908138522517658200E-04
    0.25700593673347723402E-04
    0.25705396070846759271E-04
    0.25929104344987791337E-04
    0.25756153187830759438E-04
    0.25398516780800609927E-04
    0.25386528620955975795E-04
    0.25786825486482948199E-04
    0.25954645643952353176E-04
    0.25703257859223053165E-04
    0.25686472319690467067E-04
    0.25943845706717616576E-04
    0.25753742428223522437E-04
    0.25775112351326392654E-04
    0.25955691053804327232E-04
    0.25725429797027051469E-04
    0.26112321404869370041E-04
    0.25959111464229851139E-04
    0.26172436255410935741E-04
    0.25529606843380605631E-04
    0.25526329743464838847E-04
    0.25672344145992571186E-04
    0.25891159218228330062E-04
    0.75600990880164182931E-04
    0.49685208021464418587E-02
    0.76727906484276800643E-04
    0.11580678024240994260E-02
    0.34097475803374627918E-04
    0.25788563976646611048E-04
    0.25637191252077521275E-04
    0.25662322848069329441E-04
    0.25891164298276755576E-04
    0.25727554719252502771E-04
    0.25189612805216082293E-04
    0.25319726533561020859E-04
    0.78976189973571885028E-02
    0.74921540534583488599E-02
    0.68592891105884830003E-02
    0.68592950235415554860E-02
    0.74921228067655158689E-02
    0.78980235620287417980E-02
    0.94943594859477542167E-03
    0.27257294239426601429E-02
    0.10929590729720867974E-03
    0.10929696376318222110E-03
    0.27257303023755408318E-02
    0.94941008001797686910E-03
    0.43251471125737009013E-02
    0.43251513427399112741E-02
    0.98961621953602401519E-02
    0.11873837001283627651E-01
    0.12244915483261691394E-01
    0.14234219063814142550E-01
    0.17927674620925683480E-01
    0.22741275878380998177E-01
    0.18371114875183898463E-01
    0.18684578414916844236E-01
    0.11385697358699705534E-01
    0.17111385973405651012E-01
    0.16429989141303429773E-01
    0.89291652426977292933E-02
    0.16040084400840474987E-01
    0.19002784315644959817E-01
    0.22740924674711594788E-01
    0.17928874968351722619E-01
    0.14236498477219430847E-01
    0.12246287022973565556E-01
    0.11876647855023922049E-01
    0.98964134245137606871E-02
    0.89291395209769187230E-02
    0.16429774501997711916E-01
    0.17111893849271603979E-01
    0.11384942291499840217E-01
    0.18685251194789358198E-01
    0.18370860649637332784E-01
    0.19027888593714580717E-01
    0.16038912157655783181E-01
    0.12261622943870058300E-01
    0.12585420496610960628E-01
    0.13005706623419682755E-01
    0.13005728694090229122E-01
    0.12585448201415961114E-01
    0.12261608233378707214E-01
    0.11907606075078810623E-01
    0.11471446406777741425E-01
    0.10196903959797574968E-01
    0.10197004443940543145E-01
    0.11471574583339494771E-01
    0.11908167260111903255E-01
    0.12183095949047616224E-01
    0.12183093143012647605E-01
    0.25746005470292649255E-04
    0.25943907257350621952E-04
    0.25693921668531408147E-04
    0.25710121468604132770E-04
    0.25956161729322412251E-04
    0.25788777213530571838E-04
    0.26172656191332353018E-04
    0.25959216119235764970E-04
    0.26111999440101033791E-04
    0.25723480115579936610E-04
    0.25954112428856781461E-04
    0.25768435775322353129E-04
    0.25525783066739232572E-04
    0.25530008253768167101E-04
    0.25766586429399296977E-04
    0.25954119797861927130E-04
    0.25716807267520980522E-04
    0.25723878394717654248E-04
    0.25960617362371004853E-04
    0.25792372376366903667E-04
    0.26173339051620558442E-04
    0.25961508438373709948E-04
    0.26112921280726230386E-04
    0.25726207239781387007E-04
    0.25957887697950346245E-04
    0.25776690372114254853E-04
    0.25535559842663671227E-04
    0.25538040891843522315E-04
    0.47126215087491289332E-02
    0.10513261488723950939E-03
    0.71826049228332420997E-03
    0.28915387013075063597E-04
    0.25807158841540417285E-04
    0.25710993438432031802E-04
    0.25739184458803099185E-04
    0.25891607095553167153E-04
    0.25648296051982776651E-04
    0.25599556217927913978E-04
    0.25897423130118002969E-04
    0.96106329146057676693E-04
    0.25359050648298918487E-04
    0.25208309179644770013E-04
    0.28585155331845552533E-04
    0.25810788136121224409E-04
    0.25513286263093241376E-04
    0.25614692544403317072E-04
    0.25913522731447734553E-04
    0.25768663735450649194E-04
    0.25773631886939212015E-04
    0.25930779202088229200E-04
    0.25685080875087099679E-04
    0.25645851860508991237E-04
    0.25856605510487437594E-04
    0.25373626651100211461E-04
    0.25362481871148904837E-04
    0.25417688757359144035E-04
    0.25787343704869262193E-04
    0.25961767099578147798E-04
    0.25729609526012376145E-04
    0.25730991925340462390E-04
    0.25963378666530743857E-04
    0.25794640304128333113E-04
    0.26173746675459192470E-04
    0.25963430243126538259E-04
    0.26113885984991524011E-04
    0.25730194158855648892E-04
    0.25962146324916718251E-04
    0.25788745985837949730E-04
    0.25544124383251475588E-04
    0.25544727938942246120E-04
    0.25793973287546906358E-04
    0.25963923131585138699E-04
    0.25732471139816532273E-04
    0.26114230510301707759E-04
    0.25964038653157725436E-04
    0.26173838793725742518E-04
    0.26173817993288235536E-04
    0.25964071082679585615E-04
    0.26114264660069438196E-04
    0.25732431230089302998E-04
    0.25963891379391396022E-04
    0.25793982387068820186E-04
    0.25547341317146225861E-04
    0.25547279335050737556E-04
    0.25715981914081389038E-04
    0.25941173500762230471E-04
    0.25709334000447329267E-04
    0.25720339894877303493E-04
    0.25957666507142732927E-04
    0.25791114767244923133E-04
    0.25791085381224315162E-04
    0.25957677827520131403E-04
    0.25720477268926336168E-04
    0.25709252233208939638E-04
    0.25941153475360815515E-04
    0.25716001374731958486E-04
    0.25516947638142917985E-04
    0.25525995249628292700E-04
    0.25788741761675449771E-04
    0.25962161316772907477E-04
    0.25730229392637727340E-04
    0.26113855404537657956E-04
    0.25963408544077279860E-04
    0.26173780589484121488E-04
    0.25794565083217808578E-04
    0.25963388081953151518E-04
    0.25731124042709417810E-04
    0.25729532593116931057E-04
    0.25961747510075086658E-04
    0.25787361379367649129E-04
    0.25544125637194646132E-04
    0.25544726190224345899E-04
    0.12104640000170622041E-01
    0.11118784701068694029E-01
    0.90181631858904966192E-02
    0.78744783586310092977E-02
    0.14147163593325295938E-01
    0.12768175238542523939E-01
    0.89714878779665278158E-02
    0.15459728581541709591E-01
    0.17558269640348282692E-01
    0.21738844974298589946E-01
    0.15486197984456939736E-01
    0.13891854392334377147E-01
    0.13915651745196882735E-01
    0.15821385190635282175E-01
    0.59882053608402690398E-02
    0.60015436117288939108E-02
    0.43103540764333637264E-02
    0.44655687266622836771E-03
    0.75274060146360061065E-03
    0.46177735105177306670E-04
    0.46177064522707423548E-04
    0.75274268622402143794E-03
    0.44657868365681935340E-03
    0.43100855853406465704E-02
    0.60016115244286589309E-02
    0.59883502336397706478E-02
    0.33564110876656929640E-02
    0.20254913502916489093E-02
    0.13009521814625425729E-01
    0.12636597961288947162E-01
    0.12251228327620494393E-01
    0.11899647351598914222E-01
    0.11305321851813505268E-01
    0.96125943634455864734E-02
    0.96127333782611325275E-02
    0.11305307780597028539E-01
    0.11899625818543795724E-01
    0.12251231401250083086E-01
    0.12636624383485263456E-01
    0.13009584303000993472E-01
    0.12368249428110539637E-01
    0.11979750759018177250E-01
    0.13892387040137028215E-01
    0.15488395332819567332E-01
    0.21739021355756220355E-01
    0.17557999381885330131E-01
    0.15462742574349600672E-01
    0.89735379289694917893E-02
    0.12768022743983156730E-01
    0.14143289312854235434E-01
    0.78739761624991872618E-02
    0.90176940322356530927E-02
    0.11116678018786994159E-01
    0.12104418132816150908E-01
    0.13928517380578932586E-01
    0.15806545563125311976E-01
    0.25373602771397247901E-04
    0.25856625777802204287E-04
    0.25645944080782533277E-04
    0.25684913465113900057E-04
    0.25930744373237735569E-04
    0.25773675816288170535E-04
    0.25768640702466329455E-04
    0.25913531557821550138E-04
    0.25614864130263413980E-04
    0.25513154619395515013E-04
    0.25810758589283852479E-04
    0.28585987185151500291E-04
    0.25362482485821388756E-04
    0.25417688921192883498E-04
    0.25776685120001602866E-04
    0.25957902582138463150E-04
    0.25726242553949402756E-04
    0.26112890390873658131E-04
    0.25961486395111674777E-04
    0.26173371960604401975E-04
    0.25792295377180579814E-04
    0.25960624067959376884E-04
    0.25724014673721737161E-04
    0.25716726401210008413E-04
    0.25954098888542695303E-04
    0.25766611046124689573E-04
    0.25535560186766936803E-04
    0.25538039810659694139E-04
    0.96115695429951171144E-04
    0.25897443319841675170E-04
    0.25599653083431315152E-04
    0.25648119543409323139E-04
    0.25891568981587634638E-04
    0.25739236192958019653E-04
    0.25710964411311684145E-04
    0.25807154993174648570E-04
    0.28916653856540263826E-04
    0.71838248446467133611E-03
    0.10514337749000882160E-03
    0.47132335180345508521E-02
    0.25359101508418965343E-04
    0.25208307073211198607E-04
    0.25768486080181115307E-04
    0.25954134302773091580E-04
    0.25723514595048252050E-04
    0.26111967014245454079E-04
    0.25959187659134305346E-04
    0.26172687090118053219E-04
    0.25788695022559356037E-04
    0.25956187037321069605E-04
    0.25710261215359123073E-04
    0.25693842473747739274E-04
    0.25943894166350526078E-04
    0.25746034235622370436E-04
    0.25525797192098162246E-04
    0.25530037530977398009E-04
    0.25788755086216512023E-04
    0.25956200880975106442E-04
    0.25710195697226201719E-04
    0.25693836954262462866E-04
    0.25943885737655802704E-04
    0.25746029057884371342E-04
    0.25768421907964095876E-04
    0.25954151450790045739E-04
    0.25723565138006562850E-04
    0.26111958968591582483E-04
    0.25959193262517581927E-04
    0.26172682117844172067E-04
    0.25530062732819550607E-04
    0.25525792322649246027E-04
    0.25711033171243185836E-04
    0.25807180228596023064E-04
    0.28916140649909144575E-04
    0.71827262232794823141E-03
    0.10514574604134274075E-03
    0.47133459858882051363E-02
    0.96117606584053902211E-04
    0.25897506208294675441E-04
    0.25599710801127914246E-04
    0.25648097854082634170E-04
    0.25891573060643893799E-04
    0.25739219222669153952E-04
    0.25208342165453847953E-04
    0.25359103970287083833E-04
    0.25792350425979293553E-04
    0.25960637068416316154E-04
    0.25723950105171676067E-04
    0.25716721925786982126E-04
    0.25954092752924545144E-04
    0.25766606045411778861E-04
    0.25776616131782355209E-04
    0.25957917683776156602E-04
    0.25726292710329448903E-04
    0.26112883373816668547E-04
    0.25961493978369372778E-04
    0.26173363361410179479E-04
    0.25538064053820311024E-04
    0.25535552667370362901E-04
    0.25768704370857502961E-04
    0.25913547081444420563E-04
    0.25614789840565519374E-04
    0.25513150407585188104E-04
    0.25810748287759174022E-04
    0.28585899620005166981E-04
    0.25373495356276074214E-04
    0.25856654262478237787E-04
    0.25645999114307149112E-04
    0.25684894423113217095E-04
    0.25930748604010951598E-04
    0.25773663277609860244E-04
    0.25417717436737674119E-04
    0.25362471206930369770E-04
    0.12768617425363233686E-01
    0.14147483982178061732E-01
    0.78745418104988525870E-02
    0.90182005205516248963E-02
    0.11118911259247453785E-01
    0.12105010792941390749E-01
    0.13893612849944570950E-01
    0.15486947773529550348E-01
    0.21739096569667319681E-01
    0.17557741435851051404E-01
    0.15460113101749493533E-01
    0.89720757215141430652E-02
    0.15821685809287337060E-01
    0.13915955062549703949E-01
    0.96125401027787812924E-02
    0.11305402972448218291E-01
    0.11900055705662097860E-01
    0.12251460836180432662E-01
    0.12636689888055529715E-01
    0.13009602942301292869E-01
    0.13009598452318150638E-01
    0.12636602118762165284E-01
    0.12251167756851101195E-01
    0.11899748007976858680E-01
    0.11305329436554649447E-01
    0.96127162538823859167E-02
    0.11979769014717750811E-01
    0.12368275701940869768E-01
    0.46177214695627306093E-04
    0.75274691706341272275E-03
    0.44657160075046536908E-03
    0.43099556623012293469E-02
    0.60015185844312212565E-02
    0.59879961410203227934E-02
    0.59883652227262513384E-02
    0.60016366190930540286E-02
    0.43102791727511425776E-02
    0.44652841194913237650E-03
    0.75274628732156627104E-03
    0.46177643215635439452E-04
    0.20255124995047662541E-02
    0.33564371459001772317E-02
    0.89720911483309965379E-02
    0.15460100359118083418E-01
    0.17557261290447857827E-01
    0.21737324757792320790E-01
    0.15489067225789833471E-01
    0.13895340502568527541E-01
    0.12105381533806615357E-01
    0.11117097975591608630E-01
    0.90175731573383967332E-02
    0.78734150439742495164E-02
    0.14140574442265994165E-01
    0.12766529789572558795E-01
    0.15804329845109536812E-01
    0.13928074712422995954E-01
    0.25794619887097430122E-04
    0.25963399820338124621E-04
    0.25731061479091414901E-04
    0.25729528222037484581E-04
    0.25961741584662426395E-04
    0.25787356092497799750E-04
    0.25788674322562938013E-04
    0.25962174462360241537E-04
    0.25730279254525369935E-04
    0.26113848299412521710E-04
    0.25963416782123884062E-04
    0.26173772144482363859E-04
    0.25544750411339270146E-04
    0.25544117583772689585E-04
    0.25791160700553989859E-04
    0.25957689544741813524E-04
    0.25720412360087114157E-04
    0.25709248100031703436E-04
    0.25941147021567257866E-04
    0.25715994190177483294E-04
    0.25715905923566781215E-04
    0.25941192044922239582E-04
    0.25709383892247452503E-04
    0.25720323940060246131E-04
    0.25957672226768697997E-04
    0.25791118893685699529E-04
    0.25526020072621234317E-04
    0.25516938163488441611E-04
    0.26173817164183618136E-04
    0.25964071059336777216E-04
    0.26114273829417404110E-04
    0.25732387500776759997E-04
    0.25963896937557936296E-04
    0.25793984391527966324E-04
    0.25793913981168270998E-04
    0.25963920971953740967E-04
    0.25732511548939821671E-04
    0.26114222643821752263E-04
    0.25964044803944148591E-04
    0.26173838044856168582E-04
    0.25547299180091085854E-04
    0.25547340026026626797E-04
    0.26173754771105483939E-04
    0.25963428589450207053E-04
    0.26113892859744359431E-04
    0.25730142959716543306E-04
    0.25962134886445474661E-04
    0.25788756916379723487E-04
    0.25787292108923013664E-04
    0.25961780361649612007E-04
    0.25729658734860774287E-04
    0.25730978747595749492E-04
    0.25963382860927564148E-04
    0.25794586105332951932E-04
    0.25544750659165315043E-04
    0.25544116536175255980E-04
    0.25773712455837807279E-04
    0.25930775662342506237E-04
    0.25684998655848805395E-04
    0.25645848529154657543E-04
    0.25856593294884349342E-04
    0.25373656868875989271E-04
    0.28585295499210714283E-04
    0.25810824812473182326E-04
    0.25513338060056620500E-04
    0.25614668943240097678E-04
    0.25913530913652468591E-04
    0.25768668339605068566E-04
    0.25417718395097239057E-04
    0.25362467365364174980E-04
    0.25739270559761964394E-04
    0.25891602972775842135E-04
    0.25648211445528657231E-04
    0.25599552784337594629E-04
    0.25897419990453926964E-04
    0.96115759680713488012E-04
    0.47126845874732158775E-02
    0.10514329308296128094E-03
    0.71828741913524665405E-03
    0.28915232900703168701E-04
    0.25807172345350076981E-04
    0.25710996262816001234E-04