# vtk DataFile Version 3.0
LAPLACIEN  2D
ASCII
DATASET UNSTRUCTURED_GRID
 POINTS         481  float
   6.2500000000000000E-002  0.87500000000000000        0.0000000000000000     
  0.12500000000000000       0.87500000000000000        0.0000000000000000     
  0.12500000000000000       0.93750000000000000        0.0000000000000000     
   3.7499999999999999E-002  0.91249999999999998        0.0000000000000000     
   8.1250000000000003E-002  0.91874999999999996        0.0000000000000000     
   8.7499999999999994E-002  0.96250000000000002        0.0000000000000000     
   4.3749999999999997E-002  0.95625000000000004        0.0000000000000000     
  0.18750000000000000       0.87500000000000000        0.0000000000000000     
  0.25000000000000000       0.87500000000000000        0.0000000000000000     
  0.25000000000000000       0.93750000000000000        0.0000000000000000     
  0.16250000000000001       0.91249999999999998        0.0000000000000000     
  0.20624999999999999       0.91874999999999996        0.0000000000000000     
  0.21249999999999999       0.96250000000000002        0.0000000000000000     
  0.16875000000000001       0.95625000000000004        0.0000000000000000     
   6.2500000000000000E-002  0.75000000000000000        0.0000000000000000     
  0.12500000000000000       0.75000000000000000        0.0000000000000000     
  0.12500000000000000       0.81250000000000000        0.0000000000000000     
   3.7499999999999999E-002  0.78749999999999998        0.0000000000000000     
   8.1250000000000003E-002  0.79374999999999996        0.0000000000000000     
   8.7499999999999994E-002  0.83750000000000002        0.0000000000000000     
   4.3749999999999997E-002  0.83125000000000004        0.0000000000000000     
  0.18750000000000000       0.75000000000000000        0.0000000000000000     
  0.25000000000000000       0.75000000000000000        0.0000000000000000     
  0.25000000000000000       0.81250000000000000        0.0000000000000000     
  0.16250000000000001       0.78749999999999998        0.0000000000000000     
  0.20624999999999999       0.79374999999999996        0.0000000000000000     
  0.21249999999999999       0.83750000000000002        0.0000000000000000     
  0.16875000000000001       0.83125000000000004        0.0000000000000000     
  0.31250000000000000       0.87500000000000000        0.0000000000000000     
  0.37500000000000000       0.87500000000000000        0.0000000000000000     
  0.37500000000000000       0.93750000000000000        0.0000000000000000     
  0.28749999999999998       0.91249999999999998        0.0000000000000000     
  0.33124999999999999       0.91874999999999996        0.0000000000000000     
  0.33750000000000002       0.96250000000000002        0.0000000000000000     
  0.29375000000000001       0.95625000000000004        0.0000000000000000     
  0.43750000000000000       0.87500000000000000        0.0000000000000000     
  0.50000000000000000       0.87500000000000000        0.0000000000000000     
  0.50000000000000000       0.93750000000000000        0.0000000000000000     
  0.41249999999999998       0.91249999999999998        0.0000000000000000     
  0.45624999999999999       0.91874999999999996        0.0000000000000000     
  0.46250000000000002       0.96250000000000002        0.0000000000000000     
  0.41875000000000001       0.95625000000000004        0.0000000000000000     
  0.31250000000000000       0.75000000000000000        0.0000000000000000     
  0.37500000000000000       0.75000000000000000        0.0000000000000000     
  0.37500000000000000       0.81250000000000000        0.0000000000000000     
  0.28749999999999998       0.78749999999999998        0.0000000000000000     
  0.33124999999999999       0.79374999999999996        0.0000000000000000     
  0.33750000000000002       0.83750000000000002        0.0000000000000000     
  0.29375000000000001       0.83125000000000004        0.0000000000000000     
  0.43750000000000000       0.75000000000000000        0.0000000000000000     
  0.50000000000000000       0.75000000000000000        0.0000000000000000     
  0.50000000000000000       0.81250000000000000        0.0000000000000000     
  0.41249999999999998       0.78749999999999998        0.0000000000000000     
  0.45624999999999999       0.79374999999999996        0.0000000000000000     
  0.46250000000000002       0.83750000000000002        0.0000000000000000     
  0.41875000000000001       0.83125000000000004        0.0000000000000000     
   6.2500000000000000E-002  0.62500000000000000        0.0000000000000000     
  0.12500000000000000       0.62500000000000000        0.0000000000000000     
  0.12500000000000000       0.68750000000000000        0.0000000000000000     
   3.7499999999999999E-002  0.66249999999999998        0.0000000000000000     
   8.1250000000000003E-002  0.66874999999999996        0.0000000000000000     
   8.7499999999999994E-002  0.71250000000000002        0.0000000000000000     
   4.3749999999999997E-002  0.70625000000000004        0.0000000000000000     
  0.18750000000000000       0.62500000000000000        0.0000000000000000     
  0.25000000000000000       0.62500000000000000        0.0000000000000000     
  0.25000000000000000       0.68750000000000000        0.0000000000000000     
  0.16250000000000001       0.66249999999999998        0.0000000000000000     
  0.20624999999999999       0.66874999999999996        0.0000000000000000     
  0.21249999999999999       0.71250000000000002        0.0000000000000000     
  0.16875000000000001       0.70625000000000004        0.0000000000000000     
   6.2500000000000000E-002  0.50000000000000000        0.0000000000000000     
  0.12500000000000000       0.50000000000000000        0.0000000000000000     
  0.12500000000000000       0.56250000000000000        0.0000000000000000     
   3.7499999999999999E-002  0.53749999999999998        0.0000000000000000     
   8.1250000000000003E-002  0.54374999999999996        0.0000000000000000     
   8.7499999999999994E-002  0.58750000000000002        0.0000000000000000     
   4.3749999999999997E-002  0.58125000000000004        0.0000000000000000     
  0.18750000000000000       0.50000000000000000        0.0000000000000000     
  0.25000000000000000       0.50000000000000000        0.0000000000000000     
  0.25000000000000000       0.56250000000000000        0.0000000000000000     
  0.16250000000000001       0.53749999999999998        0.0000000000000000     
  0.20624999999999999       0.54374999999999996        0.0000000000000000     
  0.21249999999999999       0.58750000000000002        0.0000000000000000     
  0.16875000000000001       0.58125000000000004        0.0000000000000000     
  0.31250000000000000       0.62500000000000000        0.0000000000000000     
  0.37500000000000000       0.62500000000000000        0.0000000000000000     
  0.37500000000000000       0.68750000000000000        0.0000000000000000     
  0.28749999999999998       0.66249999999999998        0.0000000000000000     
  0.33124999999999999       0.66874999999999996        0.0000000000000000     
  0.33750000000000002       0.71250000000000002        0.0000000000000000     
  0.29375000000000001       0.70625000000000004        0.0000000000000000     
  0.43750000000000000       0.62500000000000000        0.0000000000000000     
  0.50000000000000000       0.62500000000000000        0.0000000000000000     
  0.50000000000000000       0.68750000000000000        0.0000000000000000     
  0.41249999999999998       0.66249999999999998        0.0000000000000000     
  0.45624999999999999       0.66874999999999996        0.0000000000000000     
  0.46250000000000002       0.71250000000000002        0.0000000000000000     
  0.41875000000000001       0.70625000000000004        0.0000000000000000     
  0.31250000000000000       0.50000000000000000        0.0000000000000000     
  0.37500000000000000       0.50000000000000000        0.0000000000000000     
  0.37500000000000000       0.56250000000000000        0.0000000000000000     
  0.28749999999999998       0.53749999999999998        0.0000000000000000     
  0.33124999999999999       0.54374999999999996        0.0000000000000000     
  0.33750000000000002       0.58750000000000002        0.0000000000000000     
  0.29375000000000001       0.58125000000000004        0.0000000000000000     
  0.43750000000000000       0.50000000000000000        0.0000000000000000     
  0.50000000000000000       0.50000000000000000        0.0000000000000000     
  0.50000000000000000       0.56250000000000000        0.0000000000000000     
  0.41249999999999998       0.53749999999999998        0.0000000000000000     
  0.45624999999999999       0.54374999999999996        0.0000000000000000     
  0.46250000000000002       0.58750000000000002        0.0000000000000000     
  0.41875000000000001       0.58125000000000004        0.0000000000000000     
  0.56250000000000000       0.87500000000000000        0.0000000000000000     
  0.62500000000000000       0.87500000000000000        0.0000000000000000     
  0.62500000000000000       0.93750000000000000        0.0000000000000000     
  0.53749999999999998       0.91249999999999998        0.0000000000000000     
  0.58125000000000004       0.91874999999999996        0.0000000000000000     
  0.58750000000000002       0.96250000000000002        0.0000000000000000     
  0.54374999999999996       0.95625000000000004        0.0000000000000000     
  0.68750000000000000       0.87500000000000000        0.0000000000000000     
  0.75000000000000000       0.87500000000000000        0.0000000000000000     
  0.75000000000000000       0.93750000000000000        0.0000000000000000     
  0.66249999999999998       0.91249999999999998        0.0000000000000000     
  0.70625000000000004       0.91874999999999996        0.0000000000000000     
  0.71250000000000002       0.96250000000000002        0.0000000000000000     
[...]
 CELL_DATA         896
 SCALARS VEGF float
 LOOKUP_TABLE default
    0.57282081438830137802E-04
    0.57276992805000480975E-04
    0.66475885364194233764E-04
    0.66475824837611925330E-04
    0.57276810161340058441E-04
    0.57282020361963537493E-04
    0.51468346487180299028E-04
    0.48330589897065832558E-04
    0.44721209255275902244E-04
    0.44721417717379885709E-04
    0.48330870135719187521E-04
    0.51468608142082484668E-04
    0.51450848888878465389E-04
    0.51450742945451629956E-04
    0.91334522669641145720E-04
    0.96592605067420496596E-04
    0.12138348962513119693E-03
    0.11949429734077392858E-03
    0.97716657802867376917E-04
    0.96031430009550539269E-04
    0.84053735172007855089E-04
    0.76069165794035028486E-04
    0.64913663211299009784E-04
    0.61518028397005480238E-04
    0.71109694190223533524E-04
    0.72422392754579962898E-04
    0.82699460722194446959E-04
    0.83586366363923189594E-04
    0.96031438209802431720E-04
    0.97716701021805530141E-04
    0.11949415639602887704E-03
    0.12138302544018127920E-03
    0.96591932190058391256E-04
    0.91334043981022278017E-04
    0.72421698798335321632E-04
    0.71109493685239552564E-04
    0.61518524025483802345E-04
    0.64913953311846245482E-04
    0.76069343116136854677E-04
    0.84053939194481304149E-04
    0.83586255384213229954E-04
    0.82699078946737197729E-04
    0.18573410380749770738E-03
    0.20751549088666315385E-03
    0.28947675173013754767E-03
    0.28947650311755021655E-03
    0.20751503890015522680E-03
    0.18573380823419866265E-03
    0.13701906801925046683E-03
    0.13175739422318930917E-03
    0.10054058047023769584E-03
    0.10053984889684102616E-03
    0.13175718555135252762E-03
    0.13701936528153263917E-03
    0.16424233090148990157E-03
    0.16424224890536790540E-03
    0.17225290845708843539E-03
    0.17135302391704381212E-03
    0.21231093122361179059E-03
    0.19636210897144387613E-03
    0.15790058481227563485E-03
    0.14667036009249854729E-03
    0.13197078205727153411E-03
    0.12427173537922779796E-03
    0.10789537233222890088E-03
    0.10355372919398687936E-03
    0.12316082339515778128E-03
    0.13111734763500133664E-03
    0.14124482553757233480E-03
    0.13945926214488694149E-03
    0.26931746455117989633E-03
    0.24211037307628177954E-03
    0.28037424379282523818E-03
    0.24247235214484467525E-03
    0.19785617063333783340E-03
    0.17326193337936286092E-03
    0.16427138495010574072E-03
    0.16577803597659428680E-03
    0.15330376302532909690E-03
    0.15326462517446215439E-03
    0.18194485531403711658E-03
    0.20786906038151758730E-03
    0.19608376271477856857E-03
    0.18730938725698364719E-03
    0.54318391448205847159E-03
    0.53736494689716324518E-03
    0.79787028345371991712E-03
    0.66461133077616249294E-03
    0.43455739187591558128E-03
    0.33958702197994984238E-03
    0.24838817844339167607E-03
    0.26054268082729227550E-03
    0.19669978331568197991E-03
    0.20627666624798736417E-03
    0.29637318988781093630E-03
    0.34128955595172518573E-03
    0.37138562059561434957E-03
    0.35191305210515117039E-03
    0.12266358638886971314E-02
    0.96889786156822998477E-03
    0.13015279279080917488E-02
    0.94725279775126401769E-03
    0.61912827121346199286E-03
    0.43361371723762645201E-03
    0.33388470204832523943E-03
    0.39386473967418031287E-03
    0.31676188095972686483E-03
    0.36169617171065865944E-03
    0.54556256247928079563E-03
    0.73828843065037801866E-03
    0.62531616207230523042E-03
    0.55481241276731122977E-03
    0.14667036706756444433E-03
    0.15790062432606186658E-03
    0.19636196559823658101E-03
    0.21231046124029298063E-03
    0.17135233101119712578E-03
    0.17225237652828862705E-03
    0.13111653780994392770E-03
    0.12316057837179769999E-03
    0.10355419134977684884E-03
    0.10789564514601253614E-03
    0.12427190459152578006E-03
    0.13197098344330045368E-03
    0.13945914073897462703E-03
    0.14124442620325934898E-03
    0.33958731951407039335E-03
    0.43455785039523428612E-03
    0.66461161002286551092E-03
    0.79787009244128639929E-03
    0.53736449254672966677E-03
    0.54318356637547595810E-03
    0.34128913229539153832E-03
    0.29637333144882130028E-03
    0.20627729573507335619E-03
    0.19669899794108266795E-03
    0.26054245283321325567E-03
    0.24838847033664213180E-03
    0.35191312284918587839E-03
    0.37138551973919906209E-03
    0.17326194027218673769E-03
    0.19785621014932366739E-03
    0.24247220878555265423E-03
    0.28037377390659467278E-03
    0.24210968003918128004E-03
    0.26931693248763151176E-03
    0.20786824951515609113E-03
    0.18194460997579385174E-03
    0.15326508684344945484E-03
    0.15330403568912295679E-03
    0.16577820518269754425E-03
    0.16427158638427971486E-03
    0.18730926581872004094E-03
    0.19608336330268239813E-03
    0.43361401538138618673E-03
    0.61912873225402373194E-03
    0.94725307921003545474E-03
    0.13015277411385054070E-02
    0.96889742685251386937E-03
    0.12266355756182692038E-02
    0.73828803712637882436E-03
    0.54556271577911358457E-03
    0.36169680425692581505E-03
    0.31676109636592818860E-03
    0.39386451324449330089E-03
    0.33388499429928440373E-03
    0.55481248854016634257E-03
    0.62531607008528891905E-03
    0.19740102250406462749E-02
    0.31999328559636701190E-02
    0.53180040523822498869E-02
    0.53180038241713283725E-02
    0.31999319311949007451E-02
    0.19740095501813979297E-02
    0.11018133979246677069E-02
    0.12598717253552108725E-02
    0.68742674065244268461E-03
    0.68742605890727184314E-03
    0.12598716190239879660E-02
    0.11018139370978278190E-02
    0.22582381357552508763E-02
    0.22582379378769446877E-02
    0.97550898182795792862E-02
    0.92047474177800320261E-02
    0.12357377890777464929E-01
    0.98789094235961858598E-02
    0.60978340462469922401E-02
    0.31018848336778230210E-02
    0.18823311610839370961E-02
    0.27328923848887274467E-02
    0.17058112536512805377E-02
    0.22247447537832158206E-02
    0.47840010259428081968E-02
    0.62533421789944670932E-02
    0.60220481235564778805E-02
    0.52680523937618586872E-02
    0.31018854925649809624E-02
    0.60978348715686001708E-02
    0.98789094646003858952E-02
    0.12357377288518598887E-01
    0.92047458393116812075E-02
    0.97550880259112647541E-02
    0.62533413164425795394E-02
    0.47840011566638585006E-02
    0.22247456994912442017E-02
    0.17058106774687060124E-02
    0.27328922799831852943E-02
    0.18823316997439594987E-02
    0.52680524916776270625E-02
    0.60220477519855658208E-02
    0.21230450071228687547E-01
    0.25679010840572613628E-01
    0.29253822238675144390E-01
    0.29253821871446303304E-01
    0.25679009488192856836E-01
    0.21230448681264210697E-01
    0.15574724076263500583E-01
    0.17074369362247314441E-01
    0.11720729620013780811E-01
    0.11720728036117488910E-01
    0.17074368657331036314E-01
    0.15574724520022722660E-01
    0.22719433249610846565E-01
    0.22719433088221857586E-01
    0.29635314393263746929E-03
    0.24246817906212824009E-03
    0.25390539694091363975E-03
    0.20995613720029655466E-03
    0.17935956928629321087E-03
    0.15101595291451986453E-03
    0.15217493554748985694E-03
    0.16501795655051945287E-03
    0.16520139535759168241E-03
    0.17302788948996198726E-03
    0.19999097654525634939E-03
    0.24290540226395109153E-03
    0.19863070565564851168E-03
    0.18436810869425405784E-03
    0.22199087043291390489E-03
    0.17243612439213693152E-03
    0.16406740724240128650E-03
    0.13433885422531229850E-03
    0.12194219872114861892E-03
    0.10165531308796088637E-03
    0.10773922648726032216E-03
    0.12322798479871111639E-03
    0.13256021001759583466E-03
    0.14419010666565223598E-03
    0.15914310902348575939E-03
    0.19918365655605880832E-03
    0.14669397342533546809E-03
    0.13411537349471329222E-03
    0.14434121851984338825E-02
    0.96978692485196241711E-03
    0.10934332547422446515E-02
    0.74425450981609132719E-03
    0.52644274593113371367E-03
    0.35263226250715974837E-03
    0.29949465660390278904E-03
    0.38970317621037298605E-03
    0.35124989890539237963E-03
    0.43212849056948530969E-03
    0.63305893896471461101E-03
    0.94986931087761379468E-03
    0.63661387905103981617E-03
    0.53960724801311124067E-03
    0.85853458172923031479E-03
    0.53932925430609577992E-03
    0.49478783679497153562E-03
    0.34898921220439415485E-03
    0.28572874236757448991E-03
    0.19836706779241219359E-03
    0.18748316105254335200E-03
    0.25437206771489559052E-03
    0.25831268599833887966E-03
    0.32915691919801690069E-03
    0.43862003361981751317E-03
    0.67477594206728872418E-03
    0.39030980198794342807E-03
    0.32801147105431010175E-03
    0.12620618474809867319E-03
    0.98437379375314996185E-04
    0.89347787338108958818E-04
    0.75545031637073924331E-04
    0.71880311848346214575E-04
    0.61833211472559125197E-04
    0.66248345287154425387E-04
    0.76388702386536764893E-04
    0.85165115795887027616E-04
    0.94219991258120359403E-04
    0.99133905595539354729E-04
    0.12317161752445395244E-03
    0.87860949689873917251E-04
    0.80678723464639421920E-04
    0.69790187808992364691E-04
    0.59441773092143669534E-04
    0.57753380731618975791E-04
    0.53493983704417460989E-04
    0.50163519109362680697E-04
    0.46931546615259730516E-04
    0.46931860311299571076E-04
    0.50164026890930620093E-04
    0.53495059961138751185E-04
    0.57754116324628474095E-04
    0.59442012859194250486E-04
    0.69790094745763705457E-04
    0.54850400720466979535E-04
    0.52146310830873333810E-04
    0.29894080916797658148E-03
    0.20906689709336410575E-03
    0.17812299740145077793E-03
    0.14167173189921815823E-03
    0.12959588283590389095E-03
    0.98241779536865095563E-04
    0.98241442083588252968E-04
    0.12959644993836927449E-03
    0.14167289983557255833E-03
    0.17812317740787330603E-03
    0.20906679838435856394E-03
    0.29894045827133221239E-03
    0.17552745624338885518E-03
    0.15253554396584142160E-03
    0.12317150242540452041E-03
    0.99133397614160849291E-04
    0.94219105657186274626E-04
    0.85163786740591847289E-04
    0.76387598403206596930E-04
    0.66247044982085714882E-04
    0.61831982796061842815E-04
    0.71880203182950441190E-04
    0.75545722319019696991E-04
    0.89347707470054636442E-04
    0.98436978414565652271E-04
    0.12620561892205027716E-03
    0.87860432381725112267E-04
    0.80678191404086823475E-04
    0.13280794869173103562E-01
    0.92052282750187345434E-02
    0.89246124818891468117E-02
    0.63868091960545738534E-02
    0.45569366338536147071E-02
    0.21429542331908996156E-02
    0.15481314849952769117E-02
    0.26576077263665994453E-02
    0.20400678893516210020E-02
    0.30624285291350802213E-02
    0.62270395268630950036E-02
    0.98779632662906874385E-02
    0.62039099452268322080E-02
    0.50034423075457383143E-02
    0.54703587997981502691E-02
    0.32070635667508012520E-02
    0.18591729834757035177E-02
    0.11618847871593374586E-02
    0.11640607698750122297E-02
    0.62906509743910717959E-03
    0.62906466970451475115E-03
    0.11640612694437558073E-02
    0.11618856717497249437E-02
    0.18591726134169019903E-02
    0.32070626573858446520E-02
    0.54703571818424823886E-02
    0.25140192931993095987E-02
    0.19165667259248516698E-02
    0.29219727906706835507E-01
    0.25747077433485882764E-01
    0.21073355615112768224E-01
    0.16510112486106121032E-01
    0.16302759143076880205E-01
    0.10787018704279402806E-01
    0.10787018239569946126E-01
    0.16302760670499263224E-01
    0.16510115261647095170E-01
    0.21073356516259154902E-01
    0.25747076929441427284E-01
    0.29219726406603748620E-01
    0.23707392705066967359E-01
    0.20781992033124453700E-01
    0.98779649632644798279E-02
    0.62270406507270534974E-02
    0.30624289708914074863E-02
    0.20400670891945146303E-02
    0.26576075240118831287E-02
    0.15481321503735530429E-02
    0.21429543919589950744E-02
    0.45569385457413262228E-02
    0.63868119456862082126E-02
    0.89246131933853004720E-02
    0.92052278350244227251E-02
    0.13280793338223696384E-01
    0.62039104612196882896E-02
    0.50034430090671452515E-02
    0.67477634021729160016E-03
    0.43862014235939290841E-03
    0.32915674041804912848E-03
    0.25831151186357116916E-03
    0.25437147682437748902E-03
    0.18748343667775296535E-03
    0.19836658161881894785E-03
    0.28572923301663823983E-03
    0.34899026557633271248E-03
    0.49478796278268864783E-03
    0.53932916162618320735E-03
    0.85853432077498956828E-03
    0.39030979428330257481E-03
    0.32801144776479828962E-03
    0.19918353927786031673E-03
    0.15914259596862875140E-03
    0.14418921855014843556E-03
    0.13255887622469543518E-03
    0.12322686517038085536E-03
    0.10773789001409303913E-03
    0.10165399809387557124E-03
    0.12194203238114825142E-03
    0.13433943499952430531E-03
    0.16406726897321864331E-03
    0.17243570201805403824E-03
    0.22199029781165731390E-03
    0.14669344151252704548E-03
    0.13411482058571015078E-03
    0.94986972509877648160E-03
    0.63305905673409859115E-03
    0.43212831352203466204E-03
    0.35124872542510114214E-03
    0.38970258866873307970E-03
    0.29949493358903071100E-03
    0.35263178039072058364E-03
    0.52644325624035990478E-03
    0.74425561936721786830E-03
    0.10934335012206706454E-02
    0.96978688111922352420E-03
    0.14434119725714573100E-02
    0.63661388805648258353E-03
    0.53960723673871424308E-03
    0.24290528530182805352E-03
    0.19999046350955814247E-03
    0.17302700128975630157E-03
    0.16520006143655680073E-03
    0.16501683668565400804E-03
    0.15217359856276456063E-03
    0.15101463663737241900E-03
    0.17935940248822363255E-03
    0.20995671735557909325E-03
    0.25390525902893069932E-03
    0.24246775659008339794E-03
    0.29635257144812774755E-03
    0.19863017364206918920E-03
    0.18436755561421000059E-03
    0.15101595979576188712E-03
    0.17935960878032416771E-03
    0.20995599367183671261E-03
    0.25390492686982248398E-03
    0.24246748589878080017E-03
    0.29635261170442029613E-03
    0.24290459136698964245E-03
    0.19999073105979726754E-03
    0.17302835096542963536E-03
    0.16520166780626999213E-03
    0.16501812568107878266E-03
    0.15217513696887317279E-03
    0.18436798722453883077E-03
    0.19863030613704571372E-03
    0.35263255955972339344E-03
    0.52644320548269273822E-03
    0.74425478638926768904E-03
    0.10934330634773583441E-02
    0.96978648815385494562E-03
    0.14434118936490769602E-02
    0.94986891806529401370E-03
    0.63305909228532938719E-03
    0.43212912323001642385E-03
    0.35124911417702193344E-03
    0.38970294957234465462E-03
    0.29949494855002983893E-03
    0.53960732339041438121E-03
    0.63661378642150415544E-03
    0.10165531967081994078E-03
    0.12194223800337042210E-03
    0.13433871028803586693E-03
    0.16406693660706863323E-03
    0.17243543129454976860E-03
    0.22199033822403171565E-03
    0.19918284550101021993E-03
    0.15914286348825862653E-03
    0.14419056813989056145E-03
    0.13256048248265359319E-03
    0.12322815392156960209E-03
    0.10773942779222070768E-03
    0.13411525198342514600E-03
    0.14669357390203021426E-03
    0.19836735982793117050E-03
    0.28572918844820314284E-03
    0.34898945494882342147E-03
    0.49478757554728355645E-03
    0.53932878950223273832E-03
    0.85853426722335519569E-03
    0.67477554096292730219E-03
    0.43862018120690980010E-03
    0.32915755041945600522E-03
    0.25831190079490351334E-03
    0.25437183857866352103E-03
    0.18748345147219722660E-03
    0.32801153828793800076E-03
    0.39030969875874604825E-03
    0.21429548683421601948E-02
    0.45569374528410316535E-02
    0.63868092346266499421E-02
    0.89246118860222701380E-02
    0.92052266313322438085E-02
    0.13280792856129458590E-01
    0.98779622544197271533E-02
    0.62270396082775838695E-02
    0.30624294625836230750E-02
    0.20400673072428860896E-02
    0.26576076131513966076E-02
    0.15481320158690031839E-02
    0.50034423873295558877E-02
    0.62039095422027328713E-02
    0.10787020355585706308E-01
    0.16302760631382914175E-01
    0.16510113053072619088E-01
    0.21073355499615805536E-01
    0.25747076148893613401E-01
    0.29219726220330383831E-01
    0.29219725739790473884E-01
    0.25747077438352711926E-01
    0.21073357662966623466E-01
    0.16510113308040794133E-01
    0.16302759858602199755E-01
    0.10787018730426064031E-01
    0.20781992217616673813E-01
    0.23707392554158625980E-01
    0.62906542283297820720E-03
    0.11640611281186540125E-02
    0.11618848101613262272E-02
    0.18591721723045173068E-02
    0.32070619186589689742E-02
    0.54703568672656559951E-02
    0.54703561771644671277E-02
    0.32070626738032233932E-02
    0.18591735132031858829E-02
    0.11618850501207258000E-02
    0.11640610201777052985E-02
    0.62906506747897200389E-03
    0.19165665297216614733E-02
    0.25140187275319043209E-02
    0.15481323025658918525E-02
    0.26576077352103151356E-02
    0.20400670752373198553E-02
    0.30624281517520582536E-02
    0.62270390247246964338E-02
    0.98779631600632213789E-02
    0.13280792755699370733E-01
    0.92052283567191067054E-02
    0.89246146823630852912E-02
    0.63868101419013471529E-02
    0.45569373473455625223E-02
    0.21429542818992880666E-02
    0.50034425110844346282E-02
    0.62039098617829900942E-02
    0.61833192562162710192E-04
    0.71880334903356331842E-04
    0.75544855999759160064E-04
    0.89347297736666996394E-04
    0.98436679931713055142E-04
    0.12620565021624822306E-03
    0.12317080568177688382E-03
    0.99133658756218263398E-04
    0.94220452193469019018E-04
    0.85165387157405054758E-04
    0.76388867359125116525E-04
    0.66248536269843927272E-04
    0.80678596380637557814E-04
    0.87860546281053002030E-04
    0.98242000301619988216E-04
    0.12959629110082204707E-03
    0.14167191810538574937E-03
    0.17812271269513366232E-03
    0.20906641040460946014E-03
    0.29894045061601496856E-03
    0.29894002920269243653E-03
    0.20906693332380622764E-03
    0.17812380379275298070E-03
    0.14167211112910309333E-03
    0.12959620975020716329E-03
    0.98241707816536336540E-04
    0.15253559524306957202E-03
    0.17552733886438064929E-03
    0.46931678489219785723E-04
    0.50163223730656960177E-04
    0.53493396056880452032E-04
    0.57752333609597621123E-04
    0.59440843154705539275E-04
    0.69789495227190939458E-04
    0.69789221884749376218E-04
    0.59441688824372346928E-04
    0.57754532049475734788E-04
    0.53495251337202327432E-04
    0.50163984663298448940E-04
    0.46931700640676642675E-04
    0.52145974559244281628E-04
    0.54849832400134785173E-04
    0.66246544302654911530E-04
    0.76386953922090336218E-04
    0.85163085012256712594E-04
    0.94218025504706472096E-04
    0.99132487797970214897E-04
    0.12317092678208586376E-03
    0.12620507904101651827E-03
    0.98436890960034500119E-04
    0.89348205467239304525E-04
    0.75544713032188286206E-04
    0.71879304753038160891E-04
    0.61831457598618229572E-04
    0.80677513913814946091E-04
    0.87859794387446828049E-04
    0.18748370631428170046E-03
    0.25437190453206630792E-03
    0.25831170248648993191E-03
    0.32915645362626127363E-03
    0.43861964347564978131E-03
    0.67477593159176560596E-03
    0.85853377429878868863E-03
    0.53932927916444856932E-03
    0.49478862842106585609E-03
    0.34898957203818392701E-03
    0.28572905729086191598E-03
    0.19836696832000222965E-03
    0.32801151753493468103E-03
    0.39030968008250320435E-03
    0.29949520223175856576E-03
    0.38970301350564932278E-03
    0.35124891502414306655E-03
    0.43212802535404936559E-03
    0.63305855194827650827E-03
    0.94986930849603502802E-03
    0.14434114016594259012E-02
    0.96978696462378713959E-03
    0.10934340775473614434E-02
    0.74425487760145533998E-03
    0.52644306380356402277E-03
    0.35263216327075473915E-03
    0.53960729722973236212E-03