# vtk DataFile Version 3.0
LAPLACIEN  2D
ASCII
DATASET UNSTRUCTURED_GRID
 POINTS         481  float
   6.2500000000000000E-002  0.87500000000000000        0.0000000000000000     
  0.12500000000000000       0.87500000000000000        0.0000000000000000     
  0.12500000000000000       0.93750000000000000        0.0000000000000000     
   3.7499999999999999E-002  0.91249999999999998        0.0000000000000000     
   8.1250000000000003E-002  0.91874999999999996        0.0000000000000000     
   8.7499999999999994E-002  0.96250000000000002        0.0000000000000000     
   4.3749999999999997E-002  0.95625000000000004        0.0000000000000000     
  0.18750000000000000       0.87500000000000000        0.0000000000000000     
  0.25000000000000000       0.87500000000000000        0.0000000000000000     
  0.25000000000000000       0.93750000000000000        0.0000000000000000     
  0.16250000000000001       0.91249999999999998        0.0000000000000000     
  0.20624999999999999       0.91874999999999996        0.0000000000000000     
  0.21249999999999999       0.96250000000000002        0.0000000000000000     
  0.16875000000000001       0.95625000000000004        0.0000000000000000     
   6.2500000000000000E-002  0.75000000000000000        0.0000000000000000     
  0.12500000000000000       0.75000000000000000        0.0000000000000000     
  0.12500000000000000       0.81250000000000000        0.0000000000000000     
   3.7499999999999999E-002  0.78749999999999998        0.0000000000000000     
   8.1250000000000003E-002  0.79374999999999996        0.0000000000000000     
   8.7499999999999994E-002  0.83750000000000002        0.0000000000000000     
   4.3749999999999997E-002  0.83125000000000004        0.0000000000000000     
  0.18750000000000000       0.75000000000000000        0.0000000000000000     
  0.25000000000000000       0.75000000000000000        0.0000000000000000     
  0.25000000000000000       0.81250000000000000        0.0000000000000000     
  0.16250000000000001       0.78749999999999998        0.0000000000000000     
  0.20624999999999999       0.79374999999999996        0.0000000000000000     
  0.21249999999999999       0.83750000000000002        0.0000000000000000     
  0.16875000000000001       0.83125000000000004        0.0000000000000000     
  0.31250000000000000       0.87500000000000000        0.0000000000000000     
  0.37500000000000000       0.87500000000000000        0.0000000000000000     
  0.37500000000000000       0.93750000000000000        0.0000000000000000     
  0.28749999999999998       0.91249999999999998        0.0000000000000000     
  0.33124999999999999       0.91874999999999996        0.0000000000000000     
  0.33750000000000002       0.96250000000000002        0.0000000000000000     
  0.29375000000000001       0.95625000000000004        0.0000000000000000     
  0.43750000000000000       0.87500000000000000        0.0000000000000000     
  0.50000000000000000       0.87500000000000000        0.0000000000000000     
  0.50000000000000000       0.93750000000000000        0.0000000000000000     
  0.41249999999999998       0.91249999999999998        0.0000000000000000     
  0.45624999999999999       0.91874999999999996        0.0000000000000000     
  0.46250000000000002       0.96250000000000002        0.0000000000000000     
  0.41875000000000001       0.95625000000000004        0.0000000000000000     
  0.31250000000000000       0.75000000000000000        0.0000000000000000     
  0.37500000000000000       0.75000000000000000        0.0000000000000000     
  0.37500000000000000       0.81250000000000000        0.0000000000000000     
  0.28749999999999998       0.78749999999999998        0.0000000000000000     
  0.33124999999999999       0.79374999999999996        0.0000000000000000     
  0.33750000000000002       0.83750000000000002        0.0000000000000000     
  0.29375000000000001       0.83125000000000004        0.0000000000000000     
  0.43750000000000000       0.75000000000000000        0.0000000000000000     
  0.50000000000000000       0.75000000000000000        0.0000000000000000     
  0.50000000000000000       0.81250000000000000        0.0000000000000000     
  0.41249999999999998       0.78749999999999998        0.0000000000000000     
  0.45624999999999999       0.79374999999999996        0.0000000000000000     
  0.46250000000000002       0.83750000000000002        0.0000000000000000     
  0.41875000000000001       0.83125000000000004        0.0000000000000000     
   6.2500000000000000E-002  0.62500000000000000        0.0000000000000000     
  0.12500000000000000       0.62500000000000000        0.0000000000000000     
  0.12500000000000000       0.68750000000000000        0.0000000000000000     
   3.7499999999999999E-002  0.66249999999999998        0.0000000000000000     
   8.1250000000000003E-002  0.66874999999999996        0.0000000000000000     
   8.7499999999999994E-002  0.71250000000000002        0.0000000000000000     
   4.3749999999999997E-002  0.70625000000000004        0.0000000000000000     
  0.18750000000000000       0.62500000000000000        0.0000000000000000     
  0.25000000000000000       0.62500000000000000        0.0000000000000000     
  0.25000000000000000       0.68750000000000000        0.0000000000000000     
  0.16250000000000001       0.66249999999999998        0.0000000000000000     
  0.20624999999999999       0.66874999999999996        0.0000000000000000     
  0.21249999999999999       0.71250000000000002        0.0000000000000000     
  0.16875000000000001       0.70625000000000004        0.0000000000000000     
   6.2500000000000000E-002  0.50000000000000000        0.0000000000000000     
  0.12500000000000000       0.50000000000000000        0.0000000000000000     
  0.12500000000000000       0.56250000000000000        0.0000000000000000     
   3.7499999999999999E-002  0.53749999999999998        0.0000000000000000     
   8.1250000000000003E-002  0.54374999999999996        0.0000000000000000     
   8.7499999999999994E-002  0.58750000000000002        0.0000000000000000     
   4.3749999999999997E-002  0.58125000000000004        0.0000000000000000     
  0.18750000000000000       0.50000000000000000        0.0000000000000000     
  0.25000000000000000       0.50000000000000000        0.0000000000000000     
  0.25000000000000000       0.56250000000000000        0.0000000000000000     
  0.16250000000000001       0.53749999999999998        0.0000000000000000     
  0.20624999999999999       0.54374999999999996        0.0000000000000000     
  0.21249999999999999       0.58750000000000002        0.0000000000000000     
  0.16875000000000001       0.58125000000000004        0.0000000000000000     
  0.31250000000000000       0.62500000000000000        0.0000000000000000     
  0.37500000000000000       0.62500000000000000        0.0000000000000000     
  0.37500000000000000       0.68750000000000000        0.0000000000000000     
  0.28749999999999998       0.66249999999999998        0.0000000000000000     
  0.33124999999999999       0.66874999999999996        0.0000000000000000     
  0.33750000000000002       0.71250000000000002        0.0000000000000000     
  0.29375000000000001       0.70625000000000004        0.0000000000000000     
  0.43750000000000000       0.62500000000000000        0.0000000000000000     
  0.50000000000000000       0.62500000000000000        0.0000000000000000     
  0.50000000000000000       0.68750000000000000        0.0000000000000000     
  0.41249999999999998       0.66249999999999998        0.0000000000000000     
  0.45624999999999999       0.66874999999999996        0.0000000000000000     
  0.46250000000000002       0.71250000000000002        0.0000000000000000     
  0.41875000000000001       0.70625000000000004        0.0000000000000000     
  0.31250000000000000       0.50000000000000000        0.0000000000000000     
  0.37500000000000000       0.50000000000000000        0.0000000000000000     
  0.37500000000000000       0.56250000000000000        0.0000000000000000     
  0.28749999999999998       0.53749999999999998        0.0000000000000000     
  0.33124999999999999       0.54374999999999996        0.0000000000000000     
  0.33750000000000002       0.58750000000000002        0.0000000000000000     
  0.29375000000000001       0.58125000000000004        0.0000000000000000     
  0.43750000000000000       0.50000000000000000        0.0000000000000000     
  0.50000000000000000       0.50000000000000000        0.0000000000000000     
  0.50000000000000000       0.56250000000000000        0.0000000000000000     
  0.41249999999999998       0.53749999999999998        0.0000000000000000     
  0.45624999999999999       0.54374999999999996        0.0000000000000000     
  0.46250000000000002       0.58750000000000002        0.0000000000000000     
  0.41875000000000001       0.58125000000000004        0.0000000000000000     
  0.56250000000000000       0.87500000000000000        0.0000000000000000     
  0.62500000000000000       0.87500000000000000        0.0000000000000000     
  0.62500000000000000       0.93750000000000000        0.0000000000000000     
  0.53749999999999998       0.91249999999999998        0.0000000000000000     
  0.58125000000000004       0.91874999999999996        0.0000000000000000     
  0.58750000000000002       0.96250000000000002        0.0000000000000000     
  0.54374999999999996       0.95625000000000004        0.0000000000000000     
  0.68750000000000000       0.87500000000000000        0.0000000000000000     
  0.75000000000000000       0.87500000000000000        0.0000000000000000     
  0.75000000000000000       0.93750000000000000        0.0000000000000000     
  0.66249999999999998       0.91249999999999998        0.0000000000000000     
  0.70625000000000004       0.91874999999999996        0.0000000000000000     
  0.71250000000000002       0.96250000000000002        0.0000000000000000     
[...]
 CELL_DATA         896
 SCALARS VEGF float
 LOOKUP_TABLE default
   -0.19843114106442685507E-06
   -0.13956102664672720781E-06
    0.59264471216624714148E-07
    0.64735784219887544954E-07
   -0.13675305111164654600E-06
   -0.20319376670144361179E-06
   -0.22857796997678335047E-06
   -0.30199620077280364905E-06
   -0.33882738770636705405E-06
   -0.32927627418738013018E-06
   -0.29832711499640631922E-06
   -0.23505828945998246195E-06
   -0.25837842808119544346E-06
   -0.25806977799723424828E-06
    0.97163378483139660095E-06
    0.11320817588857675864E-05
    0.24836448472090392382E-05
    0.20489239054706083128E-05
    0.85252806105465779735E-06
    0.48554836389699195085E-06
    0.22990714873595569631E-06
    0.11121348593205667562E-06
   -0.75281371014606494282E-07
   -0.13628691422774337685E-06
    0.14212831605475567265E-06
    0.23920007678936978532E-06
    0.43122302224199553614E-06
    0.38524535259020330583E-06
    0.49014819746118180797E-06
    0.84915592787459440376E-06
    0.20425270217510344746E-05
    0.24871110368328096631E-05
    0.11314360467217338803E-05
    0.96940144006888550449E-06
    0.23944091975330073507E-06
    0.13901475565645078795E-06
   -0.13822643850493143796E-06
   -0.63503583505748053578E-07
    0.11525614160178664594E-06
    0.22345196758095347584E-06
    0.38417253753579452530E-06
    0.43014419366454369790E-06
    0.92666445121589347569E-05
    0.13289031291377904868E-04
    0.28259290494611606317E-04
    0.28263752355959481216E-04
    0.13289348630500281780E-04
    0.92652345049221034089E-05
    0.39768033768213569955E-05
    0.38019461550980828183E-05
    0.14926718989014254204E-05
    0.14987397764810251605E-05
    0.38029276995109639879E-05
    0.39746767804894464271E-05
    0.71918644004163642856E-05
    0.71921801654992008608E-05
    0.64753025844832379318E-05
    0.55317713590204610288E-05
    0.97696116434407777492E-05
    0.68498407994471778343E-05
    0.32535218926982190660E-05
    0.18501557027518710371E-05
    0.12389562135097590376E-05
    0.12026103149631269333E-05
    0.68661100684802760385E-06
    0.67419732632308597731E-06
    0.17766571739505116181E-05
    0.27582329144452685762E-05
    0.26315060520790193422E-05
    0.22307134690234074697E-05
    0.16386669741531326389E-04
    0.11252953676713453070E-04
    0.16748096731053112247E-04
    0.10443500693523567917E-04
    0.52405256644181513439E-05
    0.27288135122999719762E-05
    0.20838379882780775394E-05
    0.24377691173421211308E-05
    0.18011274136011030932E-05
    0.20709072058573499464E-05
    0.45008164312752409826E-05
    0.78614591491063051464E-05
    0.54711586405119493805E-05
    0.43413927260345595082E-05
    0.95403595763007240397E-04
    0.92607248595750270596E-04
    0.17319190256153573870E-03
    0.12663524734523172216E-03
    0.59494092326881583047E-04
    0.32711987849075657643E-04
    0.15796001274363653485E-04
    0.19804361220977854648E-04
    0.97991082062498012728E-05
    0.11986436653317780502E-04
    0.29203592750677620819E-04
    0.40718131160829219210E-04
    0.45554299304762836415E-04
    0.39621919870050396277E-04
    0.31722740772976071094E-03
    0.22309421772496440257E-03
    0.33871911920196618980E-03
    0.21191311322922031348E-03
    0.10417272970827665048E-03
    0.49986219698115506675E-04
    0.27219330254040655315E-04
    0.41983237305286208116E-04
    0.25334988645198905252E-04
    0.36670145553753423289E-04
    0.86318574871770435480E-04
    0.14966684215701042812E-03
    0.10789965458046908394E-03
    0.85118146483905687545E-04
    0.18547444178239160208E-05
    0.32501253274264379859E-05
    0.68434254485135056516E-05
    0.97730418586997706300E-05
    0.55310231659547096067E-05
    0.64728149137708485648E-05
    0.27579327232656834293E-05
    0.17733382511638072561E-05
    0.67213280112506819341E-06
    0.69831501338073907051E-06
    0.12066105041310338841E-05
    0.12324825584088872589E-05
    0.22295843820203517643E-05
    0.26303381708490279343E-05
    0.32713394220020346420E-04
    0.59493782274022253447E-04
    0.12663087215541816988E-03
    0.17319662772027384504E-03
    0.92607537289718280370E-04
    0.95401926686571611805E-04
    0.40719661390711527028E-04
    0.29202289994167486190E-04
    0.11979898473067805971E-04
    0.98049196649760734395E-05
    0.19805241314364071138E-04
    0.15793839779056094620E-04
    0.39621535885696900251E-04
    0.45554511805405244456E-04
    0.27334017131871109793E-05
    0.52371281911064988232E-05
    0.10437084384461115934E-04
    0.16751525441772119557E-04
    0.11252202040658351503E-04
    0.16384175520011523786E-04
    0.78611479902855092042E-05
    0.44974921129779231544E-05
    0.20688362893600565800E-05
    0.18128277780497572572E-05
    0.24417674448923069899E-05
    0.20773635012019951852E-05
    0.43402617312298025410E-05
    0.54699880110098704337E-05
    0.49987629782191052112E-04
    0.10417242658851104810E-03
    0.21190875679587278671E-03
    0.33872386224703562819E-03
    0.22309446158669035405E-03
    0.31722565595313634420E-03
    0.14966839314700590793E-03
    0.86317274354601110668E-04
    0.36663606727801339221E-04
    0.25340795035109745404E-04
    0.41984111980162728498E-04
    0.27217167687861497995E-04
    0.85117755128494109037E-04
    0.10789985298217366801E-03
    0.58654366078075641754E-03
    0.10088757997412929439E-02
    0.18423098837503685491E-02
    0.18423141862631037431E-02
    0.10088733457299210120E-02
    0.58654019053870642703E-03
    0.27722934402005640440E-03
    0.32455059391361040441E-03
    0.13937674712298809827E-03
    0.13938304445965219065E-03
    0.32455207483823394999E-03
    0.27722839185696687399E-03
    0.64937398180658825048E-03
    0.64937366846561735047E-03
    0.34926041891264240045E-02
    0.32417733013761704242E-02
    0.41220406065455243022E-02
    0.34655220107908174185E-02
    0.19448469247779613146E-02
    0.99075186620701757335E-03
    0.54968472586700944764E-03
    0.85105526855317587508E-03
    0.48804714585455133500E-03
    0.67348291804756189437E-03
    0.15567539749363680946E-02
    0.22232613829628699968E-02
    0.19608741884892888843E-02
    0.16434219535760117171E-02
    0.99075637317699882280E-03
    0.19448479282666018050E-02
    0.34655157687518371029E-02
    0.41220426600868942391E-02
    0.32417668176099793780E-02
    0.34925938246202731068E-02
    0.22232606192115807880E-02
    0.15567526676242404021E-02
    0.67347783534875014979E-03
    0.48805346340848347261E-03
    0.85105588740296922532E-03
    0.54968383725355492685E-03
    0.16434207392264305395E-02
    0.19608722520121518208E-02
    0.55806743134484007932E-02
    0.60291507278480965110E-02
    0.64681499692739547955E-02
    0.64681534527564242890E-02
    0.60291456321775989749E-02
    0.55806650561194557150E-02
    0.47517648657143130714E-02
    0.49542910503080775722E-02
    0.40346516016433455962E-02
    0.40346518971846523013E-02
    0.49542887581198501515E-02
    0.47517635897481895133E-02
    0.56739144398813114514E-02
    0.56739143267894474529E-02
    0.19598695229342507539E-04
    0.11391068137708467692E-04
    0.14088021277719667612E-04
    0.79839949816740320024E-05
    0.42602532812185005520E-05
    0.19994585750671369474E-05
    0.17462213793924649356E-05
    0.24028318455081036183E-05
    0.21316600335243015675E-05
    0.27193055493494816281E-05
    0.54873480765704744406E-05
    0.10543760692103734312E-04
    0.56418053665864908124E-05
    0.42135400517109267127E-05
    0.11315195922369671356E-04
    0.56622963452949213705E-05
    0.55134475687610330432E-05
    0.28319738541707524961E-05
    0.16267270441035051824E-05
    0.59598290111128086789E-06
    0.65503732390623297806E-06
    0.11333672453602715961E-05
    0.12422140828191126121E-05
    0.17693296253066599586E-05
    0.33717540793959299076E-05
    0.70793710983817148837E-05
    0.28743525173753253593E-05
    0.19961115350059854075E-05
    0.39840452868182774310E-03
    0.22892129574761242066E-03
    0.27863153417303858882E-03
    0.15523910600137770131E-03
    0.82635173901610014971E-04
    0.35965751907589724417E-04
    0.22696655947630130115E-04
    0.41630806616945802785E-04
    0.30557712803571408908E-04
    0.49695924297517346578E-04
    0.10960101493302239857E-03
    0.21438769604053276572E-03
    0.11292865304783712070E-03
    0.83037370644561007212E-04
    0.20080214582094760832E-03
    0.96319771529405112296E-04
    0.83144860500133091962E-04
    0.42719556649243520111E-04
    0.27001607635005108263E-04
    0.11039635967884690195E-04
    0.86517315625074451933E-05
    0.18808582335654971387E-04
    0.17566528312019143442E-04
    0.31528564853023242020E-04
    0.62283757464251667630E-04
    0.13332354887651891263E-03
    0.51107749375748097302E-04
    0.35373885927553622979E-04
    0.27757754050237128980E-05
    0.11497966706790698902E-05
    0.78769944542241743945E-06
    0.25770988128458595883E-06
    0.96163180838932271595E-07
   -0.16912617607951644052E-06
   -0.75600793040924059350E-07
    0.73049742616971386714E-07
    0.20482024831873265155E-06
    0.41725644216342280743E-06
    0.86485868104018801722E-06
    0.21500406770657532835E-05
    0.52625801610023830741E-06
    0.26601073945468449851E-06
    0.84404288830931504503E-07
   -0.14179029052262043446E-06
   -0.22883271362754078303E-06
   -0.24740814197783579464E-06
   -0.30935506397189073546E-06
   -0.33101339414472238246E-06
   -0.32264977482649289599E-06
   -0.31079633327510242064E-06
   -0.25024236119264513455E-06
   -0.22320201916193396410E-06
   -0.13807701505348171424E-06
    0.84575685437143696457E-07
   -0.23667497408518923195E-06
   -0.28990567054963798152E-06
    0.30481251898061093595E-04
    0.13589558127372501078E-04
    0.83498865018531277067E-05
    0.42645399798485871131E-05
    0.34243091899507230796E-05
    0.12752020553225675373E-05
    0.12776387422813193224E-05
    0.34245582284538693555E-05
    0.42614862159840136924E-05
    0.83572948510275333039E-05
    0.13591059477600993225E-04
    0.30480037799620990325E-04
    0.85698699179146642190E-05
    0.57333834775125033383E-05
    0.21487942480150470810E-05
    0.85974261268832035384E-06
    0.41075039240534866375E-06
    0.20613578053130147875E-06
    0.70663293148952179381E-07
   -0.91582158152082353464E-07
   -0.16735543144520915331E-06
    0.91538609553262500018E-07
    0.25206494889231066748E-06
    0.79375875597628595845E-06
    0.11497458439140101092E-05
    0.27734580347839711553E-05
    0.52342060106064196810E-06
    0.26312966348374988267E-06
    0.43564784139571580482E-02
    0.32938787778488839118E-02
    0.32964317052459847154E-02
    0.23595883891643605959E-02
    0.15362764770043388536E-02
    0.66868636842698600965E-03
    0.44767086393515301930E-03
    0.86013181220517787810E-03
    0.61993841549641960469E-03
    0.98699873426786200598E-03
    0.20461570915288468386E-02
    0.34622785485556827056E-02
    0.21454560055261147344E-02
    0.16519965943023195726E-02
    0.19952248284302166563E-02
    0.10550744600805570146E-02
    0.56641148332085204491E-03
    0.30889117978183025905E-03
    0.30162504198950592033E-03
    0.12489624416736080058E-03
    0.12489823368999963880E-03
    0.30162499814887020876E-03
    0.30888685003511805573E-03
    0.56641644223026025706E-03
    0.10550717889519537710E-02
    0.19952167202652308815E-02
    0.77280371244414704669E-03
    0.55051624871872120899E-03
    0.64715332633900187961E-02
    0.60755501928417849494E-02
    0.55881214672726291573E-02
    0.49832835970733428341E-02
    0.49379217858157662541E-02
    0.38374107766150074121E-02
    0.38374127315939066639E-02
    0.49379271813753105452E-02
    0.49832888758170826998E-02
    0.55881307075483898500E-02
    0.60755482515816010974E-02
    0.64715250353897862609E-02
    0.58575895505479777178E-02
    0.55233643683839312236E-02
    0.34622874069138000544E-02
    0.20461601272852496074E-02
    0.98699346466387294537E-03
    0.61994227538512958458E-03
    0.86013215446161797248E-03
    0.44766956041969376435E-03
    0.66869086601321935711E-03
    0.15362825031726297896E-02
    0.23595936528205464257E-02
    0.32964412822460427248E-02
    0.32938776796087262423E-02
    0.43564706726970077802E-02
    0.21454575665097166612E-02
    0.16519988744614427182E-02
    0.13332493038733606115E-03
    0.62282277713560235135E-04
    0.31521150014795750187E-04
    0.17569535276020181133E-04
    0.18808187058235844506E-04
    0.86489479058815570871E-05
    0.11041281341849970069E-04
    0.27001436572313566138E-04
    0.42715891872942042681E-04
    0.83151950178061656105E-04
    0.96321237297133333543E-04
    0.20080124598657311526E-03
    0.51107675149864045415E-04
    0.35373737265006567675E-04
    0.70781030807216646541E-05
    0.33665972509909451823E-05
    0.17628001647048419979E-05
    0.12434891436285589446E-05
    0.11308708170120043230E-05
    0.63882164957220632967E-06
    0.59723713998576859706E-06
    0.16217645454276473550E-05
    0.28257374854534330740E-05
    0.55191771624664131684E-05
    0.56621119734820554367E-05
    0.11312828611793804601E-04
    0.28714156579872004768E-05
    0.19930941771783613952E-05
    0.21438897798950975093E-03
    0.10959950774108691903E-03
    0.49688501955767772642E-04
    0.30560714943361923625E-04
    0.41630410865346600274E-04
    0.22693872352374399757E-04
    0.35967405398238710870E-04
    0.82635063945847095769E-04
    0.15523562516911641285E-03
    0.27863895326127189125E-03
    0.22892272800261324515E-03
    0.39840324659310490411E-03
    0.11292856928953929718E-03
    0.83037229525645747793E-04
    0.10542492287018111197E-04
    0.54821903731908732833E-05
    0.27127753083630161886E-05
    0.21329337736697040093E-05
    0.24003324236611512517E-05
    0.17299993423817515043E-05
    0.20006993001809954464E-05
    0.42552837936542420208E-05
    0.79777485357109963432E-05
    0.14093747794993801518E-04
    0.11390881039821327197E-04
    0.19596324404375490457E-04
    0.56388663335863400028E-05
    0.42105196506654338350E-05
    0.20040463812547360564E-05
    0.42568552661346045426E-05
    0.79775778008781728535E-05
    0.14091448101575432028E-04
    0.11390315472430365828E-04
    0.19596199885298383448E-04
    0.10543448698217119927E-04
    0.54840232577690046001E-05
    0.27172342550711989056E-05
    0.21433601079327682601E-05
    0.24068298588232233546E-05
    0.17397466054505758055E-05
    0.42124086014921336259E-05
    0.56406341924287919915E-05
    0.35967152650987644768E-04
    0.82634848594911742268E-04
    0.15523469225367468312E-03
    0.27863609975156195713E-03
    0.22892152037650318548E-03
    0.39840290707990653292E-03
    0.21438928196717424251E-03
    0.10959972250118541772E-03
    0.49689388680799478231E-04
    0.30563518570430945720E-04
    0.41631677516481409523E-04
    0.22694489777142731632E-04
    0.83036971056456580949E-04
    0.11292884485663941458E-03
    0.60056624882527032052E-06
    0.16233257409665058560E-05
    0.28255510829350298240E-05
    0.55168693132137856401E-05
    0.56615424180097038758E-05
    0.11312700504288726686E-04
    0.70790586054701331345E-05
    0.33684286412773090986E-05
    0.17672578835645506431E-05
    0.12539136378150519421E-05
    0.11373641368353809865E-05
    0.64856032904868492035E-06
    0.19949786870496304555E-05
    0.28731803068292492802E-05
    0.11041011630093299710E-04
    0.27001236462373327498E-04
    0.42715034399625075685E-04
    0.83149214795592919281E-04
    0.96319975846717150662E-04
    0.20080058850111004182E-03
    0.13332512659287878661E-03
    0.62282456907138193485E-04
    0.31522022458328369959E-04
    0.17572332372897600381E-04
    0.18809447452034082528E-04
    0.86495567962479152484E-05
    0.35373471116564002021E-04
    0.51107930082860694254E-04
    0.66868949976230530451E-03
    0.15362773432945474750E-02
    0.23595825423024640449E-02
    0.32964336221661589589E-02
    0.32938721340353312172E-02
    0.43564674762913684763E-02
    0.34622771995130620371E-02
    0.20461556676904129638E-02
    0.98699471007509587996E-03
    0.61994513223971960993E-03
    0.86013246883265281895E-03
    0.44766959079760120215E-03
    0.16519954562951228490E-02
    0.21454540535680742194E-02
    0.38374196368729696256E-02
    0.49379265405812148085E-02
    0.49832797817314453820E-02
    0.55881245328537948111E-02
    0.60755445489185620767E-02
    0.64715233474343979506E-02
    0.64715252880881458941E-02
    0.60755498708810083339E-02
    0.55881296433969674872E-02
    0.49832885440419041889E-02
    0.49379243746144590305E-02
    0.38374111878162961431E-02
    0.55233640119402415553E-02
    0.58575889144436227643E-02
    0.12489775927549266504E-03
    0.30162427736692848119E-03
    0.30888563038081515546E-03
    0.56641328191486687085E-03
    0.10550685265264894436E-02
    0.19952142115349609172E-02
    0.19952150196238418838E-02
    0.10550700836806639268E-02
    0.56641132539137796758E-03
    0.30889342808668456171E-03
    0.30162575676543875239E-03
    0.12489652701963481984E-03
    0.55051459592691674889E-03
    0.77280162806906424824E-03
    0.44767079561158150099E-03
    0.86013159709047741150E-03
    0.61993698532659242094E-03
    0.98699566067655909382E-03
    0.20461550652103818217E-02
    0.34622772250142573765E-02
    0.43564706285245322070E-02
    0.32938788033630051096E-02
    0.32964399464105969932E-02
    0.23595936226418344657E-02
    0.15362791069745774034E-02
    0.66868692626483852617E-03
    0.16519966851606636415E-02
    0.21454562080174422595E-02
   -0.16466205163849430458E-06
    0.92669918793319519874E-07
    0.25110405480093922126E-06
    0.79100731003364348350E-06
    0.11489982617716843606E-05
    0.27732598463102194804E-05
    0.21497192195524085058E-05
    0.86152033108156269257E-06
    0.41517753541482643945E-06
    0.21650857984206108039E-06
    0.77018092427207550122E-07
   -0.82133873096965263311E-07
    0.26483999601497535046E-06
    0.52505642345236732824E-06
    0.12762072293150323295E-05
    0.34237348651396703187E-05
    0.42597190683641464361E-05
    0.83541202119186444249E-05
    0.13589665963778546919E-04
    0.30479505175274009199E-04
    0.30481515188385088197E-04
    0.13589703873594011137E-04
    0.83507247285335276969E-05
    0.42672648465174511102E-05
    0.34253567320446606780E-05
    0.12753231384596197328E-05
    0.57328821582064232664E-05
    0.85699802450272578608E-05
   -0.32347488193157625355E-06
   -0.31497002313870376080E-06
   -0.26027813642219066860E-06
   -0.22935257510927005195E-06
   -0.14419134169922050002E-06
    0.81007153771542622610E-07
    0.83912553061769055297E-07
   -0.14182486932146196277E-06
   -0.22547618329305032036E-06
   -0.23882981591372916104E-06
   -0.30744186235012714033E-06
   -0.33001275398986383413E-06
   -0.29208139997485027010E-06
   -0.23877534352328347424E-06
   -0.86470819013477497641E-07
    0.63634453414827174284E-07
    0.19278098815380272754E-06
    0.41006864176399244323E-06
    0.85734214051940431569E-06
    0.21458896772768825766E-05
    0.27743560918529652785E-05
    0.11472726545867703427E-05
    0.78653628373116552741E-06
    0.25674006888919331397E-06
    0.89078115811415296768E-07
   -0.17459636426147741057E-06
    0.25894647731972529602E-06
    0.52095296770130381954E-06
    0.86501732377828295466E-05
    0.18807700394478675993E-04
    0.17564735361152704362E-04
    0.31525376061146009887E-04
    0.62282333803695416477E-04
    0.13332298964253806598E-03
    0.20080218110882854269E-03
    0.96319798826937402434E-04
    0.83145554614684260837E-04
    0.42722090179553063065E-04
    0.27002523637223971081E-04
    0.11039515519993771243E-04
    0.35373317578067435486E-04
    0.51107797763452889994E-04
    0.22695097740329717357E-04
    0.41629925590166039651E-04
    0.30555918369183178494E-04
    0.49692736712328787311E-04
    0.10959958451454389556E-03
    0.21438711643771270828E-03
    0.39840435254782425624E-03
    0.22892132680109924256E-03
    0.27863246549288139429E-03
    0.15524170523434116693E-03
    0.82636110296604070764E-04
    0.35965628753782998559E-04
    0.83036806824382012964E-04