# vtk DataFile Version 3.0
LAPLACIEN  2D
ASCII
DATASET UNSTRUCTURED_GRID
 POINTS         481  float
   6.2500000000000000E-002  0.87500000000000000        0.0000000000000000     
  0.12500000000000000       0.87500000000000000        0.0000000000000000     
  0.12500000000000000       0.93750000000000000        0.0000000000000000     
   3.7499999999999999E-002  0.91249999999999998        0.0000000000000000     
   8.1250000000000003E-002  0.91874999999999996        0.0000000000000000     
   8.7499999999999994E-002  0.96250000000000002        0.0000000000000000     
   4.3749999999999997E-002  0.95625000000000004        0.0000000000000000     
  0.18750000000000000       0.87500000000000000        0.0000000000000000     
  0.25000000000000000       0.87500000000000000        0.0000000000000000     
  0.25000000000000000       0.93750000000000000        0.0000000000000000     
  0.16250000000000001       0.91249999999999998        0.0000000000000000     
  0.20624999999999999       0.91874999999999996        0.0000000000000000     
  0.21249999999999999       0.96250000000000002        0.0000000000000000     
  0.16875000000000001       0.95625000000000004        0.0000000000000000     
   6.2500000000000000E-002  0.75000000000000000        0.0000000000000000     
  0.12500000000000000       0.75000000000000000        0.0000000000000000     
  0.12500000000000000       0.81250000000000000        0.0000000000000000     
   3.7499999999999999E-002  0.78749999999999998        0.0000000000000000     
   8.1250000000000003E-002  0.79374999999999996        0.0000000000000000     
   8.7499999999999994E-002  0.83750000000000002        0.0000000000000000     
   4.3749999999999997E-002  0.83125000000000004        0.0000000000000000     
  0.18750000000000000       0.75000000000000000        0.0000000000000000     
  0.25000000000000000       0.75000000000000000        0.0000000000000000     
  0.25000000000000000       0.81250000000000000        0.0000000000000000     
  0.16250000000000001       0.78749999999999998        0.0000000000000000     
  0.20624999999999999       0.79374999999999996        0.0000000000000000     
  0.21249999999999999       0.83750000000000002        0.0000000000000000     
  0.16875000000000001       0.83125000000000004        0.0000000000000000     
  0.31250000000000000       0.87500000000000000        0.0000000000000000     
  0.37500000000000000       0.87500000000000000        0.0000000000000000     
  0.37500000000000000       0.93750000000000000        0.0000000000000000     
  0.28749999999999998       0.91249999999999998        0.0000000000000000     
  0.33124999999999999       0.91874999999999996        0.0000000000000000     
  0.33750000000000002       0.96250000000000002        0.0000000000000000     
  0.29375000000000001       0.95625000000000004        0.0000000000000000     
  0.43750000000000000       0.87500000000000000        0.0000000000000000     
  0.50000000000000000       0.87500000000000000        0.0000000000000000     
  0.50000000000000000       0.93750000000000000        0.0000000000000000     
  0.41249999999999998       0.91249999999999998        0.0000000000000000     
  0.45624999999999999       0.91874999999999996        0.0000000000000000     
  0.46250000000000002       0.96250000000000002        0.0000000000000000     
  0.41875000000000001       0.95625000000000004        0.0000000000000000     
  0.31250000000000000       0.75000000000000000        0.0000000000000000     
  0.37500000000000000       0.75000000000000000        0.0000000000000000     
  0.37500000000000000       0.81250000000000000        0.0000000000000000     
  0.28749999999999998       0.78749999999999998        0.0000000000000000     
  0.33124999999999999       0.79374999999999996        0.0000000000000000     
  0.33750000000000002       0.83750000000000002        0.0000000000000000     
  0.29375000000000001       0.83125000000000004        0.0000000000000000     
  0.43750000000000000       0.75000000000000000        0.0000000000000000     
  0.50000000000000000       0.75000000000000000        0.0000000000000000     
  0.50000000000000000       0.81250000000000000        0.0000000000000000     
  0.41249999999999998       0.78749999999999998        0.0000000000000000     
  0.45624999999999999       0.79374999999999996        0.0000000000000000     
  0.46250000000000002       0.83750000000000002        0.0000000000000000     
  0.41875000000000001       0.83125000000000004        0.0000000000000000     
   6.2500000000000000E-002  0.62500000000000000        0.0000000000000000     
  0.12500000000000000       0.62500000000000000        0.0000000000000000     
  0.12500000000000000       0.68750000000000000        0.0000000000000000     
   3.7499999999999999E-002  0.66249999999999998        0.0000000000000000     
   8.1250000000000003E-002  0.66874999999999996        0.0000000000000000     
   8.7499999999999994E-002  0.71250000000000002        0.0000000000000000     
   4.3749999999999997E-002  0.70625000000000004        0.0000000000000000     
  0.18750000000000000       0.62500000000000000        0.0000000000000000     
  0.25000000000000000       0.62500000000000000        0.0000000000000000     
  0.25000000000000000       0.68750000000000000        0.0000000000000000     
  0.16250000000000001       0.66249999999999998        0.0000000000000000     
  0.20624999999999999       0.66874999999999996        0.0000000000000000     
  0.21249999999999999       0.71250000000000002        0.0000000000000000     
  0.16875000000000001       0.70625000000000004        0.0000000000000000     
   6.2500000000000000E-002  0.50000000000000000        0.0000000000000000     
  0.12500000000000000       0.50000000000000000        0.0000000000000000     
  0.12500000000000000       0.56250000000000000        0.0000000000000000     
   3.7499999999999999E-002  0.53749999999999998        0.0000000000000000     
   8.1250000000000003E-002  0.54374999999999996        0.0000000000000000     
   8.7499999999999994E-002  0.58750000000000002        0.0000000000000000     
   4.3749999999999997E-002  0.58125000000000004        0.0000000000000000     
  0.18750000000000000       0.50000000000000000        0.0000000000000000     
  0.25000000000000000       0.50000000000000000        0.0000000000000000     
  0.25000000000000000       0.56250000000000000        0.0000000000000000     
  0.16250000000000001       0.53749999999999998        0.0000000000000000     
  0.20624999999999999       0.54374999999999996        0.0000000000000000     
  0.21249999999999999       0.58750000000000002        0.0000000000000000     
  0.16875000000000001       0.58125000000000004        0.0000000000000000     
  0.31250000000000000       0.62500000000000000        0.0000000000000000     
  0.37500000000000000       0.62500000000000000        0.0000000000000000     
  0.37500000000000000       0.68750000000000000        0.0000000000000000     
  0.28749999999999998       0.66249999999999998        0.0000000000000000     
  0.33124999999999999       0.66874999999999996        0.0000000000000000     
  0.33750000000000002       0.71250000000000002        0.0000000000000000     
  0.29375000000000001       0.70625000000000004        0.0000000000000000     
  0.43750000000000000       0.62500000000000000        0.0000000000000000     
  0.50000000000000000       0.62500000000000000        0.0000000000000000     
  0.50000000000000000       0.68750000000000000        0.0000000000000000     
  0.41249999999999998       0.66249999999999998        0.0000000000000000     
  0.45624999999999999       0.66874999999999996        0.0000000000000000     
  0.46250000000000002       0.71250000000000002        0.0000000000000000     
  0.41875000000000001       0.70625000000000004        0.0000000000000000     
  0.31250000000000000       0.50000000000000000        0.0000000000000000     
  0.37500000000000000       0.50000000000000000        0.0000000000000000     
  0.37500000000000000       0.56250000000000000        0.0000000000000000     
  0.28749999999999998       0.53749999999999998        0.0000000000000000     
  0.33124999999999999       0.54374999999999996        0.0000000000000000     
  0.33750000000000002       0.58750000000000002        0.0000000000000000     
  0.29375000000000001       0.58125000000000004        0.0000000000000000     
  0.43750000000000000       0.50000000000000000        0.0000000000000000     
  0.50000000000000000       0.50000000000000000        0.0000000000000000     
  0.50000000000000000       0.56250000000000000        0.0000000000000000     
  0.41249999999999998       0.53749999999999998        0.0000000000000000     
  0.45624999999999999       0.54374999999999996        0.0000000000000000     
  0.46250000000000002       0.58750000000000002        0.0000000000000000     
  0.41875000000000001       0.58125000000000004        0.0000000000000000     
  0.56250000000000000       0.87500000000000000        0.0000000000000000     
  0.62500000000000000       0.87500000000000000        0.0000000000000000     
  0.62500000000000000       0.93750000000000000        0.0000000000000000     
  0.53749999999999998       0.91249999999999998        0.0000000000000000     
  0.58125000000000004       0.91874999999999996        0.0000000000000000     
  0.58750000000000002       0.96250000000000002        0.0000000000000000     
  0.54374999999999996       0.95625000000000004        0.0000000000000000     
  0.68750000000000000       0.87500000000000000        0.0000000000000000     
  0.75000000000000000       0.87500000000000000        0.0000000000000000     
  0.75000000000000000       0.93750000000000000        0.0000000000000000     
  0.66249999999999998       0.91249999999999998        0.0000000000000000     
  0.70625000000000004       0.91874999999999996        0.0000000000000000     
  0.71250000000000002       0.96250000000000002        0.0000000000000000     
[...]
 CELL_DATA         896
 SCALARS VEGF float
 LOOKUP_TABLE default
    0.13374514709676437030E-05
    0.13224522172799029194E-05
    0.14990354718932777604E-05
    0.14894884412625670729E-05
    0.13168320271477088487E-05
    0.13451893073560010833E-05
    0.11908559007244664468E-05
    0.12466448081231079493E-05
    0.12018711132875569014E-05
    0.11858265191247216809E-05
    0.12410681871340448395E-05
    0.12030808962903274428E-05
    0.12967330818688282147E-05
    0.12958631207838152785E-05
    0.22266462143563108953E-05
    0.23218600742574708753E-05
    0.34873174539994774314E-05
    0.31165962287954492996E-05
    0.21089261227835443736E-05
    0.18949852835007319362E-05
    0.15413891225281077893E-05
    0.15353533611506370374E-05
    0.13420849396734459661E-05
    0.13826317391166168975E-05
    0.15289012086322413004E-05
    0.16358284117607282414E-05
    0.18071252375401037726E-05
    0.17813985833261157829E-05
    0.18872115747646176620E-05
    0.21148589036482787481E-05
    0.31268920086480944430E-05
    0.34796343898045015405E-05
    0.23200609221572791359E-05
    0.22279607730469747514E-05
    0.16330180294133050064E-05
    0.15335669441811227151E-05
    0.13873671921735613322E-05
    0.13222348637533455582E-05
    0.15285820429862859472E-05
    0.15531799527839051963E-05
    0.17826242094295923788E-05
    0.18074482835049643763E-05
    0.92016074630086657708E-05
    0.12600697210447300473E-04
    0.25545787352235235584E-04
    0.25537284932742577938E-04
    0.12598173475570565160E-04
    0.92022716889572892896E-05
    0.47277830970162010519E-05
    0.45399370147398910631E-05
    0.26626814522479417809E-05
    0.26494039414959269870E-05
    0.45371728792285031558E-05
    0.47322751412674361713E-05
    0.74448329019824304055E-05
    0.74440212840811211144E-05
    0.68379714948427001007E-05
    0.60061164034712673994E-05
    0.96435494881642464920E-05
    0.71589789348423899461E-05
    0.41112459780676807313E-05
    0.30252821918467487170E-05
    0.23694656591090173527E-05
    0.24300571516783742133E-05
    0.19591642895717237036E-05
    0.20377843728540792598E-05
    0.28737061111121695521E-05
    0.37187125261066219491E-05
    0.36317620813930568400E-05
    0.33088665880712123030E-05
    0.15304627816500746473E-04
    0.10902198045602146397E-04
    0.15688298725895914086E-04
    0.10279329088179540967E-04
    0.58157730553470967988E-05
    0.37771483427029675039E-05
    0.30815641168312791093E-05
    0.34673022829561098780E-05
    0.28846621254123629852E-05
    0.31989039105423212948E-05
    0.51672987703670143398E-05
    0.80325517582463363354E-05
    0.60412125418586139347E-05
    0.50982115701532578999E-05
    0.84736871428293765647E-04
    0.81993671729020510151E-04
    0.15371282375617090926E-03
    0.11150461161911216280E-03
    0.52589490892874934003E-04
    0.29326861197626791797E-04
    0.14777604571343191004E-04
    0.18181111699098325768E-04
    0.96635194210436390667E-05
    0.11514079911067792369E-04
    0.26314369461362974867E-04
    0.36452475412247508670E-04
    0.40577370655589393078E-04
    0.35352368242620061474E-04
    0.27884993704364971793E-03
    0.19568354687759812794E-03
    0.29767599583040052057E-03
    0.18635401252283472330E-03
    0.91684152648526250377E-04
    0.44536767733806665009E-04
    0.24712235821648924366E-04
    0.37371716822447386102E-04
    0.22988664633072076305E-04
    0.32731495694223632564E-04
    0.75827953733872968602E-04
    0.13140933002480097332E-03
    0.94734959217414053327E-04
    0.74882901625401623587E-04
    0.30175106866047136818E-05
    0.41171896142325181271E-05
    0.71692839929010334886E-05
    0.96358893244280592811E-05
    0.60043895563802333800E-05
    0.68394816948047255516E-05
    0.37163240799773346670E-05
    0.28784986648878407429E-05
    0.20425249077377972102E-05
    0.19393159563493660170E-05
    0.24232943119060346787E-05
    0.23812589349129315552E-05
    0.33101210648377325704E-05
    0.36321384069127611216E-05
    0.29326192592094063778E-04
    0.52591998154032618031E-04
    0.11151302911231782285E-03
    0.15370407778942719347E-03
    0.81991158217253719211E-04
    0.84737733460639783458E-04
    0.36448462487976932293E-04
    0.26317384052396715474E-04
    0.11527722004750863750E-04
    0.96504387921156056720E-05
    0.18178422038400525451E-04
    0.14782118325424791025E-04
    0.35353226349729011124E-04
    0.40576633730620178641E-04
    0.37693758809075433181E-05
    0.58217152489114404142E-05
    0.10289631490495751664E-04
    0.15680634340536884108E-04
    0.10900470224609291609E-04
    0.15306138549588389584E-04
    0.80301675918405290741E-05
    0.51720919672462250413E-05
    0.32036448946323623239E-05
    0.28648134233173647869E-05
    0.34605387716569556620E-05
    0.30933566026825821512E-05
    0.50994652194943997740E-05
    0.60415882976601453978E-05
    0.44536074104067786817E-04
    0.91686600169177569350E-04
    0.18636227232133245136E-03
    0.29766694102224805886E-03
    0.19568099599910979006E-03
    0.27885090977080830487E-03
    0.13140530304850444243E-03
    0.75830955897418590088E-04
    0.32745129955353579113E-04
    0.22975582150418043508E-04
    0.37369019383799409906E-04
    0.24716740697341235439E-04
    0.74883738325830901360E-04
    0.94734204935914759888E-04
    0.52781213761400158201E-03
    0.93186157897927562963E-03
    0.17498286231988780665E-02
    0.17498204092521976900E-02
    0.93186268626557994341E-03
    0.52781473646889751593E-03
    0.24773103410255498504E-03
    0.29223780577491780507E-03
    0.12421781627338583220E-03
    0.12420435786249735851E-03
    0.29223458004641085376E-03
    0.24773449155771808334E-03
    0.58992898916378948629E-03
    0.58992892908109459058E-03
    0.30990851928106664254E-02
    0.28391522037883197213E-02
    0.35713558460179757430E-02
    0.29557861185290916668E-02
    0.16664355795656643055E-02
    0.86967794077298177582E-03
    0.48377462083514980286E-03
    0.74723002083853390116E-03
    0.43018670925308881339E-03
    0.59743376632485434632E-03
    0.13680793831356678498E-02
    0.20427244020705748531E-02
    0.16841280812532261665E-02
    0.14120426670125357706E-02
    0.86967291107426360295E-03
    0.16664318128186673094E-02
    0.29557845249294084633E-02
    0.35713445652655775690E-02
    0.28391552690250829172E-02
    0.30990957929023974469E-02
    0.20427229823166306692E-02
    0.13680824198985088239E-02
    0.59744575154829532727E-03
    0.43017335777745458391E-03
    0.74722724898087285877E-03
    0.48377735434769535095E-03
    0.14120424651528483851E-02
    0.16841281013118343697E-02
    0.48503791973293370471E-02
    0.52655474755427568445E-02
    0.56877766317692179596E-02
    0.56877696853690753662E-02
    0.52655517971159724461E-02
    0.48503907007723216782E-02
    0.41259929117880905433E-02
    0.43218909062618807507E-02
    0.35574990134066009073E-02
    0.35574925949854101052E-02
    0.43218910704490732383E-02
    0.41259932697401803872E-02
    0.49441407293113054378E-02
    0.49441406332156930675E-02
    0.18230565191485084795E-04
    0.11122182459345431052E-04
    0.13535249319463735600E-04
    0.82465630087133826032E-05
    0.50200519038894414822E-05
    0.31810685640836239844E-05
    0.28137067271040357626E-05
    0.34574827599290356530E-05
    0.31759169922395097562E-05
    0.37606524783006878397E-05
    0.60443945809276250879E-05
    0.10392446006199857462E-04
    0.62342266173384742106E-05
    0.50260099944004063140E-05
    0.11160907153593969311E-04
    0.62326849467081863317E-05
    0.61542056478433603524E-05
    0.38377772837498272236E-05
    0.27877899937616255881E-05
    0.20042452628772392892E-05
    0.19050769799925121361E-05
    0.23976860486890173984E-05
    0.24409079478677546835E-05
    0.29758546193118478672E-05
    0.42705293923335225286E-05
    0.74807021682747974333E-05
    0.38945598709756848238E-05
    0.31563414651391634098E-05
    0.35303774780407089218E-03
    0.20304034194012644918E-03
    0.24808522000905784081E-03
    0.13822902365156081997E-03
    0.73722934941186790019E-04
    0.32691933580002837322E-04
    0.21023903401868387019E-04
    0.37480400683904147052E-04
    0.27750323837638481633E-04
    0.44357605416025067569E-04
    0.96938757127622383002E-04
    0.18907740874254667820E-03
    0.10023552286691468714E-03
    0.73919039297137072403E-04
    0.17927243669601375582E-03
    0.86174174229613895908E-04
    0.74480607424334509801E-04
    0.38728291720032142662E-04
    0.24856392311490853368E-04
    0.10948597826166433540E-04
    0.88633316587253479590E-05
    0.17672058985150578258E-04
    0.16614175787404246096E-04
    0.28809329611127659277E-04
    0.55917111804585677083E-04
    0.11886214620545369682E-03
    0.46139023724939832159E-04
    0.32261745981789424157E-04
    0.37929445603741933211E-05
    0.23690404664641987643E-05
    0.21065582537789721033E-05
    0.16546451657143130958E-05
    0.15008316873032640050E-05
    0.13733142529244022855E-05
    0.13016743493745247051E-05
    0.15127155702152631331E-05
    0.15764286228210984057E-05
    0.18423090166443483540E-05
    0.21435523476554558437E-05
    0.32616934027007008440E-05
    0.19031867952886746566E-05
    0.16972437058801657687E-05
    0.15227533794675713209E-05
    0.13248129968790884109E-05
    0.13267624094723352775E-05
    0.12088269827526133539E-05
    0.12353917180417185812E-05
    0.11776463466153352838E-05
    0.11643198375682658053E-05
    0.12402172248665742216E-05
    0.12187763248565262459E-05
    0.13209708880126646193E-05
    0.13193258795250746411E-05
    0.15216268905208300726E-05
    0.13029435519663417297E-05
    0.12864027282560301351E-05
    0.27950052015052585883E-04
    0.13127695292483759125E-04
    0.86122374306485976239E-05
    0.50666606238635205608E-05
    0.43031153175729152061E-05
    0.25152149790612911885E-05
    0.25101813884281530800E-05
    0.43051124743457857582E-05
    0.50765696262571688994E-05
    0.86004425361930582822E-05
    0.13124457700977011588E-04
    0.27950302031422999080E-04
    0.88019859452200395852E-05
    0.63419410415823676701E-05
    0.32637516275611071937E-05
    0.21502753699289968229E-05
    0.18489285606311084110E-05
    0.15679959919891845849E-05
    0.15119318430932543853E-05
    0.13237969509510543993E-05
    0.13650985664182311477E-05
    0.15081314636814091065E-05
    0.16670444917253975497E-05
    0.20959581835678508438E-05
    0.23671493982567742305E-05
    0.37941439870219142474E-05
    0.19058239649307540360E-05
    0.16998342290236584605E-05
    0.37814802741164836759E-02
    0.28967097696756694686E-02
    0.29344056592712276267E-02
    0.21301312213357816855E-02
    0.13561762488867640155E-02
    0.59565301160187855353E-03
    0.39927636387837090641E-03
    0.76775673318265063184E-03
    0.54979056765110188420E-03
    0.86934715783913978516E-03
    0.17650984336187571042E-02
    0.29536430330283779296E-02
    0.18692468943639849698E-02
    0.14458554789069861298E-02
    0.18173500840073747529E-02
    0.94721383687146473111E-03
    0.50726988686821403770E-03
    0.27600457003941968829E-03
    0.26897599966557749537E-03
    0.11154516553582926957E-03
    0.11154053798407645589E-03
    0.26897824860629349552E-03
    0.27601570110894212183E-03
    0.50726063086232423167E-03
    0.94721490693200382279E-03
    0.18173581865503468224E-02
    0.69072036623962817029E-03
    0.49005640719529484223E-03
    0.56898814056169913153E-02
    0.53049133819211601384E-02
    0.48569097966280651291E-02
    0.43302375333542642011E-02
    0.43114590560295717320E-02
    0.33957769738370635962E-02
    0.33957721343237674133E-02
    0.43114550356078504972E-02
    0.43302374196759483085E-02
    0.48568960559746748515E-02
    0.53049141246033805486E-02
    0.56898897779714468700E-02
    0.51071225753009340254E-02
    0.48149307369773032203E-02
    0.29536316764429723473E-02
    0.17650961561468305611E-02
    0.86935605116823528715E-03
    0.54978021324758249988E-03
    0.76775475908527396254E-03
    0.39928032797782432800E-03
    0.59564601370923223132E-03
    0.13561708705042870016E-02
    0.21301314307585385993E-02
    0.29343919023828790929E-02
    0.28967098442003931004E-02
    0.37814879044289323971E-02
    0.18692452954618761669E-02
    0.14458530957049723579E-02
    0.11886171279905994225E-03
    0.55920305764602486805E-04
    0.28821115770164621166E-04
    0.16604294113164638351E-04
    0.17670171551858315914E-04
    0.88686513785509770558E-05
    0.10944246770170128482E-04
    0.24858735027635936042E-04
    0.38738708300064759722E-04
    0.74469065566378845385E-04
    0.86170926082924738701E-04
    0.17927232759034969077E-03
    0.46139061348610510940E-04
    0.32261852364541356345E-04
    0.74827697990660651693E-05
    0.42772766345760360339E-05
    0.29824843844409585004E-05
    0.24324999222427231528E-05
    0.23969904438364469853E-05
    0.19274086413352339011E-05
    0.19965092141014551013E-05
    0.27953811705893058523E-05
    0.38506769605720543931E-05
    0.61438761462441269961E-05
    0.62308955297655374824E-05
    0.11162137375785024187E-04
    0.38972713354830805011E-05
    0.31590404004361480295E-05
    0.18907711812107968227E-03
    0.96942002086066340135E-04
    0.44369408677393068984E-04
    0.27740452478647386833E-04
    0.37478517848133897190E-04
    0.21029219181451049481E-04
    0.32687565845479447653E-04
    0.73725214246076801691E-04
    0.13823924900978638505E-03
    0.24807337086736022712E-03
    0.20303716847638972765E-03
    0.35303816038111297555E-03
    0.10023558948854604871E-03
    0.73919148702910968639E-04
    0.10394515272185048417E-04
    0.60511417675526118823E-05
    0.37672819187638320424E-05
    0.31675082307278729385E-05
    0.34567859613675295932E-05
    0.28360375448017419507E-05
    0.31733357323920189066E-05
    0.50276427148124347069E-05
    0.82594642602808030938E-05
    0.13524918483102409792E-04
    0.11120394174151864233E-04
    0.18231801689419990450E-04
    0.62369375784270563283E-05
    0.50287079494524034276E-05
    0.31732952879758087655E-05
    0.50259931162610130398E-05
    0.82568641894314160045E-05
    0.13527583366245281993E-04
    0.11120452277796344037E-04
    0.18232070743066343605E-04
    0.10390059271912719519E-04
    0.60491863935888858035E-05
    0.37653925268351090273E-05
    0.31560676127676536618E-05
    0.34507185554734367023E-05
    0.28254985905703090399E-05
    0.50272626029177117007E-05
    0.62346010651272823057E-05
    0.32691246489361490001E-04
    0.73725403921257555494E-04
    0.13823736895658114612E-03
    0.24807642593381964199E-03
    0.20303775804205316090E-03
    0.35303837492274575292E-03
    0.18907323118757895196E-03
    0.96941706743348244170E-04
    0.44371215949655732887E-04
    0.27737231832901853358E-04
    0.37477696817422102892E-04
    0.21028407334990457483E-04
    0.73919866564880001587E-04
    0.10023474516840685420E-03
    0.19964712869491589579E-05
    0.27937308786468210650E-05
    0.38480807842336085266E-05
    0.61465432432945597228E-05
    0.62309540437407298706E-05
    0.11162411166109969556E-04
    0.74783140393067824568E-05
    0.42753200337761351228E-05
    0.29805937685705488402E-05
    0.24210574170186563266E-05
    0.23909203741295247361E-05
    0.19168672695209040648E-05
    0.31575928616160867629E-05
    0.38949330489104623702E-05
    0.10947943398031320650E-04
    0.24858932862440779118E-04
    0.38736812899085335340E-04
    0.74472149058343645091E-04
    0.86171670455869369613E-04
    0.17927305748407780343E-03
    0.11885799857766558797E-03
    0.55920077365914381477E-04
    0.28822946721637295904E-04
    0.16601084258065706501E-04
    0.17669364614570598173E-04
    0.88678455145017930848E-05
    0.32262603306296681752E-04
    0.46138276388821766326E-04
    0.59565028470625919644E-03
    0.13561749014867510547E-02
    0.21301397447321466887E-02
    0.29343989408646422266E-02
    0.28967130962472588396E-02
    0.37814886522128192924E-02
    0.29536343827640991824E-02
    0.17650981661336891549E-02
    0.86935629636793838523E-03
    0.54977641789714535789E-03
    0.76775386713261650415E-03
    0.39927977102761864686E-03
    0.14458554577952533252E-02
    0.18692463278058850558E-02
    0.33957667750617809635E-02
    0.43114551331108995347E-02
    0.43302447042201279784E-02
    0.48569029021029294299E-02
    0.53049172795335847869E-02
    0.56898918056111132818E-02
    0.56898868043875651390E-02
    0.53049128252732943162E-02
    0.48569014891700935943E-02
    0.43302297619021018482E-02
    0.43114554568146352259E-02
    0.33957750244755298581E-02
    0.48149307608226282404E-02
    0.51071221068693462355E-02
    0.11154438897609008144E-03
    0.26897883040250301174E-03
    0.27601408011671837127E-03
    0.50726401455894367786E-03
    0.94721747890593908318E-03
    0.18173603943880246945E-02
    0.18173566488994296383E-02
    0.94721774011536968765E-03
    0.50727236927041699684E-03
    0.27600175763642874859E-03
    0.26897559033321814630E-03
    0.11154464417664095857E-03
    0.49005829771246311056E-03
    0.69072164283125365731E-03
    0.39927977771694357634E-03
    0.76775706419610024664E-03
    0.54978937568125733383E-03
    0.86935053144599773976E-03
    0.17650996585438815441E-02
    0.29536420651309932932E-02
    0.37814851820210295535E-02
    0.28967097146801183867E-02
    0.29343983984322719386E-02
    0.21301247141843797708E-02
    0.13561739606726423615E-02
    0.59565213068221158858E-03
    0.14458563639011977244E-02
    0.18692469956135384160E-02
    0.13656416917718247178E-05
    0.15068624305279232455E-05
    0.16651536306570261895E-05
    0.20990188901056354458E-05
    0.23673530646598665949E-05
    0.37944673184243779871E-05
    0.32593102993091683557E-05
    0.21483500786521831909E-05
    0.18470490565842716034E-05
    0.15565812714399054867E-05
    0.15059681173071931512E-05
    0.13135054189189313959E-05
    0.16985263528422046527E-05
    0.19035835386130175161E-05
    0.25149509881771308300E-05
    0.43058797423663715330E-05
    0.50755167059031606073E-05
    0.86039372826498972943E-05
    0.13125331163372402273E-04
    0.27950962772517666495E-04
    0.27946308666641996217E-04
    0.13127500649592443023E-04
    0.86140952486811270944E-05
    0.50635047825957365630E-05
    0.43024910375917917296E-05
    0.25148455149592061319E-05
    0.63429001134969971768E-05
    0.88013293997702768748E-05
    0.11649553076115095534E-05
    0.12442759859678699423E-05
    0.12293717037090741366E-05
    0.13241265094070891974E-05
    0.13251468845711005863E-05
    0.15252662042509032754E-05
    0.15196322364859403343E-05
    0.13245942102060673962E-05
    0.13258817204650109805E-05
    0.11991201894373700721E-05
    0.12338919410627948336E-05
    0.11764827639115236282E-05
    0.12888466441324673295E-05
    0.13044138684300037607E-05
    0.13130872633566314022E-05
    0.15220879012635018406E-05
    0.15889756106470721739E-05
    0.18464685415197499427E-05
    0.21507454352608503302E-05
    0.32659076440164728090E-05
    0.37907756562012469608E-05
    0.23713485893964813316E-05
    0.21102912132986025515E-05
    0.16551289365115335499E-05
    0.15088910522272343874E-05
    0.13753596317883206336E-05
    0.17046570396391988801E-05
    0.19078242829348232156E-05
    0.88682107556406518985E-05
    0.17672863349516223120E-04
    0.16613130468923582921E-04
    0.28812821977324029989E-04
    0.55917990958020055421E-04
    0.11886280307388309729E-03
    0.17926886050430334337E-03
    0.86174058469855603745E-04
    0.74482573749654092652E-04
    0.38725311832455879674E-04
    0.24855882001267877283E-04
    0.10948465589360662268E-04
    0.32262747020878353014E-04
    0.46138400808006675279E-04
    0.21028776433214677646E-04
    0.37481206394081705295E-04
    0.27749286155540630087E-04
    0.44361111857069177673E-04
    0.96939676268685976692E-04
    0.18907817183207119012E-03
    0.35303453193482578530E-03
    0.20304026038417562726E-03
    0.24808692838182444269E-03
    0.13822595950008592322E-03
    0.73722397589487018935E-04
    0.32691792450748009347E-04
    0.73920043568069681195E-04