# vtk DataFile Version 3.0
LAPLACIEN  2D
ASCII
DATASET UNSTRUCTURED_GRID
 POINTS         481  float
   6.2500000000000000E-002  0.87500000000000000        0.0000000000000000     
  0.12500000000000000       0.87500000000000000        0.0000000000000000     
  0.12500000000000000       0.93750000000000000        0.0000000000000000     
   3.7499999999999999E-002  0.91249999999999998        0.0000000000000000     
   8.1250000000000003E-002  0.91874999999999996        0.0000000000000000     
   8.7499999999999994E-002  0.96250000000000002        0.0000000000000000     
   4.3749999999999997E-002  0.95625000000000004        0.0000000000000000     
  0.18750000000000000       0.87500000000000000        0.0000000000000000     
  0.25000000000000000       0.87500000000000000        0.0000000000000000     
  0.25000000000000000       0.93750000000000000        0.0000000000000000     
  0.16250000000000001       0.91249999999999998        0.0000000000000000     
  0.20624999999999999       0.91874999999999996        0.0000000000000000     
  0.21249999999999999       0.96250000000000002        0.0000000000000000     
  0.16875000000000001       0.95625000000000004        0.0000000000000000     
   6.2500000000000000E-002  0.75000000000000000        0.0000000000000000     
  0.12500000000000000       0.75000000000000000        0.0000000000000000     
  0.12500000000000000       0.81250000000000000        0.0000000000000000     
   3.7499999999999999E-002  0.78749999999999998        0.0000000000000000     
   8.1250000000000003E-002  0.79374999999999996        0.0000000000000000     
   8.7499999999999994E-002  0.83750000000000002        0.0000000000000000     
   4.3749999999999997E-002  0.83125000000000004        0.0000000000000000     
  0.18750000000000000       0.75000000000000000        0.0000000000000000     
  0.25000000000000000       0.75000000000000000        0.0000000000000000     
  0.25000000000000000       0.81250000000000000        0.0000000000000000     
  0.16250000000000001       0.78749999999999998        0.0000000000000000     
  0.20624999999999999       0.79374999999999996        0.0000000000000000     
  0.21249999999999999       0.83750000000000002        0.0000000000000000     
  0.16875000000000001       0.83125000000000004        0.0000000000000000     
  0.31250000000000000       0.87500000000000000        0.0000000000000000     
  0.37500000000000000       0.87500000000000000        0.0000000000000000     
  0.37500000000000000       0.93750000000000000        0.0000000000000000     
  0.28749999999999998       0.91249999999999998        0.0000000000000000     
  0.33124999999999999       0.91874999999999996        0.0000000000000000     
  0.33750000000000002       0.96250000000000002        0.0000000000000000     
  0.29375000000000001       0.95625000000000004        0.0000000000000000     
  0.43750000000000000       0.87500000000000000        0.0000000000000000     
  0.50000000000000000       0.87500000000000000        0.0000000000000000     
  0.50000000000000000       0.93750000000000000        0.0000000000000000     
  0.41249999999999998       0.91249999999999998        0.0000000000000000     
  0.45624999999999999       0.91874999999999996        0.0000000000000000     
  0.46250000000000002       0.96250000000000002        0.0000000000000000     
  0.41875000000000001       0.95625000000000004        0.0000000000000000     
  0.31250000000000000       0.75000000000000000        0.0000000000000000     
  0.37500000000000000       0.75000000000000000        0.0000000000000000     
  0.37500000000000000       0.81250000000000000        0.0000000000000000     
  0.28749999999999998       0.78749999999999998        0.0000000000000000     
  0.33124999999999999       0.79374999999999996        0.0000000000000000     
  0.33750000000000002       0.83750000000000002        0.0000000000000000     
  0.29375000000000001       0.83125000000000004        0.0000000000000000     
  0.43750000000000000       0.75000000000000000        0.0000000000000000     
  0.50000000000000000       0.75000000000000000        0.0000000000000000     
  0.50000000000000000       0.81250000000000000        0.0000000000000000     
  0.41249999999999998       0.78749999999999998        0.0000000000000000     
  0.45624999999999999       0.79374999999999996        0.0000000000000000     
  0.46250000000000002       0.83750000000000002        0.0000000000000000     
  0.41875000000000001       0.83125000000000004        0.0000000000000000     
   6.2500000000000000E-002  0.62500000000000000        0.0000000000000000     
  0.12500000000000000       0.62500000000000000        0.0000000000000000     
  0.12500000000000000       0.68750000000000000        0.0000000000000000     
   3.7499999999999999E-002  0.66249999999999998        0.0000000000000000     
   8.1250000000000003E-002  0.66874999999999996        0.0000000000000000     
   8.7499999999999994E-002  0.71250000000000002        0.0000000000000000     
   4.3749999999999997E-002  0.70625000000000004        0.0000000000000000     
  0.18750000000000000       0.62500000000000000        0.0000000000000000     
  0.25000000000000000       0.62500000000000000        0.0000000000000000     
  0.25000000000000000       0.68750000000000000        0.0000000000000000     
  0.16250000000000001       0.66249999999999998        0.0000000000000000     
  0.20624999999999999       0.66874999999999996        0.0000000000000000     
  0.21249999999999999       0.71250000000000002        0.0000000000000000     
  0.16875000000000001       0.70625000000000004        0.0000000000000000     
   6.2500000000000000E-002  0.50000000000000000        0.0000000000000000     
  0.12500000000000000       0.50000000000000000        0.0000000000000000     
  0.12500000000000000       0.56250000000000000        0.0000000000000000     
   3.7499999999999999E-002  0.53749999999999998        0.0000000000000000     
   8.1250000000000003E-002  0.54374999999999996        0.0000000000000000     
   8.7499999999999994E-002  0.58750000000000002        0.0000000000000000     
   4.3749999999999997E-002  0.58125000000000004        0.0000000000000000     
  0.18750000000000000       0.50000000000000000        0.0000000000000000     
  0.25000000000000000       0.50000000000000000        0.0000000000000000     
  0.25000000000000000       0.56250000000000000        0.0000000000000000     
  0.16250000000000001       0.53749999999999998        0.0000000000000000     
  0.20624999999999999       0.54374999999999996        0.0000000000000000     
  0.21249999999999999       0.58750000000000002        0.0000000000000000     
  0.16875000000000001       0.58125000000000004        0.0000000000000000     
  0.31250000000000000       0.62500000000000000        0.0000000000000000     
  0.37500000000000000       0.62500000000000000        0.0000000000000000     
  0.37500000000000000       0.68750000000000000        0.0000000000000000     
  0.28749999999999998       0.66249999999999998        0.0000000000000000     
  0.33124999999999999       0.66874999999999996        0.0000000000000000     
  0.33750000000000002       0.71250000000000002        0.0000000000000000     
  0.29375000000000001       0.70625000000000004        0.0000000000000000     
  0.43750000000000000       0.62500000000000000        0.0000000000000000     
  0.50000000000000000       0.62500000000000000        0.0000000000000000     
  0.50000000000000000       0.68750000000000000        0.0000000000000000     
  0.41249999999999998       0.66249999999999998        0.0000000000000000     
  0.45624999999999999       0.66874999999999996        0.0000000000000000     
  0.46250000000000002       0.71250000000000002        0.0000000000000000     
  0.41875000000000001       0.70625000000000004        0.0000000000000000     
  0.31250000000000000       0.50000000000000000        0.0000000000000000     
  0.37500000000000000       0.50000000000000000        0.0000000000000000     
  0.37500000000000000       0.56250000000000000        0.0000000000000000     
  0.28749999999999998       0.53749999999999998        0.0000000000000000     
  0.33124999999999999       0.54374999999999996        0.0000000000000000     
  0.33750000000000002       0.58750000000000002        0.0000000000000000     
  0.29375000000000001       0.58125000000000004        0.0000000000000000     
  0.43750000000000000       0.50000000000000000        0.0000000000000000     
  0.50000000000000000       0.50000000000000000        0.0000000000000000     
  0.50000000000000000       0.56250000000000000        0.0000000000000000     
  0.41249999999999998       0.53749999999999998        0.0000000000000000     
  0.45624999999999999       0.54374999999999996        0.0000000000000000     
  0.46250000000000002       0.58750000000000002        0.0000000000000000     
  0.41875000000000001       0.58125000000000004        0.0000000000000000     
  0.56250000000000000       0.87500000000000000        0.0000000000000000     
  0.62500000000000000       0.87500000000000000        0.0000000000000000     
  0.62500000000000000       0.93750000000000000        0.0000000000000000     
  0.53749999999999998       0.91249999999999998        0.0000000000000000     
  0.58125000000000004       0.91874999999999996        0.0000000000000000     
  0.58750000000000002       0.96250000000000002        0.0000000000000000     
  0.54374999999999996       0.95625000000000004        0.0000000000000000     
  0.68750000000000000       0.87500000000000000        0.0000000000000000     
  0.75000000000000000       0.87500000000000000        0.0000000000000000     
  0.75000000000000000       0.93750000000000000        0.0000000000000000     
  0.66249999999999998       0.91249999999999998        0.0000000000000000     
  0.70625000000000004       0.91874999999999996        0.0000000000000000     
  0.71250000000000002       0.96250000000000002        0.0000000000000000     
[...]
 CELL_DATA         896
 SCALARS VEGF float
 LOOKUP_TABLE default
    0.15816730899427551179E-06
    0.20744957236569477928E-06
    0.42635246059119064857E-06
    0.42869113082432058477E-06
    0.20850483688892895767E-06
    0.15606534312965034536E-06
    0.94953267087376417274E-07
    0.44218520037690345269E-07
    0.47436072703235373851E-09
    0.50223151627866726671E-08
    0.46145611515764191713E-07
    0.92364540523376727291E-07
    0.96161292446336530914E-07
    0.96185095088851385005E-07
    0.14069851476512811444E-05
    0.15717121454665802990E-05
    0.30381858082654725766E-05
    0.25697414791409246289E-05
    0.12759947878895565226E-05
    0.90211921056496962625E-06
    0.58873591372368018821E-06
    0.48161830931110726160E-06
    0.26887621336448424292E-06
    0.22463604566286755486E-06
    0.50714247186816238644E-06
    0.61842749886614189415E-06
    0.83086867571601932968E-06
    0.78421757054982554047E-06
    0.90410005067282656489E-06
    0.12746147597876935327E-05
    0.25669230037798332179E-05
    0.30393703986319247470E-05
    0.15707013241846256420E-05
    0.14054135091700519292E-05
    0.61783511543654611027E-06
    0.50546972903110099397E-06
    0.22389369224721035155E-06
    0.27382552410916870335E-06
    0.48334946191618064129E-06
    0.58601315353955961054E-06
    0.78362255166300928328E-06
    0.82998777435956602332E-06
    0.10308899788710723498E-04
    0.14598418759930233428E-04
    0.30588570260599679625E-04
    0.30590267226710313696E-04
    0.14597934341275528363E-04
    0.10307754370364880704E-04
    0.46381343433055343856E-05
    0.44405499663710235896E-05
    0.19694969750099696693E-05
    0.19713887813842918051E-05
    0.44407157700237380232E-05
    0.46376094358217692328E-05
    0.80876720061454041868E-05
    0.80877126857367863584E-05
    0.73207519590685827458E-05
    0.63008510565635610990E-05
    0.10845233884798676297E-04
    0.77213664099200233690E-05
    0.38620974774515065716E-05
    0.23766411110554052575E-05
    0.16826947713265371144E-05
    0.16643311324772405490E-05
    0.10966508938496251590E-05
    0.11036494159608963123E-05
    0.22735664039054679744E-05
    0.33343239255483312905E-05
    0.32044158816538447271E-05
    0.27769450140005777425E-05
    0.17897262392814065256E-04
    0.12406618787274444185E-04
    0.18260511189489194296E-04
    0.11541944173943478259E-04
    0.59847947055459335122E-05
    0.33175405698620386579E-05
    0.25918770059044529207E-05
    0.29938257606751257974E-05
    0.23007485102537548186E-05
    0.26112006637743719783E-05
    0.51988839834672635276E-05
    0.88027266056545365214E-05
    0.62462755749203668736E-05
    0.50398154768670163945E-05
    0.10194746377551170584E-03
    0.98922093683415109988E-04
    0.18426540146750564108E-03
    0.13496043256586964776E-03
    0.63746767930758664990E-04
    0.35291880675936125893E-04
    0.17274607771552216441E-04
    0.21544126189821683089E-04
    0.10878744277791122969E-04
    0.13212198338305099581E-04
    0.31568947646458571442E-04
    0.43842374538182130191E-04
    0.48972722283259079439E-04
    0.42662646209891897568E-04
    0.33622279713024078290E-03
    0.23662303186340323362E-03
    0.35823504722471045817E-03
    0.22450434736476733888E-03
    0.11084209085519475322E-03
    0.53505037984234942274E-04
    0.29385086716205113024E-04
    0.45075168478762345128E-04
    0.27427732891719494330E-04
    0.39485059710619788956E-04
    0.92142785477870286907E-04
    0.15927234112883125339E-03
    0.11493558789911445083E-03
    0.90806282292911063236E-04
    0.23786152008815864443E-05
    0.38607042184188112012E-05
    0.77185378906885851615E-05
    0.10846400629253356539E-04
    0.62997930583346875279E-05
    0.73190665184076030873E-05
    0.33334751967003858745E-05
    0.22717953735269701643E-05
    0.11028292958299043724E-05
    0.11015554298966451102E-05
    0.16660377948409151456E-05
    0.16799607370617262453E-05
    0.27763214895273948171E-05
    0.32034920641981340531E-05
    0.35293023769537996395E-04
    0.63747253197402305798E-04
    0.13495876765605153676E-03
    0.18426721946850706420E-03
    0.98921591136529656517E-04
    0.10194619496917271307E-03
    0.43842618866654209907E-04
    0.31568638706574967691E-04
    0.13210085568875196059E-04
    0.10880521759929401076E-04
    0.21544245642009004479E-04
    0.17274065656331460359E-04
    0.42662573295500799578E-04
    0.48972715124196165826E-04
    0.33195141919171038135E-05
    0.59834006721598521298E-05
    0.11539114661464478894E-04
    0.18261676384171352108E-04
    0.12405558386663539242E-04
    0.17895572738929454569E-04
    0.88018715362586987265E-05
    0.51971095317796401746E-05
    0.26103764486246153683E-05
    0.23056505774910228602E-05
    0.29955310885716829307E-05
    0.25891422979426938074E-05
    0.50391905926689592365E-05
    0.62453498799525803870E-05
    0.53506179832806583690E-04
    0.11084257149058847488E-03
    0.22450266932733014603E-03
    0.35823683714525470520E-03
    0.23662248592827835416E-03
    0.33622146527337331461E-03
    0.15927258516378221885E-03
    0.92142473736854432200E-04
    0.39482945645794355631E-04
    0.27429506965011316662E-04
    0.45075283274893733596E-04
    0.29384542638301560166E-04
    0.90806200806408540424E-04
    0.11493556692340191024E-03
    0.62059694590464720403E-03
    0.10662414644166389333E-02
    0.19378321818873968634E-02
    0.19378336690443534723E-02
    0.10662393440689108080E-02
    0.62059462198349468493E-03
    0.29425044627570521617E-03
    0.34456835794258400480E-03
    0.14858037631645736954E-03
    0.14858237444835185014E-03
    0.34456875093503768837E-03
    0.29425049749630762842E-03
    0.68855152321906684231E-03
    0.68855120037548793194E-03
    0.36664346941270016360E-02
    0.34094862640245467839E-02
    0.43362926250665283223E-02
    0.36458705248516988344E-02
    0.20665699043378258498E-02
    0.10448320299582278346E-02
    0.58021654513586715454E-03
    0.89798314851291126306E-03
    0.51646118129062027965E-03
    0.71287900632207462127E-03
    0.16488664338644037390E-02
    0.23339220938990465175E-02
    0.20814615368817965604E-02
    0.17446222937499236173E-02
    0.10448347622814900103E-02
    0.20665705116132858030E-02
    0.36458679685602178241E-02
    0.43362929518408139043E-02
    0.34094819954921733000E-02
    0.36664286888799385578E-02
    0.23339213595549735542E-02
    0.16488663362868361852E-02
    0.71287769468910680212E-03
    0.51646320213387375813E-03
    0.89798305864870870373E-03
    0.58021655477085625017E-03
    0.17446216903589625066E-02
    0.20814603627905790828E-02
    0.58779944962788809384E-02
    0.63412767201106879505E-02
    0.67831798316921017647E-02
    0.67831810628418984579E-02
    0.63412732869942570538E-02
    0.58779891194974684746E-02
    0.50022949640734712395E-02
    0.52152329823184394655E-02
    0.42380774649738005982E-02
    0.42380762457365963453E-02
    0.52152312013391292564E-02
    0.50022946959739390815E-02
    0.59750149573577649581E-02
    0.59750148007286741844E-02
    0.21259865188122697673E-04
    0.12520467345521094925E-04
    0.15383903585075199566E-04
    0.88943079146875741553E-05
    0.49240747002190928233E-05
    0.25282099132419922910E-05
    0.22238214769529855172E-05
    0.29504138961881037417E-05
    0.26524825355961958690E-05
    0.33034203319164245922E-05
    0.62426728968559779378E-05
    0.11644521060664773284E-04
    0.64137383691232744789E-05
    0.48916064244154987812E-05
    0.12425130108159279679E-04
    0.64041449172541636774E-05
    0.62531891924639905464E-05
    0.33925523485947101655E-05
    0.21013294746535707095E-05
    0.10167112407362220338E-05
    0.10459250552582001580E-05
    0.15825853593355265173E-05
    0.16914211489914889866E-05
    0.22778982749520084087E-05
    0.39707650965751512250E-05
    0.79314769148632672900E-05
    0.34478585358247573482E-05
    0.25117567558030026606E-05
    0.41982373358835433719E-03
    0.24170598637280428034E-03
    0.29359546496281565577E-03
    0.16409724167983856091E-03
    0.87757486241090895945E-04
    0.38526366110476465581E-04
    0.24505100387353706602E-04
    0.44550507013717528077E-04
    0.32885324380360802978E-04
    0.53162200479243459700E-04
    0.11638145861025903105E-03
    0.22688360184093691219E-03
    0.11978307656156406981E-03
    0.88271182570257288339E-04
    0.21173131375557929356E-03
    0.10203189314139005539E-03
    0.88211376951306810974E-04
    0.45621921455507398794E-04
    0.29015516195411135230E-04
    0.12120759413688435456E-04
    0.95857535167474745207E-05
    0.20349096703003844810E-04
    0.19054747801376903339E-04
    0.33825718083713648163E-04
    0.66249158130877352081E-04
    0.14103921490817583899E-03
    0.54466724918263624371E-04
    0.37871231150735885028E-04
    0.33309879139242464037E-05
    0.15819097779306018997E-05
    0.12034130732685870314E-05
    0.63289827894658516276E-06
    0.45508911670544329385E-06
    0.19095002286288183331E-06
    0.25529774314951003195E-06
    0.43809537818352964738E-06
    0.57084037853420201728E-06
    0.82118376763543538697E-06
    0.12825394317910156897E-05
    0.26658930760691454624E-05
    0.92883442355809162912E-06
    0.65169552984777868023E-06
    0.45001714210340155813E-06
    0.20424266709352585188E-06
    0.12777167459148085338E-06
    0.82495175096284655174E-07
    0.34134550536596275122E-07
   -0.13914502829610256557E-09
    0.39931034348829149552E-08
    0.34029693363050277986E-07
    0.82451950395544011270E-07
    0.13093993468872315648E-06
    0.20603792803351170576E-06
    0.44982893589533235403E-06
    0.11593924241765091057E-06
    0.64405562855468284159E-07
    0.32710248356823052912E-04
    0.14814269723174385609E-04
    0.92668976873660299667E-05
    0.49166092831988362968E-05
    0.40103028446482589882E-05
    0.17242933785890174621E-05
    0.17250161067156788699E-05
    0.40110636046736064680E-05
    0.49164256723228135824E-05
    0.92702777945852401733E-05
    0.14814694034528348628E-04
    0.32709258230846748191E-04
    0.94983246764267075803E-05
    0.64819438821242456310E-05
    0.26655638442272708730E-05
    0.12800807718416596376E-05
    0.81765632894605554400E-06
    0.57026023192130113013E-06
    0.43644533832963679130E-06
    0.24756489394219454713E-06
    0.19092950086518305261E-06
    0.45331807659900147165E-06
    0.63135677903708217514E-06
    0.12061501225599136630E-05
    0.15815921788099293332E-05
    0.33294680231556069370E-05
    0.92737729173619784237E-06
    0.65029615476586788580E-06
    0.45828817199457709888E-02
    0.34520000920547216916E-02
    0.34440784897319821206E-02
    0.24572993403139632360E-02
    0.16136139577785082663E-02
    0.70207785577319911045E-03
    0.47057821243658913253E-03
    0.90216755077081117135E-03
    0.65211000559822795194E-03
    0.10383618111285688405E-02
    0.21575217360494365962E-02
    0.36469791503949073111E-02
    0.22534520326445450257E-02
    0.17410291904016851443E-02
    0.20748176708975411484E-02
    0.11036283529831192405E-02
    0.59411808287459990253E-03
    0.32492614291003993430E-03
    0.31750393333585441623E-03
    0.13209583394876547370E-03
    0.13209636218486099082E-03
    0.31750461738616576543E-03
    0.32492541106344006519E-03
    0.59412029147705241149E-03
    0.11036264699896725268E-02
    0.20748127998946341334E-02
    0.81041041278632987201E-03
    0.57861516014089955321E-03
    0.67870659060295102094E-02
    0.63900649813416528916E-02
    0.58857835746219441114E-02
    0.52461087616474753187E-02
    0.51933785959077062230E-02
    0.40172992693108880435E-02
    0.40172998335346269544E-02
    0.51933822172899263628E-02
    0.52461130110826323728E-02
    0.58857878263522348666E-02
    0.63900633524638997263E-02
    0.67870610363323811628E-02
    0.61655164120642796249E-02
    0.58140384962238021715E-02
    0.36469841547306725352E-02
    0.21575240629782836861E-02
    0.10383594223990118017E-02
    0.65211055334843165323E-03
    0.90216703361551992425E-03
    0.47057799158426680828E-03
    0.70207965132749756282E-03
    0.16136178027772419500E-02
    0.24573038474784082881E-02
    0.34440831758652109759E-02
    0.34519990936398149521E-02
    0.45828771948352017493E-02
    0.22534528561424615849E-02
    0.17410302936728496749E-02
    0.14104027933325980187E-03
    0.66248743726747240856E-04
    0.33822335288233235432E-04
    0.19054909366574715002E-04
    0.20348270739435657324E-04
    0.95848791838820669687E-05
    0.12121127957502810153E-04
    0.29016094609603505187E-04
    0.45621462199237219166E-04
    0.88214614292306237596E-04
    0.10203229220203824271E-03
    0.21173043628717046097E-03
    0.54466689998429117204E-04
    0.37871165164021081259E-04
    0.79311367715272371924E-05
    0.39682860819081620363E-05
    0.22743582706835016062E-05
    0.16908205266172463533E-05
    0.15808852328314769544E-05
    0.10380929457505059088E-05
    0.10164806973090169893E-05
    0.20994132701686783864E-05
    0.33907431010550825122E-05
    0.62557812064175001096E-05
    0.64037665125935685698E-05
    0.12423586190443414157E-04
    0.34463551320494290588E-05
    0.25102957934246097926E-05
    0.22688463730525103052E-03
    0.11638104302005324096E-03
    0.53158818296390203818E-04
    0.32885486039081948250E-04
    0.44549684513854849119E-04
    0.24504227337885923946E-04
    0.38526740237194129050E-04
    0.87758098442702756276E-04
    0.16409686925735218342E-03
    0.29359885491647810850E-03
    0.24170637942536125345E-03
    0.41982269165403551109E-03
    0.11978304732147231732E-03
    0.88271128100361965075E-04
    0.11644181273957718533E-04
    0.62401935963489852473E-05
    0.32998799261302247267E-05
    0.26518811382681519424E-05
    0.29487119843594952774E-05
    0.22159855436731216360E-05
    0.25279717633728269918E-05
    0.49221545905449546216E-05
    0.88924935318644211828E-05
    0.15386494700583718172E-04
    0.12520088066222383741E-04
    0.21258320819557479454E-04
    0.64122339210595615653E-05
    0.48901437935120880895E-05
    0.25301831902825982956E-05
    0.49226802340660223871E-05
    0.88914777565336431520E-05
    0.15385067468453752614E-04
    0.12519406006215696008E-04
    0.21258174063825299418E-04
    0.11643665101657071768E-04
    0.62408979367898573400E-05
    0.33025957321460358080E-05
    0.26573843175938098333E-05
    0.29521189462076784849E-05
    0.22210865290281460055E-05
    0.48909811400954521812E-05
    0.64128121739625672251E-05
    0.38527502779294338895E-04
    0.87757957460770518896E-04
    0.16409554455475047459E-03
    0.29359718192123175585E-03
    0.24170542439364616568E-03
    0.41982243307212382304E-03
    0.22688384287707725941E-03
    0.11638114372181951621E-03
    0.53160084920989185225E-04
    0.32887096747064670048E-04
    0.44550618933517785263E-04
    0.24504554021758951634E-04
    0.88271095495063593901E-04
    0.11978304884574022540E-03
    0.10186813396881815003E-05
    0.20999326475148100596E-05
    0.33897185382144581928E-05
    0.62543498734951123109E-05
    0.64030825400886237097E-05
    0.12423438614692657831E-04
    0.79306204659475502923E-05
    0.39689895829540929742E-05
    0.22770732941369276194E-05
    0.16963224745455783284E-05
    0.15842894818988110959E-05
    0.10431884133124954679E-05
    0.25111303421933040725E-05
    0.34469314505311556550E-05
    0.12121883754565484359E-04
    0.29015968579781320285E-04
    0.45620186522962514781E-04
    0.88213008302270591024E-04
    0.10203133628496912255E-03
    0.21173006994348568944E-03
    0.14103946070098457980E-03
    0.66248840172033148280E-04
    0.33823598626045189126E-04
    0.19056518728275996115E-04
    0.20349205411459859441E-04
    0.95852024045284291018E-05
    0.37871137680746629181E-04
    0.54466694386744599955E-04
    0.70207994839746037594E-03
    0.16136151158069756556E-02
    0.24572969542725271903E-02
    0.34440788245157535723E-02
    0.34519957684841623934E-02
    0.45828751535018112315E-02
    0.36469776174497341679E-02
    0.21575215001741537488E-02
    0.10383608562056175807E-02
    0.65211219392765870130E-03
    0.90216751825958590560E-03
    0.47057806514169583630E-03
    0.17410288024828151580E-02
    0.22534509588429990808E-02
    0.40173043713463913243E-02
    0.51933817786999807511E-02
    0.52461072524949831086E-02
    0.58857843937519405825E-02
    0.63900610339163209719E-02
    0.67870599735945971037E-02
    0.67870605640796008787E-02
    0.63900646080129498705E-02
    0.58857885170470556485E-02
    0.52461112369113433243E-02
    0.51933800236023917873E-02
    0.40172994299983912775E-02
    0.58140382636967255850E-02
    0.61655158072975385988E-02
    0.13209702517034277187E-03
    0.31750424750084341608E-03
    0.32492393150482164763E-03
    0.59411841678477090006E-03
    0.11036243835374935293E-02
    0.20748111834463281965E-02
    0.20748113531133586217E-02
    0.11036260583592956072E-02
    0.59411892128409895565E-03
    0.32492753401672317673E-03
    0.31750463827346400410E-03
    0.13209601752910241383E-03
    0.57861446477825762870E-03
    0.81040923579558683115E-03
    0.47057906018624026407E-03
    0.90216738196064578080E-03
    0.65210840920942685344E-03
    0.10383599817975143649E-02
    0.21575202898404628390E-02
    0.36469782254840476046E-02
    0.45828765074300732707E-02
    0.34519999984463024985E-02
    0.34440835760294516953E-02
    0.24573020597714705093E-02
    0.16136155168905714618E-02
    0.70207812794747961969E-03
    0.17410292996013971342E-02
    0.22534519062278662513E-02
    0.19285720299271063255E-06
    0.45364826369424095001E-06
    0.62998961288377703856E-06
    0.12045233487658324090E-05
    0.15808253144861504274E-05
    0.33292856711708544290E-05
    0.26650310764619234565E-05
    0.12807560295330428463E-05
    0.82035394178160273521E-06
    0.57573435329734852952E-06
    0.43978265463355621651E-06
    0.25252925392969599326E-06
    0.65104868824811818669E-06
    0.92789114086705689745E-06
    0.17252630482179767529E-05
    0.40106705104569399209E-05
    0.49147574337359386504E-05
    0.92684858948525650668E-05
    0.14813683069361791947E-04
    0.32708942738549178213E-04
    0.32709471073457160168E-04
    0.14814354859115712147E-04
    0.92681451795645168872E-05
    0.49181835978122989681E-05
    0.40111416754707556050E-05
    0.17244031757105559669E-05
    0.64818135574744818934E-05
    0.94982663673656741229E-05
    0.36177191233439793719E-08
    0.31821648610671988946E-07
    0.77073221568437377741E-07
    0.12720311787848789144E-06
    0.20257074156209813920E-06
    0.44796762218757132697E-06
    0.44883421163096178271E-06
    0.20409397961784222076E-06
    0.13000791288741858511E-06
    0.87169084229172696410E-07
    0.35270161450729808407E-07
    0.38827973460273987842E-09
    0.63315246153779268826E-07
    0.11464651575712513312E-06
    0.24976696140496161464E-06
    0.43333021188790197018E-06
    0.56458549521189330396E-06
    0.81701579432705337945E-06
    0.12784865406316125677E-05
    0.26637966744334189461E-05
    0.33294522912947970036E-05
    0.15807776429803353599E-05
    0.12037426125330689653E-05
    0.63261508186241851315E-06
    0.45164676866386305157E-06
    0.18763860454290721981E-06
    0.64825696518537745986E-06
    0.92610611330994381541E-06
    0.95859422936390473825E-05
    0.20348673344707847183E-04
    0.19053064590587055071E-04
    0.33823916628563827926E-04
    0.66248127545568229993E-04
    0.14103887773515044507E-03
    0.21173040723815672397E-03
    0.10203191360471733644E-03
    0.88212556255800781508E-04
    0.45623412438637916315E-04
    0.29016294532407413089E-04
    0.12120768706369297729E-04
    0.37871065473507607615E-04
    0.54466632049852041562E-04
    0.24505288677348667704E-04
    0.44550084388537809451E-04
    0.32883641166142087413E-04
    0.53160401419879981129E-04
    0.11638042792038240413E-03
    0.22688325933135911061E-03
    0.41982271432194879319E-03
    0.24170600664283936111E-03
    0.29359675669014275411E-03
    0.16409875955440260962E-03
    0.87758272236818451691E-04
    0.38526372189574383995E-04
    0.88271019426985826732E-04