# vtk DataFile Version 3.0
LAPLACIEN  2D
ASCII
DATASET UNSTRUCTURED_GRID
 POINTS         481  float
   6.2500000000000000E-002  0.87500000000000000        0.0000000000000000     
  0.12500000000000000       0.87500000000000000        0.0000000000000000     
  0.12500000000000000       0.93750000000000000        0.0000000000000000     
   3.7499999999999999E-002  0.91249999999999998        0.0000000000000000     
   8.1250000000000003E-002  0.91874999999999996        0.0000000000000000     
   8.7499999999999994E-002  0.96250000000000002        0.0000000000000000     
   4.3749999999999997E-002  0.95625000000000004        0.0000000000000000     
  0.18750000000000000       0.87500000000000000        0.0000000000000000     
  0.25000000000000000       0.87500000000000000        0.0000000000000000     
  0.25000000000000000       0.93750000000000000        0.0000000000000000     
  0.16250000000000001       0.91249999999999998        0.0000000000000000     
  0.20624999999999999       0.91874999999999996        0.0000000000000000     
  0.21249999999999999       0.96250000000000002        0.0000000000000000     
  0.16875000000000001       0.95625000000000004        0.0000000000000000     
   6.2500000000000000E-002  0.75000000000000000        0.0000000000000000     
  0.12500000000000000       0.75000000000000000        0.0000000000000000     
  0.12500000000000000       0.81250000000000000        0.0000000000000000     
   3.7499999999999999E-002  0.78749999999999998        0.0000000000000000     
   8.1250000000000003E-002  0.79374999999999996        0.0000000000000000     
   8.7499999999999994E-002  0.83750000000000002        0.0000000000000000     
   4.3749999999999997E-002  0.83125000000000004        0.0000000000000000     
  0.18750000000000000       0.75000000000000000        0.0000000000000000     
  0.25000000000000000       0.75000000000000000        0.0000000000000000     
  0.25000000000000000       0.81250000000000000        0.0000000000000000     
  0.16250000000000001       0.78749999999999998        0.0000000000000000     
  0.20624999999999999       0.79374999999999996        0.0000000000000000     
  0.21249999999999999       0.83750000000000002        0.0000000000000000     
  0.16875000000000001       0.83125000000000004        0.0000000000000000     
  0.31250000000000000       0.87500000000000000        0.0000000000000000     
  0.37500000000000000       0.87500000000000000        0.0000000000000000     
  0.37500000000000000       0.93750000000000000        0.0000000000000000     
  0.28749999999999998       0.91249999999999998        0.0000000000000000     
  0.33124999999999999       0.91874999999999996        0.0000000000000000     
  0.33750000000000002       0.96250000000000002        0.0000000000000000     
  0.29375000000000001       0.95625000000000004        0.0000000000000000     
  0.43750000000000000       0.87500000000000000        0.0000000000000000     
  0.50000000000000000       0.87500000000000000        0.0000000000000000     
  0.50000000000000000       0.93750000000000000        0.0000000000000000     
  0.41249999999999998       0.91249999999999998        0.0000000000000000     
  0.45624999999999999       0.91874999999999996        0.0000000000000000     
  0.46250000000000002       0.96250000000000002        0.0000000000000000     
  0.41875000000000001       0.95625000000000004        0.0000000000000000     
  0.31250000000000000       0.75000000000000000        0.0000000000000000     
  0.37500000000000000       0.75000000000000000        0.0000000000000000     
  0.37500000000000000       0.81250000000000000        0.0000000000000000     
  0.28749999999999998       0.78749999999999998        0.0000000000000000     
  0.33124999999999999       0.79374999999999996        0.0000000000000000     
  0.33750000000000002       0.83750000000000002        0.0000000000000000     
  0.29375000000000001       0.83125000000000004        0.0000000000000000     
  0.43750000000000000       0.75000000000000000        0.0000000000000000     
  0.50000000000000000       0.75000000000000000        0.0000000000000000     
  0.50000000000000000       0.81250000000000000        0.0000000000000000     
  0.41249999999999998       0.78749999999999998        0.0000000000000000     
  0.45624999999999999       0.79374999999999996        0.0000000000000000     
  0.46250000000000002       0.83750000000000002        0.0000000000000000     
  0.41875000000000001       0.83125000000000004        0.0000000000000000     
   6.2500000000000000E-002  0.62500000000000000        0.0000000000000000     
  0.12500000000000000       0.62500000000000000        0.0000000000000000     
  0.12500000000000000       0.68750000000000000        0.0000000000000000     
   3.7499999999999999E-002  0.66249999999999998        0.0000000000000000     
   8.1250000000000003E-002  0.66874999999999996        0.0000000000000000     
   8.7499999999999994E-002  0.71250000000000002        0.0000000000000000     
   4.3749999999999997E-002  0.70625000000000004        0.0000000000000000     
  0.18750000000000000       0.62500000000000000        0.0000000000000000     
  0.25000000000000000       0.62500000000000000        0.0000000000000000     
  0.25000000000000000       0.68750000000000000        0.0000000000000000     
  0.16250000000000001       0.66249999999999998        0.0000000000000000     
  0.20624999999999999       0.66874999999999996        0.0000000000000000     
  0.21249999999999999       0.71250000000000002        0.0000000000000000     
  0.16875000000000001       0.70625000000000004        0.0000000000000000     
   6.2500000000000000E-002  0.50000000000000000        0.0000000000000000     
  0.12500000000000000       0.50000000000000000        0.0000000000000000     
  0.12500000000000000       0.56250000000000000        0.0000000000000000     
   3.7499999999999999E-002  0.53749999999999998        0.0000000000000000     
   8.1250000000000003E-002  0.54374999999999996        0.0000000000000000     
   8.7499999999999994E-002  0.58750000000000002        0.0000000000000000     
   4.3749999999999997E-002  0.58125000000000004        0.0000000000000000     
  0.18750000000000000       0.50000000000000000        0.0000000000000000     
  0.25000000000000000       0.50000000000000000        0.0000000000000000     
  0.25000000000000000       0.56250000000000000        0.0000000000000000     
  0.16250000000000001       0.53749999999999998        0.0000000000000000     
  0.20624999999999999       0.54374999999999996        0.0000000000000000     
  0.21249999999999999       0.58750000000000002        0.0000000000000000     
  0.16875000000000001       0.58125000000000004        0.0000000000000000     
  0.31250000000000000       0.62500000000000000        0.0000000000000000     
  0.37500000000000000       0.62500000000000000        0.0000000000000000     
  0.37500000000000000       0.68750000000000000        0.0000000000000000     
  0.28749999999999998       0.66249999999999998        0.0000000000000000     
  0.33124999999999999       0.66874999999999996        0.0000000000000000     
  0.33750000000000002       0.71250000000000002        0.0000000000000000     
  0.29375000000000001       0.70625000000000004        0.0000000000000000     
  0.43750000000000000       0.62500000000000000        0.0000000000000000     
  0.50000000000000000       0.62500000000000000        0.0000000000000000     
  0.50000000000000000       0.68750000000000000        0.0000000000000000     
  0.41249999999999998       0.66249999999999998        0.0000000000000000     
  0.45624999999999999       0.66874999999999996        0.0000000000000000     
  0.46250000000000002       0.71250000000000002        0.0000000000000000     
  0.41875000000000001       0.70625000000000004        0.0000000000000000     
  0.31250000000000000       0.50000000000000000        0.0000000000000000     
  0.37500000000000000       0.50000000000000000        0.0000000000000000     
  0.37500000000000000       0.56250000000000000        0.0000000000000000     
  0.28749999999999998       0.53749999999999998        0.0000000000000000     
  0.33124999999999999       0.54374999999999996        0.0000000000000000     
  0.33750000000000002       0.58750000000000002        0.0000000000000000     
  0.29375000000000001       0.58125000000000004        0.0000000000000000     
  0.43750000000000000       0.50000000000000000        0.0000000000000000     
  0.50000000000000000       0.50000000000000000        0.0000000000000000     
  0.50000000000000000       0.56250000000000000        0.0000000000000000     
  0.41249999999999998       0.53749999999999998        0.0000000000000000     
  0.45624999999999999       0.54374999999999996        0.0000000000000000     
  0.46250000000000002       0.58750000000000002        0.0000000000000000     
  0.41875000000000001       0.58125000000000004        0.0000000000000000     
  0.56250000000000000       0.87500000000000000        0.0000000000000000     
  0.62500000000000000       0.87500000000000000        0.0000000000000000     
  0.62500000000000000       0.93750000000000000        0.0000000000000000     
  0.53749999999999998       0.91249999999999998        0.0000000000000000     
  0.58125000000000004       0.91874999999999996        0.0000000000000000     
  0.58750000000000002       0.96250000000000002        0.0000000000000000     
  0.54374999999999996       0.95625000000000004        0.0000000000000000     
  0.68750000000000000       0.87500000000000000        0.0000000000000000     
  0.75000000000000000       0.87500000000000000        0.0000000000000000     
  0.75000000000000000       0.93750000000000000        0.0000000000000000     
  0.66249999999999998       0.91249999999999998        0.0000000000000000     
  0.70625000000000004       0.91874999999999996        0.0000000000000000     
  0.71250000000000002       0.96250000000000002        0.0000000000000000     
[...]
 CELL_DATA         896
 SCALARS Cells_density float
 LOOKUP_TABLE default
    0.98995895013911949789E+00
    0.98995242548433581842E+00
    0.98993324428199747089E+00
    0.98992138335670387672E+00
    0.98994049433180741904E+00
    0.98993095283310228449E+00
    0.98995230681253665317E+00
    0.98996178223522257600E+00
    0.98996945525921997699E+00
    0.98997051047845008309E+00
    0.98996684220550079658E+00
    0.98996629507340494492E+00
    0.98995730529243175511E+00
    0.98995495842298164568E+00
    0.98982017907388553102E+00
    0.98971180633549904471E+00
    0.98944423027173533658E+00
    0.98923427070960190388E+00
    0.98949979434909263176E+00
    0.98931723133187576824E+00
    0.98961886181024982800E+00
    0.98977276081754683723E+00
    0.98988003851251249454E+00
    0.98990894866132184138E+00
    0.98987047375857739606E+00
    0.98989380677872040870E+00
    0.98977442093186052130E+00
    0.98973311709659028690E+00
    0.98992663670045999424E+00
    0.98991417595348663028E+00
    0.98987205935783328936E+00
    0.98984569352620888072E+00
    0.98989283900491220614E+00
    0.98987988981132501998E+00
    0.98992535917120283440E+00
    0.98993936161157014553E+00
    0.98995526926580890148E+00
    0.98995522543387681758E+00
    0.98994412180146462710E+00
    0.98994008733093474817E+00
    0.98992834653261041478E+00
    0.98992466158830971779E+00
    0.98961406758437908682E+00
    0.98935549567838243501E+00
    0.98868746160241249843E+00
    0.98815190720010104286E+00
    0.98891287009485151493E+00
    0.98862727561396657183E+00
    0.98935648483325056013E+00
    0.98958692805952186422E+00
    0.98980021708090570876E+00
    0.98983958167272823037E+00
    0.98974195672684628367E+00
    0.98978521645128325623E+00
    0.98953156632665673076E+00
    0.98945573695238231426E+00
    0.98423288623928262275E+00
    0.82947920900836562969E-02
    0.59203046105769356153E-05
    0.21641708547472413588E-05
   -0.18304295710652915151E-05
    0.22490286757553639452E-06
    0.41924631318624331418E-05
    0.86239646455805417380E-02
    0.98563983201415605873E+00
    0.98895399181453202964E+00
    0.98375272577137884422E+00
    0.98875156071668968139E+00
    0.87472917935193100769E-02
    0.42000070074528744312E-04
   -0.13041700656986398508E-05
   -0.25373240605241336869E-05
    0.35317373935212560404E-05
    0.35263864322043692918E-05
   -0.31673284117405469097E-05
   -0.12000566340493136026E-05
    0.98316318686365240898E-06
   -0.18441175841188851995E-05
   -0.44241676783788296535E-06
    0.29494465171044981920E-05
    0.54506259711208345843E-05
   -0.61313448321154822040E-06
    0.38860737925180444151E-04
    0.35883311206603559439E-04
    0.97662565049447891408E+00
    0.18932236005414767449E-01
    0.19096356918202382033E-04
    0.21635458472092307870E-05
   -0.18216682872522761763E-05
    0.31582745303905172794E-06
    0.11604927036431893502E-04
    0.15151181075639437099E-01
    0.98354020321308410768E+00
    0.98786295410455116084E+00
    0.97787659819299888042E+00
    0.98675223541763457114E+00
    0.18424518995471737132E-01
    0.11246972075283719788E-03
   -0.12950058232929928677E-05
   -0.25421608053091310297E-05
    0.34217537903542184666E-05
    0.53813768800239954255E-06
   -0.32169361383904678672E-05
    0.22290745971708763381E-06
   -0.11551811985801785554E-05
   -0.20882838508584916608E-05
    0.28039416865888629973E-05
    0.33946466875723254712E-05
    0.54382303560520165914E-05
   -0.61450292884105399025E-06
    0.38807800348264031697E-04
    0.35884346968964766892E-04
    0.98988646662156531963E+00
    0.98985578538073637489E+00
    0.98977954222687924979E+00
    0.98971395005616191742E+00
    0.98979769351220570073E+00
    0.98975864392039725193E+00
    0.98985699285214345799E+00
    0.98988898494249244475E+00
    0.98992034546560314645E+00
    0.98992124123335278885E+00
    0.98990562147002836291E+00
    0.98990463734584643873E+00
    0.98987649768240337789E+00
    0.98986594189317655967E+00
    0.98926273495035788041E+00
    0.98862989760778641202E+00
    0.98708480966274436685E+00
    0.98530297736114980101E+00
    0.98732183285972674458E+00
    0.98628833265558379928E+00
    0.98845650926939987446E+00
    0.98904897304587402473E+00
    0.98957078871327930347E+00
    0.98966777481273626726E+00
    0.98946171643556979358E+00
    0.98958684260144058609E+00
    0.98897740887636997886E+00
    0.98878159870258630626E+00
    0.98986459902967482982E+00
    0.98981652986064627697E+00
    0.98972070945016799026E+00
    0.98960911529492634475E+00
    0.98970376862696396447E+00
    0.98960420425884787488E+00
    0.98976318868730117639E+00
    0.98983087182766560375E+00
    0.98988131490766984033E+00
    0.98988795136715579392E+00
    0.98987259568012919697E+00
    0.98988042296199518777E+00
    0.98983157092795981402E+00
    0.98981014834626346310E+00
    0.98903274971275312311E+00
    0.98795870997869961183E+00
    0.98564545681448656467E+00
    0.98110635300341586529E+00
    0.98477377087465989280E+00
    0.98063362818714105984E+00
    0.98672863005984712270E+00
    0.98818152080860854891E+00
    0.98921684686128363850E+00
    0.98943968060574294388E+00
    0.98915115227186156677E+00
    0.98942463386574652784E+00
    0.98831874343397085880E+00
    0.98789478961288390568E+00
    0.94611188311601390755E+00
    0.64505862099962271716E-01
    0.19385771288027382536E-03
    0.24083869623041149235E-05
   -0.17536211519542995008E-05
    0.32145815651733003360E-06
    0.88604617328649578245E-04
    0.39123567043751646122E-01
    0.97472682871494442658E+00
    0.98381819559704564160E+00
    0.94999447152029470320E+00
    0.97992055511623965547E+00
    0.57883065364975574973E-01
    0.86872472425685628300E-03
    0.34341393097176838691E-05
   -0.27589030984010472073E-05
    0.19529998235285062849E-05
    0.53810324761169543771E-06
   -0.22256362763866038436E-05
    0.22289242589791830744E-06
   -0.11546728342846014415E-05
   -0.19397336948080815801E-05
    0.28198766697849952576E-05
    0.34001900608473107886E-05
    0.54687905463769341730E-05
    0.36115812818303140380E-06
    0.38632918773649011152E-04
    0.35997041626789703494E-04
    0.90303122259959944795E+00
    0.15932442245306430162E+00
    0.30681995729095602569E-02
    0.33941332833253515938E-02
    0.14808139523342673128E-02
    0.44447814750557800576E-03
    0.76734809222006594709E-03
    0.10929845012977019991E+00
    0.94626288308830275309E+00
    0.97185580182660091797E+00
    0.83635505363678686042E+00
    0.96483082837358336015E+00
    0.19199870242350303151E+00
    0.82654539560079471477E-02
    0.47582017851373120329E-02
    0.26427589778634107305E-02
    0.14402397376665251381E-04
    0.53876740192264974399E-06
    0.25886222358292351531E-08
    0.22285959966370695916E-06
   -0.20391654022313284151E-06
    0.80834015616350246070E-04
    0.11697917459473385884E-03
    0.80681689540567280618E-03
    0.24650593557225238331E-02
    0.40532853647622995794E-02
    0.11513279199642483929E-02
    0.16586921069977801245E-03
   -0.11580107024418839959E-05
   -0.21809466622977966863E-05
    0.28007238118015754505E-05
    0.33912578326738252623E-05
    0.53865638468228100837E-05
   -0.18873880848059463433E-06
    0.49751876065402788683E-06
   -0.29166605539309687378E-05
   -0.37493420501466657732E-07
    0.35348888068042887799E-05
   -0.31556891891532157459E-05
   -0.23888402186928922128E-06
    0.35948138313561920113E-04
    0.38926370768183671852E-04
    0.40644140292085034736E-05
    0.99806792480470647722E-02
    0.98436725938284141968E+00
    0.98863438278820325866E+00
    0.98392397539604858903E+00
    0.98903842997059576714E+00
    0.98556325596177007942E+00
    0.74183173078964286321E-02
    0.26643938154541087290E-05
    0.22902437533022551386E-05
   -0.18118653993179612627E-05
    0.31087440859743047543E-06
    0.42341087873246853099E-04
    0.82664061927802713614E-02
   -0.11305489399286619207E-05
   -0.22493371289441366003E-05
    0.27884784423918810690E-05
    0.33915536078841268631E-05
    0.54336952600058457141E-05
   -0.61213028023860544833E-06
   -0.13145150833352838560E-05
   -0.25562240904644587799E-05
    0.34318146420957001918E-05
    0.98375162040807130899E-06
   -0.32152427321462501324E-05
    0.22290534643861084654E-06
    0.35930857409851502040E-04
    0.38965758912433652637E-04
    0.26629600274953298209E-04
    0.22674507549205986240E-01
    0.97719877138159472185E+00
    0.98649464198241854085E+00
    0.97888951968695980810E+00
    0.98807181750972050693E+00
    0.98356696908876317664E+00
    0.13319673336437401132E-01
    0.11307235535644340264E-04
    0.21671918554762950682E-05
   -0.18266490732720833284E-05
    0.31629565109704498172E-06
    0.11930659314555479354E-03
    0.16150468344736435000E-01
    0.98942479666642846325E+00
    0.98970180111070393814E+00
    0.98982919250837353431E+00
    0.98988749052640778725E+00
    0.98987356107005519679E+00
    0.98991635161694568890E+00
    0.98988088731609036319E+00
    0.98978401472680532791E+00
    0.98962197233696647114E+00
    0.98940129607941251777E+00
    0.98949407778554776538E+00
    0.98911988343188939066E+00
    0.98972099665338786334E+00
    0.98978458241933442441E+00
    0.98993219564921264286E+00
    0.98995310903253197488E+00
    0.98996157285270081072E+00
    0.98996708340148664718E+00
    0.98996787006667452680E+00
    0.98997155808149162048E+00
    0.98997055874025285949E+00
    0.98996310442429447107E+00
    0.98995352855595108998E+00
    0.98993788579169583741E+00
    0.98994137181147168203E+00
    0.98991539264135508525E+00
    0.98995506302939884069E+00
    0.98996071085343873008E+00
    0.98863936779540795285E+00
    0.98933621761453049981E+00
    0.98963348539161843931E+00
    0.98976980554032467641E+00
    0.98975120774763503118E+00
    0.98985401615184442914E+00
    0.98980826802408350407E+00
    0.98961169582281449664E+00
    0.98934348621948042801E+00
    0.98882709120147993520E+00
    0.98890325254215938333E+00
    0.98783267456712053889E+00
    0.98941612662778810616E+00
    0.98956936825818053727E+00
    0.98986938789452316723E+00
    0.98991378681688202423E+00
    0.98993024472630120059E+00
    0.98994080692226593676E+00
    0.98994585911657506649E+00
    0.98995674461454308268E+00
    0.98995767520126676242E+00
    0.98994201318739749595E+00
    0.98992512080152839093E+00
    0.98989264932494369642E+00
    0.98989284712399050470E+00
    0.98983173539820867859E+00
    0.98992086933198020215E+00
    0.98993308333002139054E+00
   -0.44781254756352457344E-06
   -0.22749395698666763686E-05
    0.39351648478105259271E-05
    0.35913196015139009065E-05
    0.55145048460961842933E-05
   -0.59453362150073387330E-06
   -0.13261207470199828594E-05
   -0.25609394143276488078E-05
    0.34132825796944594572E-05
    0.53813160646701772099E-06
   -0.22049514334711010554E-05
    0.22288575491408625495E-06
    0.36070488072091211470E-04
    0.39117117326765488876E-04
    0.29483440567571248111E-03
    0.73972854448674754679E-01
    0.94838163913676620798E+00
    0.97950531984242017458E+00
    0.95571847396647524597E+00
    0.98439962086187082768E+00
    0.97480085154550888404E+00
    0.34524201763291413603E-01
    0.62319589462507462229E-04
    0.21659615817852770109E-05
   -0.17786319530548199489E-05
    0.38047271756579326031E-06
    0.10046634981236192159E-02
    0.48988002404294711534E-01
    0.17293717168857044593E-04
    0.27086687839160284580E-02
    0.47794360618318362799E-02
    0.43089084885397851976E-02
    0.21507990833996063450E-02
    0.56757443812695512319E-03
    0.88976294333391152402E-04
    0.23927444908128429847E-03
    0.30088961178030883484E-05
    0.53810618180226096534E-06
    0.71187047498009965942E-06
    0.22365117911067396962E-06
    0.46800399768391929634E-03
    0.47905724988073217219E-03
    0.36472397627257168232E-02
    0.17854179790261978655E+00
    0.90286477424064492947E+00
    0.96544503041914508934E+00
    0.85553351561698431915E+00
    0.97271794798194199938E+00
    0.94625067551013841705E+00
    0.97830217412527023524E-01
    0.49158177704435425739E-03
    0.23569338796453385238E-03
    0.17890123844381225927E-02
    0.37872686740826611018E-02
    0.85431180413359057713E-02
    0.16952019332202172830E+00
    0.98700306189086506325E+00
    0.98858222836777820408E+00
    0.98928925389911215316E+00
    0.98955370397438779939E+00
    0.98948018058740205838E+00
    0.98969938957957126480E+00
    0.98958752033629016065E+00
    0.98911335569010094826E+00
    0.98842880837965030327E+00
    0.98696651050657469018E+00
    0.98731603228060549338E+00
    0.98412383755261589879E+00
    0.98870365210368760245E+00
    0.98904984268633722166E+00
    0.98977620570428148650E+00
    0.98985417593515534485E+00
    0.98988969765680945301E+00
    0.98990429207329144745E+00
    0.98990766935543916816E+00
    0.98992302109413488065E+00
    0.98992355548380595032E+00
    0.98989256135145065052E+00
    0.98985522310423967873E+00
    0.98978573771341649135E+00
    0.98979784590095898356E+00
    0.98968247893985727970E+00
    0.98986164464074899438E+00
    0.98988301914250698132E+00
    0.98560959164259087650E+00
    0.98784790880147188563E+00
    0.98904073973592587787E+00
    0.98937037924720228066E+00
    0.98916389935355264473E+00
    0.98949194805108742212E+00
    0.98923334431260423472E+00
    0.98830712239113638340E+00
    0.98669702948966098166E+00
    0.98299734554423912058E+00
    0.98477861842080594013E+00
    0.97772818982242737373E+00
    0.98783295870626952606E+00
    0.98837138267272861558E+00
    0.98971906239345142087E+00
    0.98981267955672058712E+00
    0.98986535832177480199E+00
    0.98987890573309877951E+00
    0.98987383829281072600E+00
    0.98988958492138623413E+00
    0.98988365799648891930E+00
    0.98983599547172806954E+00
    0.98976233732794616227E+00
    0.98965086269933710827E+00
    0.98970359034068189352E+00
    0.98955916021425882612E+00
    0.98980787327008734611E+00
    0.98983505514815250947E+00
    0.98988333912372827861E+00
    0.98983586537926204763E+00
    0.98976260651950265235E+00
    0.98965102511171920696E+00
    0.98970360438259952218E+00
    0.98955931444290545773E+00
    0.98971933455618565922E+00
    0.98981257420689849891E+00
    0.98986507993900285651E+00
    0.98987888489826514338E+00
    0.98987376566625595586E+00
    0.98988955499287112350E+00
    0.98983500824568715348E+00
    0.98980785342805166493E+00
    0.98923305149740980990E+00
    0.98830700546330685352E+00
    0.98669742258166148741E+00
    0.98299754456055687957E+00
    0.98477865950650178561E+00
    0.97772840311256026258E+00
    0.98561003543369674063E+00
    0.98784782363676360006E+00
    0.98904046754649177497E+00
    0.98937038235649854556E+00
    0.98916384848578742250E+00
    0.98949196617497747752E+00
    0.98837134533571413542E+00
    0.98783295130898618464E+00
    0.98992322708535029907E+00
    0.98989243316536035255E+00
    0.98985548893779529145E+00
    0.98978590032699409473E+00
    0.98979786177540185488E+00
    0.98968263254740018731E+00
    0.98977648697638120900E+00
    0.98985407226279042980E+00
    0.98988941980558009526E+00
    0.98990427495724164775E+00
    0.98990760251019971339E+00
    0.98992298037080195261E+00
    0.98988297404861858020E+00
    0.98986162673811595170E+00
    0.98958724144402243628E+00
    0.98911323987121702039E+00
    0.98842913490811123989E+00
    0.98696669654581148379E+00
    0.98731606513345515630E+00
    0.98412404270035902520E+00
    0.98700346875216771192E+00
    0.98858213942794748164E+00
    0.98928898944389487280E+00
    0.98955370960411126458E+00
    0.98948013354900576921E+00
    0.98969940993985638933E+00
    0.98904980921910623515E+00
    0.98870364599677285078E+00
    0.94624932225997848700E+00
    0.97830644871745406355E-01
    0.49158545652715473356E-03
    0.23569313164844283345E-03
    0.17890107434388228223E-02
    0.37872651114090579230E-02
    0.36472552328926746180E-02
    0.17854273462125624938E+00
    0.90286250149223246098E+00
    0.96544481147493199646E+00
    0.85553365098435407710E+00
    0.97271782390488747971E+00
    0.16951977392006700729E+00
    0.85431277237464561813E-02
    0.88976289889961817530E-04
    0.23927435724174078713E-03
    0.30088952364619486682E-05
    0.53810618009576888574E-06
    0.71186541589499695426E-06
    0.22365117891431778287E-06
    0.17293647099594447480E-04
    0.27086628127128494110E-02
    0.47794231018107461231E-02
    0.43089026753323923097E-02
    0.21507962325576471425E-02
    0.56757383165440856987E-03
    0.47905250577354483799E-03
    0.46800223777980942859E-03
    0.97480026548577713985E+00
    0.34524191665334359735E-01
    0.62319614579161864689E-04
    0.21659616109317675468E-05
   -0.17786337299511085870E-05
    0.38046564127214626798E-06
    0.29483625137250200421E-03
    0.73973059357953674375E-01
    0.94838037228866090000E+00
    0.97950524210680256498E+00
    0.95571844823374874078E+00
    0.98439960694934736107E+00
    0.48987842573842921290E-01
    0.10046642178862604140E-02
   -0.13261259583607068952E-05
   -0.25609395526753429925E-05
    0.34132795038623408170E-05
    0.53813160542173353606E-06
   -0.22049531840145965650E-05
    0.22288576499679508806E-06
   -0.44780995401946055843E-06
   -0.22749385232204933734E-05
    0.39348991503081098202E-05
    0.35912854123160121629E-05
    0.55145064017356668808E-05
   -0.59453411069636404730E-06
    0.39117112141632424591E-04
    0.36070486152133210563E-04
    0.98995734718798089613E+00
    0.98994188824786366609E+00
    0.98992538944595498407E+00
    0.98989281534158279907E+00
    0.98989286547408816830E+00
    0.98983188852357950616E+00
    0.98986966590588720827E+00
    0.98991368377145017021E+00
    0.98992996847415093420E+00
    0.98994079402216461627E+00
    0.98994579919171199478E+00
    0.98995670120288514759E+00
    0.98993303996667358913E+00
    0.98992085269025642535E+00
    0.98980800471082730496E+00
    0.98961158451191644225E+00
    0.98934378880707030124E+00
    0.98882727648514678886E+00
    0.98890328457342135948E+00
    0.98783286056399122188E+00
    0.98863970759444441683E+00
    0.98933612635574508243E+00
    0.98963323370105860111E+00
    0.98976981472925518180E+00
    0.98975116608305468979E+00
    0.98985404190713288664E+00
    0.98956933849709982631E+00
    0.98941612188386807158E+00
    0.98997056403072325459E+00
    0.98996309509902424839E+00
    0.98995352757507182329E+00
    0.98993811809535348090E+00
    0.98994144086550983630E+00
    0.98991556359680299426E+00
    0.98993247602225831194E+00
    0.98995301667606427909E+00
    0.98996130432798723486E+00
    0.98996707691099250503E+00
    0.98996783393289256026E+00
    0.98997155792985913614E+00
    0.98996068235606615726E+00
    0.98995505130642502678E+00
    0.98988099042395560900E+00
    0.98978403697268635408E+00
    0.98962199251872629002E+00
    0.98940156506813248249E+00
    0.98949416210604312916E+00
    0.98912008338037771260E+00
    0.98942511144489142527E+00
    0.98970172578880089009E+00
    0.98982896023314581591E+00
    0.98988750919473122991E+00
    0.98987365162477602976E+00
    0.98991673385760359238E+00
    0.98978459081582192969E+00
    0.98972100581061461799E+00
    0.98356662266764705027E+00
    0.13319518694423939167E-01
    0.11307068503379430431E-04
    0.21671918360564880006E-05
   -0.18266502621521074362E-05
    0.31629568326658964774E-06
    0.26629336856629414951E-04
    0.22674373470079760978E-01
    0.97719823869273814143E+00
    0.98649463902145317906E+00
    0.97888952102289761292E+00
    0.98807184469647324487E+00
    0.16150321313314928290E-01
    0.11930539503795622829E-03
   -0.13145202037914720225E-05
   -0.25562241635333735394E-05
    0.34318107436211106439E-05
    0.98369015227219537243E-06
   -0.32152456020813674434E-05
    0.22290533353595214332E-06
   -0.11305427016407723924E-05
   -0.22493363528505065751E-05
    0.27884818937249415425E-05
    0.33915540569333274476E-05
    0.54336969763269506943E-05
   -0.61213079674681618292E-06