# vtk DataFile Version 3.0
LAPLACIEN  2D
ASCII
DATASET UNSTRUCTURED_GRID
 POINTS         481  float
   6.2500000000000000E-002  0.87500000000000000        0.0000000000000000     
  0.12500000000000000       0.87500000000000000        0.0000000000000000     
  0.12500000000000000       0.93750000000000000        0.0000000000000000     
   3.7499999999999999E-002  0.91249999999999998        0.0000000000000000     
   8.1250000000000003E-002  0.91874999999999996        0.0000000000000000     
   8.7499999999999994E-002  0.96250000000000002        0.0000000000000000     
   4.3749999999999997E-002  0.95625000000000004        0.0000000000000000     
  0.18750000000000000       0.87500000000000000        0.0000000000000000     
  0.25000000000000000       0.87500000000000000        0.0000000000000000     
  0.25000000000000000       0.93750000000000000        0.0000000000000000     
  0.16250000000000001       0.91249999999999998        0.0000000000000000     
  0.20624999999999999       0.91874999999999996        0.0000000000000000     
  0.21249999999999999       0.96250000000000002        0.0000000000000000     
  0.16875000000000001       0.95625000000000004        0.0000000000000000     
   6.2500000000000000E-002  0.75000000000000000        0.0000000000000000     
  0.12500000000000000       0.75000000000000000        0.0000000000000000     
  0.12500000000000000       0.81250000000000000        0.0000000000000000     
   3.7499999999999999E-002  0.78749999999999998        0.0000000000000000     
   8.1250000000000003E-002  0.79374999999999996        0.0000000000000000     
   8.7499999999999994E-002  0.83750000000000002        0.0000000000000000     
   4.3749999999999997E-002  0.83125000000000004        0.0000000000000000     
  0.18750000000000000       0.75000000000000000        0.0000000000000000     
  0.25000000000000000       0.75000000000000000        0.0000000000000000     
  0.25000000000000000       0.81250000000000000        0.0000000000000000     
  0.16250000000000001       0.78749999999999998        0.0000000000000000     
  0.20624999999999999       0.79374999999999996        0.0000000000000000     
  0.21249999999999999       0.83750000000000002        0.0000000000000000     
  0.16875000000000001       0.83125000000000004        0.0000000000000000     
  0.31250000000000000       0.87500000000000000        0.0000000000000000     
  0.37500000000000000       0.87500000000000000        0.0000000000000000     
  0.37500000000000000       0.93750000000000000        0.0000000000000000     
  0.28749999999999998       0.91249999999999998        0.0000000000000000     
  0.33124999999999999       0.91874999999999996        0.0000000000000000     
  0.33750000000000002       0.96250000000000002        0.0000000000000000     
  0.29375000000000001       0.95625000000000004        0.0000000000000000     
  0.43750000000000000       0.87500000000000000        0.0000000000000000     
  0.50000000000000000       0.87500000000000000        0.0000000000000000     
  0.50000000000000000       0.93750000000000000        0.0000000000000000     
  0.41249999999999998       0.91249999999999998        0.0000000000000000     
  0.45624999999999999       0.91874999999999996        0.0000000000000000     
  0.46250000000000002       0.96250000000000002        0.0000000000000000     
  0.41875000000000001       0.95625000000000004        0.0000000000000000     
  0.31250000000000000       0.75000000000000000        0.0000000000000000     
  0.37500000000000000       0.75000000000000000        0.0000000000000000     
  0.37500000000000000       0.81250000000000000        0.0000000000000000     
  0.28749999999999998       0.78749999999999998        0.0000000000000000     
  0.33124999999999999       0.79374999999999996        0.0000000000000000     
  0.33750000000000002       0.83750000000000002        0.0000000000000000     
  0.29375000000000001       0.83125000000000004        0.0000000000000000     
  0.43750000000000000       0.75000000000000000        0.0000000000000000     
  0.50000000000000000       0.75000000000000000        0.0000000000000000     
  0.50000000000000000       0.81250000000000000        0.0000000000000000     
  0.41249999999999998       0.78749999999999998        0.0000000000000000     
  0.45624999999999999       0.79374999999999996        0.0000000000000000     
  0.46250000000000002       0.83750000000000002        0.0000000000000000     
  0.41875000000000001       0.83125000000000004        0.0000000000000000     
   6.2500000000000000E-002  0.62500000000000000        0.0000000000000000     
  0.12500000000000000       0.62500000000000000        0.0000000000000000     
  0.12500000000000000       0.68750000000000000        0.0000000000000000     
   3.7499999999999999E-002  0.66249999999999998        0.0000000000000000     
   8.1250000000000003E-002  0.66874999999999996        0.0000000000000000     
   8.7499999999999994E-002  0.71250000000000002        0.0000000000000000     
   4.3749999999999997E-002  0.70625000000000004        0.0000000000000000     
  0.18750000000000000       0.62500000000000000        0.0000000000000000     
  0.25000000000000000       0.62500000000000000        0.0000000000000000     
  0.25000000000000000       0.68750000000000000        0.0000000000000000     
  0.16250000000000001       0.66249999999999998        0.0000000000000000     
  0.20624999999999999       0.66874999999999996        0.0000000000000000     
  0.21249999999999999       0.71250000000000002        0.0000000000000000     
  0.16875000000000001       0.70625000000000004        0.0000000000000000     
   6.2500000000000000E-002  0.50000000000000000        0.0000000000000000     
  0.12500000000000000       0.50000000000000000        0.0000000000000000     
  0.12500000000000000       0.56250000000000000        0.0000000000000000     
   3.7499999999999999E-002  0.53749999999999998        0.0000000000000000     
   8.1250000000000003E-002  0.54374999999999996        0.0000000000000000     
   8.7499999999999994E-002  0.58750000000000002        0.0000000000000000     
   4.3749999999999997E-002  0.58125000000000004        0.0000000000000000     
  0.18750000000000000       0.50000000000000000        0.0000000000000000     
  0.25000000000000000       0.50000000000000000        0.0000000000000000     
  0.25000000000000000       0.56250000000000000        0.0000000000000000     
  0.16250000000000001       0.53749999999999998        0.0000000000000000     
  0.20624999999999999       0.54374999999999996        0.0000000000000000     
  0.21249999999999999       0.58750000000000002        0.0000000000000000     
  0.16875000000000001       0.58125000000000004        0.0000000000000000     
  0.31250000000000000       0.62500000000000000        0.0000000000000000     
  0.37500000000000000       0.62500000000000000        0.0000000000000000     
  0.37500000000000000       0.68750000000000000        0.0000000000000000     
  0.28749999999999998       0.66249999999999998        0.0000000000000000     
  0.33124999999999999       0.66874999999999996        0.0000000000000000     
  0.33750000000000002       0.71250000000000002        0.0000000000000000     
  0.29375000000000001       0.70625000000000004        0.0000000000000000     
  0.43750000000000000       0.62500000000000000        0.0000000000000000     
  0.50000000000000000       0.62500000000000000        0.0000000000000000     
  0.50000000000000000       0.68750000000000000        0.0000000000000000     
  0.41249999999999998       0.66249999999999998        0.0000000000000000     
  0.45624999999999999       0.66874999999999996        0.0000000000000000     
  0.46250000000000002       0.71250000000000002        0.0000000000000000     
  0.41875000000000001       0.70625000000000004        0.0000000000000000     
  0.31250000000000000       0.50000000000000000        0.0000000000000000     
  0.37500000000000000       0.50000000000000000        0.0000000000000000     
  0.37500000000000000       0.56250000000000000        0.0000000000000000     
  0.28749999999999998       0.53749999999999998        0.0000000000000000     
  0.33124999999999999       0.54374999999999996        0.0000000000000000     
  0.33750000000000002       0.58750000000000002        0.0000000000000000     
  0.29375000000000001       0.58125000000000004        0.0000000000000000     
  0.43750000000000000       0.50000000000000000        0.0000000000000000     
  0.50000000000000000       0.50000000000000000        0.0000000000000000     
  0.50000000000000000       0.56250000000000000        0.0000000000000000     
  0.41249999999999998       0.53749999999999998        0.0000000000000000     
  0.45624999999999999       0.54374999999999996        0.0000000000000000     
  0.46250000000000002       0.58750000000000002        0.0000000000000000     
  0.41875000000000001       0.58125000000000004        0.0000000000000000     
  0.56250000000000000       0.87500000000000000        0.0000000000000000     
  0.62500000000000000       0.87500000000000000        0.0000000000000000     
  0.62500000000000000       0.93750000000000000        0.0000000000000000     
  0.53749999999999998       0.91249999999999998        0.0000000000000000     
  0.58125000000000004       0.91874999999999996        0.0000000000000000     
  0.58750000000000002       0.96250000000000002        0.0000000000000000     
  0.54374999999999996       0.95625000000000004        0.0000000000000000     
  0.68750000000000000       0.87500000000000000        0.0000000000000000     
  0.75000000000000000       0.87500000000000000        0.0000000000000000     
  0.75000000000000000       0.93750000000000000        0.0000000000000000     
  0.66249999999999998       0.91249999999999998        0.0000000000000000     
  0.70625000000000004       0.91874999999999996        0.0000000000000000     
  0.71250000000000002       0.96250000000000002        0.0000000000000000     
[...]
 CELL_DATA         896
 SCALARS Cells_density float
 LOOKUP_TABLE default
    0.98996614934878879311E+00
    0.98996335436800964036E+00
    0.98995271575859744573E+00
    0.98994803873774706027E+00
    0.98995900300049222142E+00
    0.98995585789099616036E+00
    0.98996610563766085367E+00
    0.98997019498064986465E+00
    0.98997395700741264157E+00
    0.98997431443155481379E+00
    0.98997187867631120106E+00
    0.98997094574374755460E+00
    0.98996713415452020079E+00
    0.98996630238209215591E+00
    0.98989552794803303826E+00
    0.98984573589910951341E+00
    0.98971146486367977957E+00
    0.98961537263500432005E+00
    0.98975187204685632913E+00
    0.98967241387616478043E+00
    0.98981262959379945343E+00
    0.98988287007201181122E+00
    0.98993257060543127235E+00
    0.98994555596321687219E+00
    0.98992573230281366570E+00
    0.98993433918653273018E+00
    0.98988047540119905587E+00
    0.98986198497208921498E+00
    0.98993965463040078934E+00
    0.98993401122208535270E+00
    0.98990852233766024604E+00
    0.98989576956998259760E+00
    0.98992536537711328659E+00
    0.98992127619540437600E+00
    0.98994715382380138458E+00
    0.98995347421909996033E+00
    0.98996303982876177052E+00
    0.98996178061118556002E+00
    0.98995335336558543116E+00
    0.98994896349599337260E+00
    0.98994470197083450635E+00
    0.98994353090972364573E+00
    0.98976155113193897694E+00
    0.98962341004741827266E+00
    0.98924688921357073479E+00
    0.98897365025630090685E+00
    0.98940522305374600798E+00
    0.98928025020227705610E+00
    0.98965905642481732940E+00
    0.98977172085325959561E+00
    0.98988265721583079682E+00
    0.98990026557009258568E+00
    0.98984379545015765967E+00
    0.98986227750767830091E+00
    0.98973061937876438687E+00
    0.98969252877815094838E+00
    0.98797461015793652805E+00
    0.28248702635662410396E-02
    0.12415162555797784715E-05
    0.99649825763358873082E-06
   -0.55289620591821233430E-06
   -0.54902698498843882937E-07
    0.80449612170933990174E-06
    0.30316841815261432770E-02
    0.98857468429978778701E+00
    0.98950877993638808316E+00
    0.98812919778917751579E+00
    0.98939080933240763915E+00
    0.30350005794632689722E-02
    0.11065494539814849049E-04
   -0.25422126434881757960E-06
   -0.63722948395541698012E-06
    0.11735340550260848489E-05
    0.11726610523516033478E-05
   -0.70219672880151044908E-06
   -0.24692376059801581987E-06
    0.77257620132361294451E-06
   -0.53546852352688779766E-06
    0.36188823145522426051E-06
    0.11092152516407631206E-05
    0.35797364835434878899E-06
   -0.22196276886640228052E-06
    0.12789118845313062259E-04
    0.12427267186884696039E-04
    0.98485354966108429320E+00
    0.71618819771315494344E-02
    0.17505330823808357031E-05
    0.99640051373725976363E-06
   -0.55287666725975609119E-06
   -0.54408839304878556822E-07
    0.34842335448750931936E-06
    0.61390161631746662310E-02
    0.98774075688399398665E+00
    0.98890175293557125435E+00
    0.98619132817240617861E+00
    0.98827880633257614296E+00
    0.71969991711019372371E-02
    0.14248020151398175511E-04
   -0.25131464206724805913E-06
   -0.63594673152492222622E-06
    0.11648067860853287230E-05
    0.41775272027275626769E-06
   -0.70596160969134804330E-06
    0.10867268492479086457E-06
   -0.24523792511405804998E-06
   -0.57385265822961170645E-06
    0.10959034285544200228E-05
    0.11371365366771264606E-05
    0.35861780453203552166E-06
   -0.22225442343361972249E-06
    0.12777941755019403026E-04
    0.12429169662511777944E-04
    0.98990731914471230546E+00
    0.98988904736394056627E+00
    0.98984082731881517514E+00
    0.98980224956057960561E+00
    0.98985665739108064098E+00
    0.98983726401642857518E+00
    0.98989782817097604628E+00
    0.98991485253036548553E+00
    0.98993444583163892059E+00
    0.98993346771127688211E+00
    0.98992199342954234620E+00
    0.98991978309129746716E+00
    0.98990434795821324876E+00
    0.98989871447584276698E+00
    0.98952276404524708298E+00
    0.98914990232995758657E+00
    0.98823119175585660834E+00
    0.98727172773424742847E+00
    0.98843091191229393022E+00
    0.98791707025217245786E+00
    0.98909751718668093012E+00
    0.98942936044055374012E+00
    0.98973161833417577782E+00
    0.98978408747341517504E+00
    0.98965515253077862567E+00
    0.98972488884732401360E+00
    0.98936842634955157738E+00
    0.98925286168129245024E+00
    0.98988973784108746923E+00
    0.98985907622570445952E+00
    0.98979771705736874221E+00
    0.98972775518144673335E+00
    0.98978880782644018677E+00
    0.98972842687554529739E+00
    0.98982905392863773653E+00
    0.98987047396607985572E+00
    0.98990312750958842081E+00
    0.98990636488755756606E+00
    0.98989536883257511768E+00
    0.98989997517213512701E+00
    0.98986968216407467125E+00
    0.98985646696134366174E+00
    0.98936688000812622601E+00
    0.98872130396074753289E+00
    0.98735805689004729757E+00
    0.98505950568903044573E+00
    0.98695147032424968003E+00
    0.98492427492060241612E+00
    0.98800571348517518544E+00
    0.98886939020275155254E+00
    0.98949008016071704485E+00
    0.98962612102850522344E+00
    0.98944442539622867727E+00
    0.98961260353582125582E+00
    0.98893845793188284166E+00
    0.98867275362689388540E+00
    0.97360508542591761572E+00
    0.26255152400408710012E-01
    0.90688427342063665618E-05
    0.10054346057195654997E-05
   -0.54728008267360167485E-06
   -0.53005547176119255572E-07
    0.45964670119743824793E-05
    0.17932433987499173805E-01
    0.98415293233152478791E+00
    0.98666240299024576821E+00
    0.97767052101522322616E+00
    0.98480034001622474005E+00
    0.23261771233732794067E-01
    0.48197057195764867767E-04
    0.20110873876500289541E-05
   -0.59006855645428710802E-06
    0.42275815546978600496E-06
    0.41598859648147470019E-06
   -0.62880737463229710563E-07
    0.15674240391374287428E-06
   -0.24237634789940871411E-06
   -0.51162969115005032511E-06
    0.10960439989082830743E-05
    0.11359521159354329585E-05
    0.39179592597385409747E-06
   -0.56437840514269304941E-07
    0.12697182538219525669E-04
    0.12428940661036145149E-04
    0.95923739308983824170E+00
    0.63956264245650235045E-01
    0.39972923474945417678E-03
    0.26983330468063819289E-02
    0.27449629036385030968E-03
    0.81353635228524829367E-04
    0.42133947987359271156E-04
    0.50296009377759458292E-01
    0.97315487339422368507E+00
    0.98116880751228552349E+00
    0.94743090505822047387E+00
    0.97901846116181212576E+00
    0.68015825108455205128E-01
    0.32016684911086119641E-03
    0.10114170190661417661E-01
    0.12599406650841220821E-02
    0.14395168333953889595E-04
    0.12249457000699794131E-04
    0.82662122199276883881E-05
    0.28436777548567420251E-05
    0.46692638605753490379E-06
    0.10942398257130337249E-03
    0.85740877874720538036E-04
    0.49519833857076189180E-03
    0.34710431838897446225E-02
    0.64838377615397749243E-02
    0.38733549792461998296E-03
    0.22138915092811236511E-04
   -0.24505763182710944318E-06
   -0.58448691872934984732E-06
    0.10964040752576314859E-05
    0.11373633775822107791E-05
    0.34820696355977539542E-06
   -0.13740107446972048414E-06
    0.70967963034887462726E-06
   -0.66498839062638807475E-06
    0.42114841830589145787E-06
    0.11737560637289024061E-05
   -0.70289455764134870721E-06
   -0.24695218154185083582E-06
    0.12434534833723149888E-04
    0.12794362936239928087E-04
   -0.43454334346479151789E-07
    0.34969911184876741744E-02
    0.98804615069707246722E+00
    0.98933578407946454192E+00
    0.98817143275457342000E+00
    0.98954920815655333932E+00
    0.98855006917803955879E+00
    0.26021713268976399448E-02
    0.54754359081672482889E-06
    0.10064927393346803376E-05
   -0.55311944014917610672E-06
   -0.55088559142615294213E-07
    0.11057345246400300160E-04
    0.28070198892800619223E-02
   -0.23855284065991321211E-06
   -0.60100100151955568949E-06
    0.10948807457276222892E-05
    0.11380236127733093655E-05
    0.35388690372590172005E-06
   -0.22199522656356508266E-06
   -0.25499695809481217978E-06
   -0.63839641027367221546E-06
    0.11731519069098360713E-05
    0.79641522580058597213E-06
   -0.70134233347360322395E-06
    0.15601494835311615845E-06
    0.12435946322626621337E-04
    0.12803058684556869022E-04
    0.89912196031000964797E-06
    0.88910952475055680250E-02
    0.98514405407453198293E+00
    0.98813925218230858061E+00
    0.98645520624317550862E+00
    0.98901421876250994458E+00
    0.98777975403172979529E+00
    0.54182645182506705694E-02
    0.15255700232448237022E-05
    0.99695593033689820411E-06
   -0.55410700923134940029E-06
   -0.54088932608154370132E-07
    0.14264132087082432795E-04
    0.61121025382579454929E-02
    0.98970159047879180392E+00
    0.98984180405722921314E+00
    0.98990169653896742386E+00
    0.98993203517086725274E+00
    0.98992801966978172246E+00
    0.98994955535345197095E+00
    0.98993362437165854928E+00
    0.98988876270751136044E+00
    0.98981466591447497816E+00
    0.98971119840705923387E+00
    0.98974936773550592495E+00
    0.98956380030838952955E+00
    0.98985549037440490050E+00
    0.98988689478898417295E+00
    0.98995235838980444321E+00
    0.98996428781136491803E+00
    0.98996823156758406714E+00
    0.98997183351385553696E+00
    0.98997280720420877120E+00
    0.98997523393372655054E+00
    0.98997491671107074040E+00
    0.98997132966935985632E+00
    0.98996713866915586610E+00
    0.98995964244295497902E+00
    0.98996000421979890582E+00
    0.98994571593419522504E+00
    0.98996699443932145712E+00
    0.98997010782609928814E+00
    0.98922063689954997656E+00
    0.98961488063141167526E+00
    0.98977493809417349535E+00
    0.98985441240092186810E+00
    0.98985008033243671033E+00
    0.98990855508994690659E+00
    0.98988843076284216416E+00
    0.98978556994143607195E+00
    0.98965232066684349910E+00
    0.98938090723820948380E+00
    0.98940023865031301309E+00
    0.98882084125372460282E+00
    0.98966952107951944306E+00
    0.98975514545304310587E+00
    0.98990697022869056365E+00
    0.98993411043473311661E+00
    0.98994249596609151798E+00
    0.98994983686677184842E+00
    0.98995480882246023047E+00
    0.98996301298839339822E+00
    0.98996507933318245165E+00
    0.98995536097236702666E+00
    0.98994727028825113546E+00
    0.98992879321134230608E+00
    0.98992569878932135108E+00
    0.98988880636451725969E+00
    0.98994083261115872752E+00
    0.98994828676592061534E+00
    0.16538699637370536042E-06
   -0.60438875739354396636E-06
    0.14204754318122886295E-05
    0.11590259328723866385E-05
    0.37743743705168382342E-06
   -0.22019830586858556041E-06
   -0.25727319091505377386E-06
   -0.64041381398797845183E-06
    0.11630477155652535654E-05
    0.41599817406471936521E-06
   -0.63504135736738309716E-07
    0.15680171616309029678E-06
    0.12446679789987421077E-04
    0.12866592080130747841E-04
    0.12665112376363026549E-04
    0.30759165510311502895E-01
    0.97457689476022746344E+00
    0.98445498120402341602E+00
    0.97913914142832370047E+00
    0.98701292366372506137E+00
    0.98428443256087172486E+00
    0.15732949492057841934E-01
    0.43215681198539552418E-05
    0.99568345111004213086E-06
   -0.55494566383335751441E-06
   -0.47581696004237624322E-07
    0.52411736357905352492E-04
    0.19595648721068652937E-01
    0.13671232622524878827E-04
    0.10413340558482646944E-02
    0.99008135926531640192E-02
    0.66462038197023292838E-02
    0.16183786029752150748E-02
    0.12769528879794347551E-03
    0.38155818298036803498E-04
    0.33166159889499687626E-03
    0.88681060511772641830E-06
    0.27140690434915857610E-05
    0.80922809749319956702E-05
    0.11928168729794764191E-04
    0.20263571849892212946E-04
    0.19236365183652524131E-03
    0.45122316051931528726E-03
    0.72973954471195978666E-01
    0.95953851148542035343E+00
    0.97853382142578659852E+00
    0.95216168807344647718E+00
    0.98187711809859445911E+00
    0.97329558438566721179E+00
    0.43891720270534839710E-01
    0.25464421577240502626E-04
    0.14031574844810114442E-04
    0.35921440789890839596E-03
    0.31431281215979871291E-02
    0.34343858595062011062E-03
    0.61093579860187145758E-01
    0.98818780092350688715E+00
    0.98912499313388602129E+00
    0.98954122526327126241E+00
    0.98970572771106135601E+00
    0.98966848282621822097E+00
    0.98980367439327721080E+00
    0.98974396305509571015E+00
    0.98946831020778736043E+00
    0.98908320192910992308E+00
    0.98826567233253770350E+00
    0.98842640640639622962E+00
    0.98671812557509186448E+00
    0.98920657977852866072E+00
    0.98941718038580950267E+00
    0.98983878170641337313E+00
    0.98988843711049334662E+00
    0.98990977175447669723E+00
    0.98991973061564719760E+00
    0.98992364015465761362E+00
    0.98993476762642784728E+00
    0.98993709777217242518E+00
    0.98991707286389185594E+00
    0.98989657340669390262E+00
    0.98985384888409266857E+00
    0.98985724544645070644E+00
    0.98978397770310300174E+00
    0.98989585487496867255E+00
    0.98990937151774760494E+00
    0.98734120504062783397E+00
    0.98865947039203094793E+00
    0.98937174988996534619E+00
    0.98957868914917657133E+00
    0.98945334836114684496E+00
    0.98965932620497698569E+00
    0.98950247681249314802E+00
    0.98894284209545102460E+00
    0.98798923741991750980E+00
    0.98601345748504853894E+00
    0.98695549126460846434E+00
    0.98362129194508796104E+00
    0.98863756633381394412E+00
    0.98897294439233973673E+00
    0.98979683174523114264E+00
    0.98985661379207301458E+00
    0.98989014173703526733E+00
    0.98989895152408735601E+00
    0.98989636859042950956E+00
    0.98990739296026120098E+00
    0.98990498363849499519E+00
    0.98987393135306267489E+00
    0.98982851047071040984E+00
    0.98975778407513304025E+00
    0.98978889477441944766E+00
    0.98969702475271470465E+00
    0.98985485253951654983E+00
    0.98987246021127850426E+00
    0.98990485507566727819E+00
    0.98987388414198007602E+00
    0.98982861190359361370E+00
    0.98975784145300571559E+00
    0.98978890108954520333E+00
    0.98969707911851201310E+00
    0.98979693492681242173E+00
    0.98985657463715881477E+00
    0.98989003808278486218E+00
    0.98989894681824852629E+00
    0.98989634287506311772E+00
    0.98990737500569703222E+00
    0.98987244179041045111E+00
    0.98985484672211665469E+00
    0.98950236823055681690E+00
    0.98894279993754541369E+00
    0.98798937213229931498E+00
    0.98601352038821021839E+00
    0.98695550513975971452E+00
    0.98362135879546486184E+00
    0.98734135506715836605E+00
    0.98865943803297628989E+00
    0.98937165037172303261E+00
    0.98957869230419792661E+00
    0.98945332951504594288E+00
    0.98965933447143272783E+00
    0.98897292919939494560E+00
    0.98863756474599762125E+00
    0.98993695851231389149E+00
    0.98991702584669583054E+00
    0.98989667362164579512E+00
    0.98985390737844480835E+00
    0.98985725370558463876E+00
    0.98978403203654663489E+00
    0.98983888880410431099E+00
    0.98988839825340391165E+00
    0.98990966819650005881E+00
    0.98991972854387999536E+00
    0.98992361848719556683E+00
    0.98993473869350501193E+00
    0.98990935339745855792E+00
    0.98989584958232867962E+00
    0.98974385884999949159E+00
    0.98946826757343941949E+00
    0.98908331719124653603E+00
    0.98826573421291552535E+00
    0.98842641870753655819E+00
    0.98671819204846333839E+00
    0.98818794225815409504E+00
    0.98912495909813025197E+00
    0.98954112797110660438E+00
    0.98970573228875058369E+00
    0.98966846609140701752E+00
    0.98980368351172609565E+00
    0.98941716642953680960E+00
    0.98920657858959082365E+00
    0.97329528186450409155E+00
    0.43891859517419175296E-01
    0.25464521430587261402E-04
    0.14031574227843091114E-04
    0.35921420278623209486E-03
    0.31431265683620744113E-02
    0.45122343081358505523E-03
    0.72974245250170738375E-01
    0.95953804352688543133E+00
    0.97853377639138083843E+00
    0.95216165280451259267E+00
    0.98187709196687456004E+00
    0.61093563694299114764E-01
    0.34343922963366084423E-03
    0.38155831746348088608E-04
    0.33166167748227266907E-03
    0.88681069392675670456E-06
    0.27140690326898705224E-05
    0.80922810291476269493E-05
    0.11928168876881120686E-04
    0.13671247087631193594E-04
    0.10413327751217459332E-02
    0.99008057100955122742E-02
    0.66462007948062482715E-02
    0.16183780342481641611E-02
    0.12769527281330183242E-03
    0.19236303051065354805E-03
    0.20263578119956965313E-04
    0.98428427560675624264E+00
    0.15732945093898859090E-01
    0.43215606329117782096E-05
    0.99568345892644480395E-06
   -0.55494596378105325938E-06
   -0.47581814163746234648E-07
    0.12665139646435196328E-04
    0.30759230024459481567E-01
    0.97457660720141248145E+00
    0.98445496588951675321E+00
    0.97913911550031806907E+00
    0.98701292391265427195E+00
    0.19595628202987349503E-01
    0.52411735907538584958E-04
   -0.25727380032924027114E-06
   -0.64041383416375628391E-06
    0.11630475727152154654E-05
    0.41599817185105106185E-06
   -0.63504136008434014010E-07
    0.15680172212038961420E-06
    0.16538740614833515029E-06
   -0.60438757312689052324E-06
    0.14204462510188803082E-05
    0.11590248085088260676E-05
    0.37743781607944691485E-06
   -0.22019833101390513816E-06
    0.12866592003475248672E-04
    0.12446679627382141968E-04
    0.98996493971484256225E+00
    0.98995531490238963812E+00
    0.98994737149817912947E+00
    0.98992885348740833340E+00
    0.98992570855671324637E+00
    0.98988886060812952827E+00
    0.98990707614718653762E+00
    0.98993407169451763661E+00
    0.98994239293059327345E+00
    0.98994983497509825288E+00
    0.98995478761363897569E+00
    0.98996298260720783091E+00
    0.98994826916992040289E+00
    0.98994082766690516539E+00
    0.98988833141764809298E+00
    0.98978552826137367049E+00
    0.98965242960274124595E+00
    0.98938097084676590587E+00
    0.98940025120902974631E+00
    0.98882090297455149663E+00
    0.98922075834969280805E+00
    0.98961484551229450535E+00
    0.98977484483325151032E+00
    0.98985441863895418102E+00
    0.98985006597438562892E+00
    0.98990856607816180013E+00
    0.98975513247909663317E+00
    0.98966951993717822145E+00
    0.98997491857543851168E+00
    0.98997132693485112576E+00
    0.98996713684085568818E+00
    0.98995973456433850046E+00
    0.98996003724573089499E+00
    0.98994577518418636064E+00
    0.98995246370754697018E+00
    0.98996425288129441533E+00
    0.98996813124528748595E+00
    0.98997183523208620581E+00
    0.98997279666729487424E+00
    0.98997523385450891809E+00
    0.98997009572966931934E+00
    0.98996699125867781976E+00
    0.98993366145464356531E+00
    0.98988877200828873093E+00
    0.98981467017836044509E+00
    0.98971129441401128890E+00
    0.98974939832713759724E+00
    0.98956386524258510562E+00
    0.98970170306378779657E+00
    0.98984177464607647767E+00
    0.98990160972672003314E+00
    0.98993204679505308885E+00
    0.98992805532271166413E+00
    0.98994969929592124824E+00
    0.98988689643004945662E+00
    0.98985549428033414721E+00
    0.98777964203344281735E+00
    0.54182154753793093649E-02
    0.15255624841085027182E-05
    0.99695590224292890264E-06
   -0.55410730638409042332E-06
   -0.54088872185771458925E-07
    0.89910930417345844973E-06
    0.88910507497221569206E-02
    0.98514390939787077617E+00
    0.98813925514388278870E+00
    0.98645519452913144054E+00
    0.98901422828901575102E+00
    0.61120745129330036893E-02
    0.14264092317152251969E-04
   -0.25499752325205059644E-06
   -0.63839633938742901212E-06
    0.11731516214832170468E-05
    0.79641521768450367758E-06
   -0.70134273172833182713E-06
    0.15601495202101324200E-06
   -0.23855226110987136807E-06
   -0.60100090826440404095E-06
    0.10948809657226842499E-05
    0.11380236406787992249E-05
    0.35388728933254573118E-06
   -0.22199528493169002062E-06