# vtk DataFile Version 3.0
LAPLACIEN  2D
ASCII
DATASET UNSTRUCTURED_GRID
 POINTS         481  float
   6.2500000000000000E-002  0.87500000000000000        0.0000000000000000     
  0.12500000000000000       0.87500000000000000        0.0000000000000000     
  0.12500000000000000       0.93750000000000000        0.0000000000000000     
   3.7499999999999999E-002  0.91249999999999998        0.0000000000000000     
   8.1250000000000003E-002  0.91874999999999996        0.0000000000000000     
   8.7499999999999994E-002  0.96250000000000002        0.0000000000000000     
   4.3749999999999997E-002  0.95625000000000004        0.0000000000000000     
  0.18750000000000000       0.87500000000000000        0.0000000000000000     
  0.25000000000000000       0.87500000000000000        0.0000000000000000     
  0.25000000000000000       0.93750000000000000        0.0000000000000000     
  0.16250000000000001       0.91249999999999998        0.0000000000000000     
  0.20624999999999999       0.91874999999999996        0.0000000000000000     
  0.21249999999999999       0.96250000000000002        0.0000000000000000     
  0.16875000000000001       0.95625000000000004        0.0000000000000000     
   6.2500000000000000E-002  0.75000000000000000        0.0000000000000000     
  0.12500000000000000       0.75000000000000000        0.0000000000000000     
  0.12500000000000000       0.81250000000000000        0.0000000000000000     
   3.7499999999999999E-002  0.78749999999999998        0.0000000000000000     
   8.1250000000000003E-002  0.79374999999999996        0.0000000000000000     
   8.7499999999999994E-002  0.83750000000000002        0.0000000000000000     
   4.3749999999999997E-002  0.83125000000000004        0.0000000000000000     
  0.18750000000000000       0.75000000000000000        0.0000000000000000     
  0.25000000000000000       0.75000000000000000        0.0000000000000000     
  0.25000000000000000       0.81250000000000000        0.0000000000000000     
  0.16250000000000001       0.78749999999999998        0.0000000000000000     
  0.20624999999999999       0.79374999999999996        0.0000000000000000     
  0.21249999999999999       0.83750000000000002        0.0000000000000000     
  0.16875000000000001       0.83125000000000004        0.0000000000000000     
  0.31250000000000000       0.87500000000000000        0.0000000000000000     
  0.37500000000000000       0.87500000000000000        0.0000000000000000     
  0.37500000000000000       0.93750000000000000        0.0000000000000000     
  0.28749999999999998       0.91249999999999998        0.0000000000000000     
  0.33124999999999999       0.91874999999999996        0.0000000000000000     
  0.33750000000000002       0.96250000000000002        0.0000000000000000     
  0.29375000000000001       0.95625000000000004        0.0000000000000000     
  0.43750000000000000       0.87500000000000000        0.0000000000000000     
  0.50000000000000000       0.87500000000000000        0.0000000000000000     
  0.50000000000000000       0.93750000000000000        0.0000000000000000     
  0.41249999999999998       0.91249999999999998        0.0000000000000000     
  0.45624999999999999       0.91874999999999996        0.0000000000000000     
  0.46250000000000002       0.96250000000000002        0.0000000000000000     
  0.41875000000000001       0.95625000000000004        0.0000000000000000     
  0.31250000000000000       0.75000000000000000        0.0000000000000000     
  0.37500000000000000       0.75000000000000000        0.0000000000000000     
  0.37500000000000000       0.81250000000000000        0.0000000000000000     
  0.28749999999999998       0.78749999999999998        0.0000000000000000     
  0.33124999999999999       0.79374999999999996        0.0000000000000000     
  0.33750000000000002       0.83750000000000002        0.0000000000000000     
  0.29375000000000001       0.83125000000000004        0.0000000000000000     
  0.43750000000000000       0.75000000000000000        0.0000000000000000     
  0.50000000000000000       0.75000000000000000        0.0000000000000000     
  0.50000000000000000       0.81250000000000000        0.0000000000000000     
  0.41249999999999998       0.78749999999999998        0.0000000000000000     
  0.45624999999999999       0.79374999999999996        0.0000000000000000     
  0.46250000000000002       0.83750000000000002        0.0000000000000000     
  0.41875000000000001       0.83125000000000004        0.0000000000000000     
   6.2500000000000000E-002  0.62500000000000000        0.0000000000000000     
  0.12500000000000000       0.62500000000000000        0.0000000000000000     
  0.12500000000000000       0.68750000000000000        0.0000000000000000     
   3.7499999999999999E-002  0.66249999999999998        0.0000000000000000     
   8.1250000000000003E-002  0.66874999999999996        0.0000000000000000     
   8.7499999999999994E-002  0.71250000000000002        0.0000000000000000     
   4.3749999999999997E-002  0.70625000000000004        0.0000000000000000     
  0.18750000000000000       0.62500000000000000        0.0000000000000000     
  0.25000000000000000       0.62500000000000000        0.0000000000000000     
  0.25000000000000000       0.68750000000000000        0.0000000000000000     
  0.16250000000000001       0.66249999999999998        0.0000000000000000     
  0.20624999999999999       0.66874999999999996        0.0000000000000000     
  0.21249999999999999       0.71250000000000002        0.0000000000000000     
  0.16875000000000001       0.70625000000000004        0.0000000000000000     
   6.2500000000000000E-002  0.50000000000000000        0.0000000000000000     
  0.12500000000000000       0.50000000000000000        0.0000000000000000     
  0.12500000000000000       0.56250000000000000        0.0000000000000000     
   3.7499999999999999E-002  0.53749999999999998        0.0000000000000000     
   8.1250000000000003E-002  0.54374999999999996        0.0000000000000000     
   8.7499999999999994E-002  0.58750000000000002        0.0000000000000000     
   4.3749999999999997E-002  0.58125000000000004        0.0000000000000000     
  0.18750000000000000       0.50000000000000000        0.0000000000000000     
  0.25000000000000000       0.50000000000000000        0.0000000000000000     
  0.25000000000000000       0.56250000000000000        0.0000000000000000     
  0.16250000000000001       0.53749999999999998        0.0000000000000000     
  0.20624999999999999       0.54374999999999996        0.0000000000000000     
  0.21249999999999999       0.58750000000000002        0.0000000000000000     
  0.16875000000000001       0.58125000000000004        0.0000000000000000     
  0.31250000000000000       0.62500000000000000        0.0000000000000000     
  0.37500000000000000       0.62500000000000000        0.0000000000000000     
  0.37500000000000000       0.68750000000000000        0.0000000000000000     
  0.28749999999999998       0.66249999999999998        0.0000000000000000     
  0.33124999999999999       0.66874999999999996        0.0000000000000000     
  0.33750000000000002       0.71250000000000002        0.0000000000000000     
  0.29375000000000001       0.70625000000000004        0.0000000000000000     
  0.43750000000000000       0.62500000000000000        0.0000000000000000     
  0.50000000000000000       0.62500000000000000        0.0000000000000000     
  0.50000000000000000       0.68750000000000000        0.0000000000000000     
  0.41249999999999998       0.66249999999999998        0.0000000000000000     
  0.45624999999999999       0.66874999999999996        0.0000000000000000     
  0.46250000000000002       0.71250000000000002        0.0000000000000000     
  0.41875000000000001       0.70625000000000004        0.0000000000000000     
  0.31250000000000000       0.50000000000000000        0.0000000000000000     
  0.37500000000000000       0.50000000000000000        0.0000000000000000     
  0.37500000000000000       0.56250000000000000        0.0000000000000000     
  0.28749999999999998       0.53749999999999998        0.0000000000000000     
  0.33124999999999999       0.54374999999999996        0.0000000000000000     
  0.33750000000000002       0.58750000000000002        0.0000000000000000     
  0.29375000000000001       0.58125000000000004        0.0000000000000000     
  0.43750000000000000       0.50000000000000000        0.0000000000000000     
  0.50000000000000000       0.50000000000000000        0.0000000000000000     
  0.50000000000000000       0.56250000000000000        0.0000000000000000     
  0.41249999999999998       0.53749999999999998        0.0000000000000000     
  0.45624999999999999       0.54374999999999996        0.0000000000000000     
  0.46250000000000002       0.58750000000000002        0.0000000000000000     
  0.41875000000000001       0.58125000000000004        0.0000000000000000     
  0.56250000000000000       0.87500000000000000        0.0000000000000000     
  0.62500000000000000       0.87500000000000000        0.0000000000000000     
  0.62500000000000000       0.93750000000000000        0.0000000000000000     
  0.53749999999999998       0.91249999999999998        0.0000000000000000     
  0.58125000000000004       0.91874999999999996        0.0000000000000000     
  0.58750000000000002       0.96250000000000002        0.0000000000000000     
  0.54374999999999996       0.95625000000000004        0.0000000000000000     
  0.68750000000000000       0.87500000000000000        0.0000000000000000     
  0.75000000000000000       0.87500000000000000        0.0000000000000000     
  0.75000000000000000       0.93750000000000000        0.0000000000000000     
  0.66249999999999998       0.91249999999999998        0.0000000000000000     
  0.70625000000000004       0.91874999999999996        0.0000000000000000     
  0.71250000000000002       0.96250000000000002        0.0000000000000000     
[...]
 CELL_DATA         896
 SCALARS Cells_density float
 LOOKUP_TABLE default
    0.98996247868846765083E+00
    0.98995787661503120702E+00
    0.98994274629169232149E+00
    0.98993456520151157374E+00
    0.98994990855753572934E+00
    0.98994375548913204899E+00
    0.98995935902418907837E+00
    0.98996606564381650628E+00
    0.98997170221245123223E+00
    0.98997238468916692877E+00
    0.98996931307400948263E+00
    0.98996851053099510498E+00
    0.98996244212454764799E+00
    0.98996089192189407058E+00
    0.98985648605570852876E+00
    0.98977755727394012286E+00
    0.98957437525016533897E+00
    0.98942421564102278619E+00
    0.98962809400680151750E+00
    0.98950215601912228092E+00
    0.98971937322604974785E+00
    0.98982948536544179685E+00
    0.98990709289412726068E+00
    0.98992775495853413403E+00
    0.98989832017083279059E+00
    0.98991376902572147944E+00
    0.98982798859152376636E+00
    0.98979865488322160694E+00
    0.98993238269365846360E+00
    0.98992302717333036099E+00
    0.98988800152024081225E+00
    0.98986779133868918468E+00
    0.98990763770265555177E+00
    0.98989914575187698542E+00
    0.98993578180706642833E+00
    0.98994603374013090402E+00
    0.98995899078894289413E+00
    0.98995822160339441709E+00
    0.98994823566662648595E+00
    0.98994392450995194466E+00
    0.98993600299700323930E+00
    0.98993354284559331724E+00
    0.98967787926353090189E+00
    0.98947330783476383775E+00
    0.98893316280888077241E+00
    0.98852138176279980009E+00
    0.98913815948972649839E+00
    0.98893625784208549767E+00
    0.98950063845194069501E+00
    0.98967333568529403109E+00
    0.98983916708242225546E+00
    0.98986776323629155350E+00
    0.98978776731613760109E+00
    0.98981911487848095454E+00
    0.98962132185499818160E+00
    0.98956339100580459345E+00
    0.98659662280448112703E+00
    0.48493707399837084060E-02
    0.23525758323899457339E-05
    0.14840523660299188027E-05
   -0.97142481755340077330E-06
   -0.57420927304959993447E-08
    0.14608443281575802363E-05
    0.50828830382314022646E-02
    0.98756445546665838631E+00
    0.98924813819641455037E+00
    0.98669011899623060291E+00
    0.98907767393674284051E+00
    0.51146956893017977638E-02
    0.18833997110618079420E-04
   -0.53611545136992869748E-06
   -0.12055542223747287601E-05
    0.19627882136085126958E-05
    0.19604283266603603869E-05
   -0.13934997651320850195E-05
   -0.50953150899876714862E-06
    0.10352044212907839773E-05
   -0.94322819653045790728E-06
    0.29740110302935464851E-06
    0.17728415941170187632E-05
    0.14847361058314741681E-05
   -0.39679455691697526807E-06
    0.21555360003689408776E-04
    0.20565268845885187354E-04
    0.98149067648109733497E+00
    0.12055848791375148657E-01
    0.49771288396787430287E-05
    0.14835076528019571164E-05
   -0.97035545785041742563E-06
    0.50125850196864585338E-08
    0.21872987435617984121E-05
    0.98496426272307539135E-02
    0.98620573072423522998E+00
    0.98836710713627795588E+00
    0.98323995518881746047E+00
    0.98746795876048742979E+00
    0.11752740762709426234E-01
    0.33702209813296589154E-04
   -0.52970682984668945708E-06
   -0.12034466806555002891E-05
    0.19308260394974581255E-05
    0.46989642191220554783E-06
   -0.14068018410197187471E-05
    0.18796405363720116299E-06
   -0.49940182783264704078E-06
   -0.10320922547386274436E-05
    0.17373630607783096936E-05
    0.18808878814455139648E-05
    0.14862381920409967178E-05
   -0.39740179249722563850E-06
    0.21522575375548053735E-04
    0.20565923535288964689E-04
    0.98989514398760869440E+00
    0.98986968785887996525E+00
    0.98980491618688182243E+00
    0.98975061785216367216E+00
    0.98982246927072103926E+00
    0.98979196483545239804E+00
    0.98987460038386676509E+00
    0.98990008392455819397E+00
    0.98992646473348877567E+00
    0.98992637749410283821E+00
    0.98991242907109577853E+00
    0.98991082990410739217E+00
    0.98988846648610906431E+00
    0.98988004199314905129E+00
    0.98937117899955984157E+00
    0.98884999729005107483E+00
    0.98757803548692812967E+00
    0.98617189674192462512E+00
    0.98780367486764442120E+00
    0.98701154081065234358E+00
    0.98873475935000409986E+00
    0.98921204252472205720E+00
    0.98963953832780582331E+00
    0.98971704487247691429E+00
    0.98954279217911667033E+00
    0.98964427611784699934E+00
    0.98914277621772006555E+00
    0.98898136871089181721E+00
    0.98987490908903441600E+00
    0.98983405693062553876E+00
    0.98975239659183911201E+00
    0.98965818431088103946E+00
    0.98973885192309474235E+00
    0.98965557504656298526E+00
    0.98979040354643255117E+00
    0.98984720325100705729E+00
    0.98989032772394447424E+00
    0.98989540272697085221E+00
    0.98988182195824814258E+00
    0.98988827755632613492E+00
    0.98984748192646532239E+00
    0.98982947754602323975E+00
    0.98917371606810244877E+00
    0.98828965196314844111E+00
    0.98641173279113314454E+00
    0.98299366598052695387E+00
    0.98576004656647708835E+00
    0.98263986373944189889E+00
    0.98728443263400311736E+00
    0.98847593894030116868E+00
    0.98933088647614630950E+00
    0.98951709676301091712E+00
    0.98927431168217649926E+00
    0.98950297992320179752E+00
    0.98858427015042904529E+00
    0.98822995429302151749E+00
    0.96194637740357546996E+00
    0.43370074243699124894E-01
    0.42126426672063616149E-04
    0.15377934190066943884E-05
   -0.95746348911472738583E-06
    0.78797599410603287401E-08
    0.20726045335901680211E-04
    0.27548076299964606439E-01
    0.98039934683135998572E+00
    0.98514840872747688749E+00
    0.96702262488115642292E+00
    0.98227616698060837841E+00
    0.38143182781271212090E-01
    0.19644118501254369518E-03
    0.26673026374304168263E-05
   -0.12374529012044535783E-05
    0.46981711790648436847E-06
    0.46988180696155451104E-06
   -0.30161255589857216515E-06
    0.18801623646154596666E-06
   -0.49590891003701863687E-06
   -0.92746296792293052470E-06
    0.17409551271150826592E-05
    0.18808360846100681563E-05
    0.15279239819766229279E-05
    0.19202568884084502239E-07
    0.21396222714984773459E-04
    0.20596398983117615691E-04
    0.93589721237776468676E+00
    0.10484975226430863493E+00
    0.12738027775117360778E-02
    0.35718083085280469616E-02
    0.80918819892434148185E-03
    0.19924431327320081563E-03
    0.18553352680968931043E-03
    0.77352976712585147512E-01
    0.96191605466466212349E+00
    0.97677077124331024294E+00
    0.90228037453688203495E+00
    0.97264978502912780023E+00
    0.12175037967460838884E+00
    0.17081676220183951431E-02
    0.71215920016416047605E-02
    0.25404834283800099143E-02
    0.12075059941640032570E-04
    0.48368848156455440196E-06
   -0.51009603778400839438E-07
    0.19107322655411633363E-06
    0.21087003484688320691E-06
    0.97608416456457174179E-04
    0.94035519028776016321E-04
    0.67910695852257778327E-03
    0.30920481411074603705E-02
    0.54303096660196390963E-02
    0.71823425161406518995E-03
    0.48439277910296211062E-04
   -0.50322706191805657370E-06
   -0.10746894638353702112E-05
    0.17380655552332080966E-05
    0.18809910472374338140E-05
    0.14593143780255069233E-05
   -0.20307655828544152433E-06
    0.86691161384801952868E-06
   -0.12991600902011462408E-05
    0.44940177428384192228E-06
    0.19635958034581773291E-05
   -0.13965472252062414985E-05
   -0.50960628197722760646E-06
    0.20586467075064740696E-04
    0.21577760131738420250E-04
    0.46678172470675498227E-06
    0.59302163002524022409E-02
    0.98670138131651752289E+00
    0.98899260089171858734E+00
    0.98677592043821660273E+00
    0.98930995559389478533E+00
    0.98752300272318893626E+00
    0.43613732413586205755E-02
    0.97956740755720891815E-06
    0.15188942017017602420E-05
   -0.97059921390604009441E-06
    0.32182310521804856121E-08
    0.18853052048955166526E-04
    0.47685740948359969446E-02
   -0.48541170726060869329E-06
   -0.11165832644650931834E-05
    0.17329312661011404787E-05
    0.18819637672678901623E-05
    0.14764315022754573267E-05
   -0.39616728427053864504E-06
   -0.54014627717872540485E-06
   -0.12102789656678502340E-05
    0.19409446049889549454E-05
    0.47033624745887137049E-06
   -0.14034762833117663924E-05
    0.18801856647285836457E-06
    0.20585662589043216290E-04
    0.21603547787578352134E-04
    0.51402134590183265594E-05
    0.14698466773387607737E-01
    0.98192349044271842740E+00
    0.98726338492149789960E+00
    0.98377016816102103025E+00
    0.98853022008372959384E+00
    0.98625219940044550615E+00
    0.86696082375938912645E-02
    0.35860797807612100705E-05
    0.14851243725626245663E-05
   -0.97411079160478998429E-06
    0.59383226174842260280E-08
    0.34592897726295316371E-04
    0.10122628321464497217E-01
    0.98955922305585819476E+00
    0.98977069974436826527E+00
    0.98986437449939490563E+00
    0.98990950279001188594E+00
    0.98990117066259419865E+00
    0.98993347102737239140E+00
    0.98990815266672493866E+00
    0.98983819461530841988E+00
    0.98972211824613454123E+00
    0.98956252225562912894E+00
    0.98962402619193901021E+00
    0.98934249648585337322E+00
    0.98978905803382410955E+00
    0.98983679875668484360E+00
    0.98994205484290487274E+00
    0.98995869056831109489E+00
    0.98996482182634826241E+00
    0.98996936255259260218E+00
    0.98997029649345047453E+00
    0.98997337479205615995E+00
    0.98997273613648451018E+00
    0.98996741452403069772E+00
    0.98996051524669381738E+00
    0.98994910443654315912E+00
    0.98995086322721204120E+00
    0.98993044189069390182E+00
    0.98996131610638671283E+00
    0.98996572786879999395E+00
    0.98889428274821933318E+00
    0.98945902517702200019E+00
    0.98969493931793084407E+00
    0.98980708587154819789E+00
    0.98979593673815036148E+00
    0.98987942655740424058E+00
    0.98984642590674065676E+00
    0.98969319877825057130E+00
    0.98949028049823239961E+00
    0.98908805493400431263E+00
    0.98913034703800184477E+00
    0.98828136591163762148E+00
    0.98953054868310108549E+00
    0.98965400535722913844E+00
    0.98988584143012237071E+00
    0.98992286116783434480E+00
    0.98993563150770302883E+00
    0.98994475398286851942E+00
    0.98994988711492437616E+00
    0.98995960166467078523E+00
    0.98996123378322331554E+00
    0.98994835240774259333E+00
    0.98993571745309627552E+00
    0.98990954845620426905E+00
    0.98990779125954597717E+00
    0.98985697638918757058E+00
    0.98993022886072523647E+00
    0.98994026054877726217E+00
    0.18845931470613090358E-06
   -0.11402949672830605906E-05
    0.23260700242177380287E-05
    0.19472342063200852383E-05
    0.15210830906551854885E-05
   -0.38992119708222735248E-06
   -0.54513111729053313508E-06
   -0.12137224697815414199E-05
    0.19278418859670052035E-05
    0.46989354292272271795E-06
   -0.27432334046262242634E-06
    0.18801657714128899613E-06
    0.20634847942683146304E-04
    0.21703420012732136079E-04
    0.63518743704361004432E-04
    0.50261214483862420854E-01
    0.96348383449373220522E+00
    0.98186435264228300035E+00
    0.97015640723645257815E+00
    0.98562418359691927883E+00
    0.98053636918158959546E+00
    0.24192092942445099502E-01
    0.15786393092792821242E-04
    0.14827157939518587974E-05
   -0.97287860460618307810E-06
    0.23123212135625369755E-07
    0.22351965887441275094E-03
    0.32225776537445564862E-01
    0.13497166378327149464E-04
    0.25324657083342439270E-02
    0.70600258601941105405E-02
    0.56783987415001601837E-02
    0.21281199404154654831E-02
    0.29442924829491568407E-03
    0.58117332215545444024E-04
    0.29449586351217233501E-03
    0.64495791447059125909E-06
    0.47249828844378587875E-06
   -0.12971388750749926731E-07
    0.20173079938657464744E-06
    0.12764846709543446941E-03
    0.27213103855700307692E-03
    0.14640741838853623367E-02
    0.11929694745746323437E+00
    0.93597645317065358839E+00
    0.97250498688533759672E+00
    0.91313566765270115511E+00
    0.97755548803098257782E+00
    0.96205276141897688724E+00
    0.67918253978574205654E-01
    0.11231717717913188264E-03
    0.56896195694238610712E-04
    0.10348501031016295836E-02
    0.40973789494258162219E-02
    0.18054980520320798153E-02
    0.10816904815813750684E+00
    0.98751381814507910306E+00
    0.98881225853827714456E+00
    0.98939425670493830189E+00
    0.98961694871729177780E+00
    0.98955918944123877345E+00
    0.98974363814549948248E+00
    0.98965465832986487804E+00
    0.98926535789058056558E+00
    0.98871237141263379478E+00
    0.98753689150297474519E+00
    0.98779827524471153222E+00
    0.98528639754830704689E+00
    0.98891679007464639017E+00
    0.98920543756620371578E+00
    0.98980215329188780959E+00
    0.98986848936718807579E+00
    0.98989800698318308747E+00
    0.98991062067847590544E+00
    0.98991431323358602956E+00
    0.98992794952778462303E+00
    0.98992944812895600215E+00
    0.98990310085426458375E+00
    0.98987305351227106165E+00
    0.98981467798806976877E+00
    0.98982280263040756108E+00
    0.98972467855528423186E+00
    0.98987635061259271474E+00
    0.98989437750973663377E+00
    0.98638715092251072480E+00
    0.98820067523924981501E+00
    0.98918028040975392035E+00
    0.98945723577224342637E+00
    0.98928528268474347218E+00
    0.98956142338393460189E+00
    0.98934560715431862921E+00
    0.98857807995678670387E+00
    0.98725828500924950326E+00
    0.98438008325264192422E+00
    0.98576651717748708936E+00
    0.98059956678386939188E+00
    0.98818070958049197827E+00
    0.98862852460587868908E+00
    0.98975111735713372507E+00
    0.98983071021694535307E+00
    0.98987546079433119672E+00
    0.98988697355291010993E+00
    0.98988296186812252397E+00
    0.98989677595141489785E+00
    0.98989246465243385664E+00
    0.98985168230641507048E+00
    0.98978968900246711016E+00
    0.98969504916426076502E+00
    0.98973879359846439474E+00
    0.98961631740037214744E+00
    0.98982746520827058490E+00
    0.98985068709399115505E+00
    0.98989226601869850786E+00
    0.98985160524266169180E+00
    0.98978985243413675210E+00
    0.98969514329433772026E+00
    0.98973880314833062588E+00
    0.98961640682487905796E+00
    0.98975128342909390877E+00
    0.98983064695222233720E+00
    0.98987529335181900780E+00
    0.98988696434655309986E+00
    0.98988291928473948200E+00
    0.98989675477142136106E+00
    0.98985065763000967820E+00
    0.98982745487929724160E+00
    0.98934542989579010719E+00
    0.98857801138892331672E+00
    0.98725851672549413962E+00
    0.98438019107072116665E+00
    0.98576654160234722379E+00
    0.98059968275709896712E+00
    0.98638741158918008534E+00
    0.98820062422605670083E+00
    0.98918011697084406997E+00
    0.98945723963015252966E+00
    0.98928525192136496091E+00
    0.98956143561382103879E+00
    0.98862850043624761476E+00
    0.98818070682405267924E+00
    0.98992923923642317519E+00
    0.98990302468655266832E+00
    0.98987321484443779873E+00
    0.98981477291896846626E+00
    0.98982281407180183752E+00
    0.98972476775147710804E+00
    0.98980232528117939594E+00
    0.98986842697154664439E+00
    0.98989783979508738643E+00
    0.98991061514239830910E+00
    0.98991427632116557600E+00
    0.98992791742845309688E+00
    0.98989434899084771668E+00
    0.98987634140262448224E+00
    0.98965448927091381748E+00
    0.98926528920218359531E+00
    0.98871256507702354188E+00
    0.98753699546930973074E+00
    0.98779829552276443572E+00
    0.98528651199835970420E+00
    0.98751406000376740213E+00
    0.98881220483904697094E+00
    0.98939409754830287547E+00
    0.98961695445179409525E+00
    0.98955916152296041766E+00
    0.98974365181607226738E+00
    0.98920541576789899896E+00
    0.98891678792328441272E+00
    0.96205210418473441347E+00
    0.67918563678995888533E-01
    0.11231791195521430890E-03
    0.56896167994598042259E-04
    0.10348493287338205587E-02
    0.40973763734471211131E-02
    0.14640768387687687693E-02
    0.11929759254494982923E+00
    0.93597537791459406442E+00
    0.97250488261463896578E+00
    0.91313565765937731999E+00
    0.97755542417468288541E+00
    0.10816894696233536610E+00
    0.18055019895017278882E-02
    0.58117349381769262964E-04
    0.29449591311609340334E-03
    0.64495796182728632103E-06
    0.47249828942626855281E-06
   -0.12971585370071562008E-07
    0.20173080828334298963E-06
    0.13497126223959572984E-04
    0.25324615431309132479E-02
    0.70600158566401826146E-02
    0.56783945899274721261E-02
    0.21281184546686586490E-02
    0.29442909409995620318E-03
    0.27212908596519391671E-03
    0.12764814752324056654E-03
    0.98053606553236749566E+00
    0.24192109965937277916E-01
    0.15786392312006696875E-04
    0.14827157892266020684E-05
   -0.97287926360885838697E-06
    0.23122448492222225064E-07
    0.63519075621723129939E-04
    0.50261392023864558121E-01
    0.96348320863625003252E+00
    0.98186431387895023448E+00
    0.97015636818790662588E+00
    0.98562417719256356641E+00
    0.32225727149449198694E-01
    0.22351993039107127272E-03
   -0.54513281854735418934E-06
   -0.12137224491981120413E-05
    0.19278412193529007245E-05
    0.46989355269017944062E-06
   -0.27432348379331037809E-06
    0.18801657008929448854E-06
    0.18845940270291133293E-06
   -0.11402938408930607260E-05
    0.23259829758407301939E-05
    0.19472278826387813143E-05
    0.15210840160802311416E-05
   -0.38992126741542093346E-06
    0.21703419342391684638E-04
    0.20634847672220030696E-04
    0.98996102290258602974E+00
    0.98994827797245621426E+00
    0.98993588033017498873E+00
    0.98990964575558548777E+00
    0.98990780452890059227E+00
    0.98985706535072481849E+00
    0.98988601136892562238E+00
    0.98992279904908775379E+00
    0.98993546524737585646E+00
    0.98994475052499120160E+00
    0.98994985367639909413E+00
    0.98995956577010402189E+00
    0.98994023298218847273E+00
    0.98993022030841049119E+00
    0.98984626576705758705E+00
    0.98969313201441599936E+00
    0.98949046027170561857E+00
    0.98908816038156588402E+00
    0.98913036688898015036E+00
    0.98828147103723573696E+00
    0.98889448583950623206E+00
    0.98945896956086565321E+00
    0.98969478769520247141E+00
    0.98980709402830902022E+00
    0.98979591236622044281E+00
    0.98987944342467260039E+00
    0.98965398552324213011E+00
    0.98953054683388552704E+00
    0.98997273922545070413E+00
    0.98996741195815951553E+00
    0.98996051271415641537E+00
    0.98994924768970704587E+00
    0.98995090858627632358E+00
    0.98993054031179339436E+00
    0.98994222513267171593E+00
    0.98995863467738787200E+00
    0.98996466006975747387E+00
    0.98996936364021670407E+00
    0.98997027820170091506E+00
    0.98997337478281333123E+00
    0.98996571142145217692E+00
    0.98996131034290246742E+00
    0.98990821277459795091E+00
    0.98983820859944582349E+00
    0.98972212686317595498E+00
    0.98956268030671212799E+00
    0.98962407504179128459E+00
    0.98934260821359687466E+00
    0.98955941009232073480E+00
    0.98977065355779980660E+00
    0.98986423419006619451E+00
    0.98990951778832059205E+00
    0.98990122498165200593E+00
    0.98993370256937973650E+00
    0.98983680182068278786E+00
    0.98978906436920044420E+00
    0.98625200567071047431E+00
    0.86695306601088702875E-02
    0.35860476080635706286E-05
    0.14851243588580223854E-05
   -0.97411140646980279786E-06
    0.59383920190689508421E-08
    0.51401624196632273052E-05
    0.14698405910256137283E-01
    0.98192321062332854620E+00
    0.98726338560304982561E+00
    0.98377015331034423085E+00
    0.98853023561479258507E+00
    0.10122568864906930988E-01
    0.34592705675804144648E-04
   -0.54014796034740446296E-06
   -0.12102789172939064013E-05
    0.19409437672480154501E-05
    0.47033626385160439552E-06
   -0.14034773062481341062E-05
    0.18801855165934780715E-06
   -0.48540991205035219317E-06
   -0.11165830406782185659E-05
    0.17329321163479941622E-05
    0.18819638375143179234E-05
    0.14764324221480169338E-05
   -0.39616738696921186518E-06