# vtk DataFile Version 3.0
LAPLACIEN  2D
ASCII
DATASET UNSTRUCTURED_GRID
 POINTS         481  float
   6.2500000000000000E-002  0.87500000000000000        0.0000000000000000     
  0.12500000000000000       0.87500000000000000        0.0000000000000000     
  0.12500000000000000       0.93750000000000000        0.0000000000000000     
   3.7499999999999999E-002  0.91249999999999998        0.0000000000000000     
   8.1250000000000003E-002  0.91874999999999996        0.0000000000000000     
   8.7499999999999994E-002  0.96250000000000002        0.0000000000000000     
   4.3749999999999997E-002  0.95625000000000004        0.0000000000000000     
  0.18750000000000000       0.87500000000000000        0.0000000000000000     
  0.25000000000000000       0.87500000000000000        0.0000000000000000     
  0.25000000000000000       0.93750000000000000        0.0000000000000000     
  0.16250000000000001       0.91249999999999998        0.0000000000000000     
  0.20624999999999999       0.91874999999999996        0.0000000000000000     
  0.21249999999999999       0.96250000000000002        0.0000000000000000     
  0.16875000000000001       0.95625000000000004        0.0000000000000000     
   6.2500000000000000E-002  0.75000000000000000        0.0000000000000000     
  0.12500000000000000       0.75000000000000000        0.0000000000000000     
  0.12500000000000000       0.81250000000000000        0.0000000000000000     
   3.7499999999999999E-002  0.78749999999999998        0.0000000000000000     
   8.1250000000000003E-002  0.79374999999999996        0.0000000000000000     
   8.7499999999999994E-002  0.83750000000000002        0.0000000000000000     
   4.3749999999999997E-002  0.83125000000000004        0.0000000000000000     
  0.18750000000000000       0.75000000000000000        0.0000000000000000     
  0.25000000000000000       0.75000000000000000        0.0000000000000000     
  0.25000000000000000       0.81250000000000000        0.0000000000000000     
  0.16250000000000001       0.78749999999999998        0.0000000000000000     
  0.20624999999999999       0.79374999999999996        0.0000000000000000     
  0.21249999999999999       0.83750000000000002        0.0000000000000000     
  0.16875000000000001       0.83125000000000004        0.0000000000000000     
  0.31250000000000000       0.87500000000000000        0.0000000000000000     
  0.37500000000000000       0.87500000000000000        0.0000000000000000     
  0.37500000000000000       0.93750000000000000        0.0000000000000000     
  0.28749999999999998       0.91249999999999998        0.0000000000000000     
  0.33124999999999999       0.91874999999999996        0.0000000000000000     
  0.33750000000000002       0.96250000000000002        0.0000000000000000     
  0.29375000000000001       0.95625000000000004        0.0000000000000000     
  0.43750000000000000       0.87500000000000000        0.0000000000000000     
  0.50000000000000000       0.87500000000000000        0.0000000000000000     
  0.50000000000000000       0.93750000000000000        0.0000000000000000     
  0.41249999999999998       0.91249999999999998        0.0000000000000000     
  0.45624999999999999       0.91874999999999996        0.0000000000000000     
  0.46250000000000002       0.96250000000000002        0.0000000000000000     
  0.41875000000000001       0.95625000000000004        0.0000000000000000     
  0.31250000000000000       0.75000000000000000        0.0000000000000000     
  0.37500000000000000       0.75000000000000000        0.0000000000000000     
  0.37500000000000000       0.81250000000000000        0.0000000000000000     
  0.28749999999999998       0.78749999999999998        0.0000000000000000     
  0.33124999999999999       0.79374999999999996        0.0000000000000000     
  0.33750000000000002       0.83750000000000002        0.0000000000000000     
  0.29375000000000001       0.83125000000000004        0.0000000000000000     
  0.43750000000000000       0.75000000000000000        0.0000000000000000     
  0.50000000000000000       0.75000000000000000        0.0000000000000000     
  0.50000000000000000       0.81250000000000000        0.0000000000000000     
  0.41249999999999998       0.78749999999999998        0.0000000000000000     
  0.45624999999999999       0.79374999999999996        0.0000000000000000     
  0.46250000000000002       0.83750000000000002        0.0000000000000000     
  0.41875000000000001       0.83125000000000004        0.0000000000000000     
   6.2500000000000000E-002  0.62500000000000000        0.0000000000000000     
  0.12500000000000000       0.62500000000000000        0.0000000000000000     
  0.12500000000000000       0.68750000000000000        0.0000000000000000     
   3.7499999999999999E-002  0.66249999999999998        0.0000000000000000     
   8.1250000000000003E-002  0.66874999999999996        0.0000000000000000     
   8.7499999999999994E-002  0.71250000000000002        0.0000000000000000     
   4.3749999999999997E-002  0.70625000000000004        0.0000000000000000     
  0.18750000000000000       0.62500000000000000        0.0000000000000000     
  0.25000000000000000       0.62500000000000000        0.0000000000000000     
  0.25000000000000000       0.68750000000000000        0.0000000000000000     
  0.16250000000000001       0.66249999999999998        0.0000000000000000     
  0.20624999999999999       0.66874999999999996        0.0000000000000000     
  0.21249999999999999       0.71250000000000002        0.0000000000000000     
  0.16875000000000001       0.70625000000000004        0.0000000000000000     
   6.2500000000000000E-002  0.50000000000000000        0.0000000000000000     
  0.12500000000000000       0.50000000000000000        0.0000000000000000     
  0.12500000000000000       0.56250000000000000        0.0000000000000000     
   3.7499999999999999E-002  0.53749999999999998        0.0000000000000000     
   8.1250000000000003E-002  0.54374999999999996        0.0000000000000000     
   8.7499999999999994E-002  0.58750000000000002        0.0000000000000000     
   4.3749999999999997E-002  0.58125000000000004        0.0000000000000000     
  0.18750000000000000       0.50000000000000000        0.0000000000000000     
  0.25000000000000000       0.50000000000000000        0.0000000000000000     
  0.25000000000000000       0.56250000000000000        0.0000000000000000     
  0.16250000000000001       0.53749999999999998        0.0000000000000000     
  0.20624999999999999       0.54374999999999996        0.0000000000000000     
  0.21249999999999999       0.58750000000000002        0.0000000000000000     
  0.16875000000000001       0.58125000000000004        0.0000000000000000     
  0.31250000000000000       0.62500000000000000        0.0000000000000000     
  0.37500000000000000       0.62500000000000000        0.0000000000000000     
  0.37500000000000000       0.68750000000000000        0.0000000000000000     
  0.28749999999999998       0.66249999999999998        0.0000000000000000     
  0.33124999999999999       0.66874999999999996        0.0000000000000000     
  0.33750000000000002       0.71250000000000002        0.0000000000000000     
  0.29375000000000001       0.70625000000000004        0.0000000000000000     
  0.43750000000000000       0.62500000000000000        0.0000000000000000     
  0.50000000000000000       0.62500000000000000        0.0000000000000000     
  0.50000000000000000       0.68750000000000000        0.0000000000000000     
  0.41249999999999998       0.66249999999999998        0.0000000000000000     
  0.45624999999999999       0.66874999999999996        0.0000000000000000     
  0.46250000000000002       0.71250000000000002        0.0000000000000000     
  0.41875000000000001       0.70625000000000004        0.0000000000000000     
  0.31250000000000000       0.50000000000000000        0.0000000000000000     
  0.37500000000000000       0.50000000000000000        0.0000000000000000     
  0.37500000000000000       0.56250000000000000        0.0000000000000000     
  0.28749999999999998       0.53749999999999998        0.0000000000000000     
  0.33124999999999999       0.54374999999999996        0.0000000000000000     
  0.33750000000000002       0.58750000000000002        0.0000000000000000     
  0.29375000000000001       0.58125000000000004        0.0000000000000000     
  0.43750000000000000       0.50000000000000000        0.0000000000000000     
  0.50000000000000000       0.50000000000000000        0.0000000000000000     
  0.50000000000000000       0.56250000000000000        0.0000000000000000     
  0.41249999999999998       0.53749999999999998        0.0000000000000000     
  0.45624999999999999       0.54374999999999996        0.0000000000000000     
  0.46250000000000002       0.58750000000000002        0.0000000000000000     
  0.41875000000000001       0.58125000000000004        0.0000000000000000     
  0.56250000000000000       0.87500000000000000        0.0000000000000000     
  0.62500000000000000       0.87500000000000000        0.0000000000000000     
  0.62500000000000000       0.93750000000000000        0.0000000000000000     
  0.53749999999999998       0.91249999999999998        0.0000000000000000     
  0.58125000000000004       0.91874999999999996        0.0000000000000000     
  0.58750000000000002       0.96250000000000002        0.0000000000000000     
  0.54374999999999996       0.95625000000000004        0.0000000000000000     
  0.68750000000000000       0.87500000000000000        0.0000000000000000     
  0.75000000000000000       0.87500000000000000        0.0000000000000000     
  0.75000000000000000       0.93750000000000000        0.0000000000000000     
  0.66249999999999998       0.91249999999999998        0.0000000000000000     
  0.70625000000000004       0.91874999999999996        0.0000000000000000     
  0.71250000000000002       0.96250000000000002        0.0000000000000000     
[...]
 CELL_DATA         896
 SCALARS Cells_density float
 LOOKUP_TABLE default
    0.98996704532870138937E+00
    0.98996464841153264391E+00
    0.98995506121695053814E+00
    0.98995115018661050676E+00
    0.98996107340817063314E+00
    0.98995855947566813171E+00
    0.98996763368249207637E+00
    0.98997115503914345780E+00
    0.98997450848524837230E+00
    0.98997479723037429267E+00
    0.98997251393696006350E+00
    0.98997156135570629765E+00
    0.98996821919838717818E+00
    0.98996754095786543282E+00
    0.98990466903905038887E+00
    0.98986137485662750723E+00
    0.98974308259070764571E+00
    0.98965840646592495577E+00
    0.98977921485352138298E+00
    0.98970912953118450606E+00
    0.98983285542786358935E+00
    0.98989455769183687384E+00
    0.98993817824009389117E+00
    0.98994950751869015271E+00
    0.98993189530420233613E+00
    0.98993907931834512759E+00
    0.98989222338003635127E+00
    0.98987604714631893810E+00
    0.98994154132807832269E+00
    0.98993682297115415114E+00
    0.98991383367624585787E+00
    0.98990292708204796757E+00
    0.98992978300197953523E+00
    0.98992664955105857949E+00
    0.98994987379403476258E+00
    0.98995528992570258620E+00
    0.98996405830990830133E+00
    0.98996270362390281772E+00
    0.98995465802460802518E+00
    0.98995027451958994558E+00
    0.98994686475923510116E+00
    0.98994599375488223636E+00
    0.98978347252791243349E+00
    0.98966199989040004592E+00
    0.98932775419866270106E+00
    0.98908692238552631260E+00
    0.98947084224134429498E+00
    0.98936160810191609016E+00
    0.98969641243224304450E+00
    0.98979537464879963071E+00
    0.98989303266225669997E+00
    0.98990815769862761098E+00
    0.98985782079781448051E+00
    0.98987335666299458570E+00
    0.98975796747797573083E+00
    0.98972455552441751525E+00
    0.98823757320465521747E+00
    0.24438049317209954367E-02
    0.10709459073893592017E-05
    0.89249443321414851765E-06
   -0.48134511952380838550E-06
   -0.57908627678303093601E-07
    0.70557340546387976524E-06
    0.26445491825239698415E-02
    0.98875903138419007909E+00
    0.98956437071196168276E+00
    0.98838303913659575350E+00
    0.98946017677605724305E+00
    0.26439167376648229496E-02
    0.97582425464458476299E-05
   -0.21189120812017074939E-06
   -0.54593676824360784596E-06
    0.10284386802007610946E-05
    0.10277623860855404403E-05
   -0.59536365124871239298E-06
   -0.20679439470117090108E-06
    0.69816547741085710472E-06
   -0.46682571074455149731E-06
    0.34432257300685341482E-06
    0.98059327079954290499E-06
    0.22123700839962687579E-06
   -0.18987508142400155936E-06
    0.11183087532123374378E-04
    0.10905355220382413774E-04
    0.98554203330814715844E+00
    0.61702574294642308431E-02
    0.13968915381703869547E-05
    0.89247087464088560662E-06
   -0.48145899607329448441E-06
   -0.58023944546559728037E-07
    0.19147792129653622300E-06
    0.53772758586222765137E-02
    0.98803444207903778906E+00
    0.98902654686881275037E+00
    0.98673257043250628406E+00
    0.98847520618044582008E+00
    0.62721529513909074841E-02
    0.11862151922868985067E-04
   -0.20975631781032108430E-06
   -0.54500125766927522522E-06
    0.10227029354657090096E-05
    0.40678983530455200845E-06
   -0.59796083650727379539E-06
   -0.21535030721277463130E-07
   -0.20592872622531905157E-06
   -0.49801563131590929115E-06
    0.96980086700824595548E-06
    0.99976896133189747385E-06
    0.22133511421035092429E-06
   -0.19009383717301063428E-06
    0.11175722040909543881E-04
    0.10907155060861295688E-04
    0.98991066456127285722E+00
    0.98989437649865941182E+00
    0.98985085741645573165E+00
    0.98981663433357836013E+00
    0.98986598077500853599E+00
    0.98984943480534592908E+00
    0.98990394400091463734E+00
    0.98991876746507867502E+00
    0.98993654182984702761E+00
    0.98993536106211410530E+00
    0.98992459040180813545E+00
    0.98992224002856732401E+00
    0.98990861984012190611E+00
    0.98990372730251208200E+00
    0.98956563418041110225E+00
    0.98923319587182312329E+00
    0.98841073045269767228E+00
    0.98756292448569071851E+00
    0.98859750735533880039E+00
    0.98814847888754664407E+00
    0.98919278756442929890E+00
    0.98948729399848844857E+00
    0.98975615997471466656E+00
    0.98980215588187314690E+00
    0.98968612139800316019E+00
    0.98974742364540879702E+00
    0.98943036057685229689E+00
    0.98932713855313569873E+00
    0.98989390562194379264E+00
    0.98986618208520660289E+00
    0.98981074028802407128E+00
    0.98974782907968417156E+00
    0.98980309754063988681E+00
    0.98974922570856227466E+00
    0.98983994734049585151E+00
    0.98987700790251564875E+00
    0.98990667023833689431E+00
    0.98990941837194790232E+00
    0.98989917481095746066E+00
    0.98990326308341436423E+00
    0.98987591938897367960E+00
    0.98986407596231296147E+00
    0.98942272918999929487E+00
    0.98884348173124381187E+00
    0.98762018493383030293E+00
    0.98559696003554320143E+00
    0.98727146283099231905E+00
    0.98550606454404621193E+00
    0.98820504209952897412E+00
    0.98897962552428642091E+00
    0.98953547025721544372E+00
    0.98965733065796468448E+00
    0.98949335083780487476E+00
    0.98964426791491100222E+00
    0.98903909287456559518E+00
    0.98879859992530660939E+00
    0.97601942737260682925E+00
    0.22594253294575514929E-01
    0.60673623371995031418E-05
    0.89738986380228985797E-06
   -0.47704459171023905173E-06
   -0.56955565020956648190E-07
    0.30191356275665339503E-05
    0.15770649650176146728E-01
    0.98492031513899092054E+00
    0.98703949210431418670E+00
    0.97964813305552966849E+00
    0.98541748774268633770E+00
    0.20148198127317204498E-01
    0.33998719338795935587E-04
    0.18185051171882461554E-05
   -0.48952141613073498929E-06
    0.42318111707409239083E-06
    0.40062220526138796330E-06
   -0.63942582125955200167E-07
    0.14703486636421144500E-06
   -0.20345463525348082043E-06
   -0.44736422520830708428E-06
    0.96970681795122378371E-06
    0.99864157462817455565E-06
    0.24992911872902065633E-06
   -0.65117013104850311726E-07
    0.11107908928744371891E-04
    0.10905818601288334117E-04
    0.96401376227829249643E+00
    0.55150806526292381338E-01
    0.27878497571233321409E-03
    0.23559006694476095078E-02
    0.19232135381207573783E-03
    0.62873822227953236907E-04
    0.27817011125981898627E-04
    0.44101105039289233145E-01
    0.97550380598699915069E+00
    0.98222745847245684914E+00
    0.95567800848757278320E+00
    0.98046575398237911791E+00
    0.57299318404638956148E-01
    0.20319846056843850505E-03
    0.11054456280446800162E-01
    0.76301173820892429032E-03
    0.43701913805247305630E-04
    0.41926960642351207369E-04
    0.29123801892735883830E-04
    0.95714705990222569951E-05
    0.11273851432706035173E-05
    0.11188457880377494335E-03
    0.84721061669350226898E-04
    0.44722658657130102923E-03
    0.35417383351666769688E-02
    0.66465570543886732385E-02
    0.32970790778532108175E-03
    0.19087270721773071905E-04
   -0.20545837664969176700E-06
   -0.50456080756656025001E-06
    0.97017941911753326555E-06
    0.99993180637717563966E-06
    0.21368563045557657108E-06
   -0.12238222330245193902E-06
    0.64964369808291722653E-06
   -0.56634300764982295461E-06
    0.39043799282300999702E-06
    0.10285997019644612140E-05
   -0.59583142766992349044E-06
   -0.20681365356879064454E-06
    0.10910837857352746237E-04
    0.11186601960345491277E-04
   -0.71708470564218579170E-07
    0.30336196630713144207E-02
    0.98830089628218065201E+00
    0.98941163606714521705E+00
    0.98841798051517426593E+00
    0.98960010315877233733E+00
    0.98873724219868119878E+00
    0.22708060645034761245E-02
    0.47865374545562663962E-06
    0.89968736904502219989E-06
   -0.48156200835496462520E-06
   -0.58541620270451638230E-07
    0.97505344517079753369E-05
    0.24415447811378223134E-02
   -0.20077281081033589952E-06
   -0.51613531015918173246E-06
    0.96921224153805249143E-06
    0.10004365585629123003E-05
    0.21783511247160131717E-06
   -0.18994490056305758702E-06
   -0.21232011067902270487E-06
   -0.54674271750963605382E-06
    0.10284892932075842666E-05
    0.10282264178321424943E-05
   -0.59461923080937701183E-06
    0.14448273445774200324E-06
    0.10911982699465231058E-04
    0.11192239741457608092E-04
    0.53814813374474280186E-06
    0.76959079417483122407E-02
    0.98579765993461831997E+00
    0.98835181151574280634E+00
    0.98695080715391725334E+00
    0.98912671102555049796E+00
    0.98806979737829980781E+00
    0.47514855140776560485E-02
    0.12625463217915152131E-05
    0.89286319381649598474E-06
   -0.48225598929549605996E-06
   -0.57828243922594944730E-07
    0.11837275431836869047E-04
    0.53103641880975372552E-02
    0.98973447222237298515E+00
    0.98985805605294108211E+00
    0.98991036039184843176E+00
    0.98993719839824612095E+00
    0.98993401866329411298E+00
    0.98995311811141262215E+00
    0.98993920850548333679E+00
    0.98989977323836220169E+00
    0.98983470467698497774E+00
    0.98974330598081894372E+00
    0.98977704228172491696E+00
    0.98961322725047706772E+00
    0.98987030037340217881E+00
    0.98989796751562308952E+00
    0.98995477550702148939E+00
    0.98996560301235358992E+00
    0.98996906270855189458E+00
    0.98997244706898790412E+00
    0.98997341883439615717E+00
    0.98997569798171058952E+00
    0.98997544854348373811E+00
    0.98997222809525509124E+00
    0.98996863371302445955E+00
    0.98996199346356128501E+00
    0.98996207950738512871E+00
    0.98994921961296056256E+00
    0.98996829061586799625E+00
    0.98997110729926074413E+00
    0.98930480352960736834E+00
    0.98965480104758452029E+00
    0.98979573133171661059E+00
    0.98986650654774288594E+00
    0.98986352227298646245E+00
    0.98991559509051130217E+00
    0.98989836240369555309E+00
    0.98980767747940112677E+00
    0.98969054842395765004E+00
    0.98945043686696199092E+00
    0.98946659605000553128E+00
    0.98895401401532778696E+00
    0.98970417378156461119E+00
    0.98978011845478031105E+00
    0.98991242820137703706E+00
    0.98993697643558531407E+00
    0.98994426892761822057E+00
    0.98995114879333334645E+00
    0.98995605316256385375E+00
    0.98996388842858151769E+00
    0.98996603453912845882E+00
    0.98995706145536410681E+00
    0.98995002598800985183E+00
    0.98993344413916473101E+00
    0.98993015075821666482E+00
    0.98989690809111152703E+00
    0.98994345114483306425E+00
    0.98995026097179283919E+00
    0.17287378531155095134E-06
   -0.51008397838507653325E-06
    0.12376306405611140023E-05
    0.10154487801201031031E-05
    0.23677280379019724701E-06
   -0.18878916993720885722E-06
   -0.21412356712180774150E-06
   -0.54837441998377643287E-06
    0.10210318167418603086E-05
    0.40063720731126782554E-06
   -0.64623756187005140030E-07
    0.14721799114515225983E-06
    0.10919135298682601959E-04
    0.11245667982252109053E-04
    0.80933221902287102279E-05
    0.26550513116327920798E-01
    0.97685961248551367309E+00
    0.98509958255153506901E+00
    0.98082491189995235636E+00
    0.98735564623241245386E+00
    0.98504411471123010102E+00
    0.13838486511335353069E-01
    0.31258308027273250928E-05
    0.89190480113459611384E-06
   -0.48305534715471140967E-06
   -0.52778247318792708660E-07
    0.36420674526770620662E-04
    0.16954510135885253463E-01
    0.43441383321144634729E-04
    0.61609297519332555625E-03
    0.10788532359491420989E-01
    0.67740355809993305428E-02
    0.14554317828958131514E-02
    0.10115034570822061455E-03
    0.33739774337666303709E-04
    0.33929963104618074236E-03
    0.14684853788758885060E-05
    0.84608223052323092400E-05
    0.28515955002131537706E-04
    0.41455079596925515457E-04
    0.24471487527165864718E-04
    0.18360387453853488902E-03
    0.31214574370848791485E-03
    0.62941202860085226911E-01
    0.96432218362386834531E+00
    0.97995967313892740069E+00
    0.95930738170373031082E+00
    0.98289305174530527953E+00
    0.97564451589112655139E+00
    0.38447625940246199505E-01
    0.16998797407095122864E-04
    0.98634489832131590166E-05
    0.25159009155487289033E-03
    0.27403239625018644722E-02
    0.21803857973333343016E-03
    0.51639569354675667057E-01
    0.98837290316138692869E+00
    0.98921156041111679702E+00
    0.98958264696746434108E+00
    0.98973051043467596966E+00
    0.98969844866988776477E+00
    0.98981977969585499544E+00
    0.98976758161028099980E+00
    0.98952233133079114946E+00
    0.98918060268321850170E+00
    0.98845466496603628936E+00
    0.98859344453337960612E+00
    0.98708689712570385488E+00
    0.98928598354624319722E+00
    0.98947486345231305815E+00
    0.98984900080653581700E+00
    0.98989391460185061078E+00
    0.98991299637021790137E+00
    0.98992221784882117319E+00
    0.98992615545284556866E+00
    0.98993658498939463009E+00
    0.98993909774446953165E+00
    0.98992075588332906211E+00
    0.98990275323268261953E+00
    0.98986432456925810275E+00
    0.98986662721787865848E+00
    0.98980045948448969195E+00
    0.98990109899616451905E+00
    0.98991337125444656131E+00
    0.98760520893538206177E+00
    0.98878882161687764452E+00
    0.98942712651876574270E+00
    0.98961380239097906930E+00
    0.98950162537739261293E+00
    0.98968727413460111375E+00
    0.98954705158521827357E+00
    0.98904538134512631764E+00
    0.98819126613707997109E+00
    0.98644357686037986710E+00
    0.98727485239389567440E+00
    0.98437566595295233896E+00
    0.98876727546987852602E+00
    0.98907065377118341676E+00
    0.98980996164805401527E+00
    0.98986398077364634585E+00
    0.98989427457909540120E+00
    0.98990231629300240446E+00
    0.98990012802026705607E+00
    0.98991034403210731440E+00
    0.98990843764805735994E+00
    0.98988015461175304921E+00
    0.98983944030640191869E+00
    0.98977565628248609375E+00
    0.98980322037046064576E+00
    0.98972029927485827283E+00
    0.98986258109612090816E+00
    0.98987855736686281016E+00
    0.98990832277633533653E+00
    0.98988011319807722721E+00
    0.98983952964331700652E+00
    0.98977570670408587805E+00
    0.98980322602294867895E+00
    0.98972034698835953392E+00
    0.98981005251302722758E+00
    0.98986394634580254781E+00
    0.98989418331848233468E+00
    0.98990231228869940416E+00
    0.98990010556659713270E+00
    0.98991032656390653965E+00
    0.98987854119357587823E+00
    0.98986257610647243599E+00
    0.98954695639455614309E+00
    0.98904534424445156304E+00
    0.98819138225004876652E+00
    0.98644363168343429660E+00
    0.98727486423393839843E+00
    0.98437572384486049515E+00
    0.98760533765734181966E+00
    0.98878879287375209817E+00
    0.98942703941914744714E+00
    0.98961380528906239817E+00
    0.98950160885609084183E+00
    0.98968728155188556705E+00
    0.98907064043006531762E+00
    0.98876727402255193411E+00
    0.98993897297407307256E+00
    0.98992071451764118706E+00
    0.98990284152890162250E+00
    0.98986437616213218682E+00
    0.98986663482553571836E+00
    0.98980050719936985004E+00
    0.98984909518047425880E+00
    0.98989388035276371092E+00
    0.98991290517736274523E+00
    0.98992221596857399302E+00
    0.98992613626020653506E+00
    0.98993655741128117054E+00
    0.98991335524227730414E+00
    0.98990109440381779393E+00
    0.98976749003612829458E+00
    0.98952229373959854630E+00
    0.98918070297864602036E+00
    0.98845471911531790354E+00
    0.98859345529815756404E+00
    0.98708695468543117268E+00
    0.98837302512395730503E+00
    0.98921153024198726911E+00
    0.98958256168475733361E+00
    0.98973051465553252282E+00
    0.98969843409829871828E+00
    0.98981978783963309176E+00
    0.98947485110507604755E+00
    0.98928598247060062221E+00
    0.97564427187915692130E+00
    0.38447731026452651448E-01
    0.16998851609734979916E-04
    0.98634493153955048151E-05
    0.25158996043905535985E-03
    0.27403226930707682077E-02
    0.31214587449685156102E-03
    0.62941423538753024647E-01
    0.96432181516318538073E+00
    0.97995963838560240511E+00
    0.95930734830326658269E+00
    0.98289303227538127317E+00
    0.51639559647134097853E-01
    0.21803893946721513764E-03
    0.33739786415813610341E-04
    0.33929971357563585470E-03
    0.14684854459198333478E-05
    0.84608222200702750228E-05
    0.28515955271872080000E-04
    0.41455080179073120047E-04
    0.43441432033587507272E-04
    0.61609233172165388508E-03
    0.10788524943889078733E-01
    0.67740328160476297875E-02
    0.14554313963907471348E-02
    0.10115034225522907330E-03
    0.18360344943045006031E-03
    0.24471508044802245434E-04
    0.98504398290253536441E+00
    0.13838477827962452141E-01
    0.31258244766648959341E-05
    0.89190480181372267288E-06
   -0.48305558856978182733E-06
   -0.52778317033608099786E-07
    0.80933328122319702372E-05
    0.26550556108676563738E-01
    0.97685938134019179024E+00
    0.98509957124374725179E+00
    0.98082488963855596342E+00
    0.98735564752376836495E+00
    0.16954493022305689581E-01
    0.36420663037264801743E-04
   -0.21412405049636132187E-06
   -0.54837444498600686718E-06
    0.10210317115110592255E-05
    0.40063720082360970727E-06
   -0.64623769765210523412E-07
    0.14721801051675928818E-06
    0.17287476282575365461E-06
   -0.51008282251177713971E-06
    0.12376092010785068675E-05
    0.10154480863031249238E-05
    0.23677310994761757739E-06
   -0.18878919559387976353E-06
    0.11245667973457113546E-04
    0.10919135133874163050E-04
    0.98996591143545020763E+00
    0.98995702088885462189E+00
    0.98995011516889230840E+00
    0.98993349729293866890E+00
    0.98993015966248532056E+00
    0.98989695574231184594E+00
    0.98991252157164166814E+00
    0.98993694227433792765E+00
    0.98994417817939805992E+00
    0.98995114706248499292E+00
    0.98995603435670154191E+00
    0.98996386155677829066E+00
    0.98995024540131870694E+00
    0.98994344684265456191E+00
    0.98989827492397175490E+00
    0.98980764068704996106E+00
    0.98969064380479288001E+00
    0.98945049268757667704E+00
    0.98946660722987311853E+00
    0.98895406766984894631E+00
    0.98930490932156711636E+00
    0.98965476998091539418E+00
    0.98979564937845720962E+00
    0.98986651227643274176E+00
    0.98986350984937421238E+00
    0.98991560484602580949E+00
    0.98978010691272699795E+00
    0.98970417273347832676E+00
    0.98997545016882992908E+00
    0.98997222577562382639E+00
    0.98996863215543440262E+00
    0.98996207567688421225E+00
    0.98996211024757685415E+00
    0.98994927141800015402E+00
    0.98995486808822685809E+00
    0.98996557219153402674E+00
    0.98996897432479968870E+00
    0.98997244849913357267E+00
    0.98997340944472456137E+00
    0.98997569787591255253E+00
    0.98997109658994120185E+00
    0.98996828788169943802E+00
    0.98993924121229914803E+00
    0.98989978147399793063E+00
    0.98983470829497055554E+00
    0.98974339028062163770E+00
    0.98977706955484545670E+00
    0.98961328348008614775E+00
    0.98973457049434521160E+00
    0.98985802997944905002E+00
    0.98991028395904367976E+00
    0.98993720923352390706E+00
    0.98993405081694907377E+00
    0.98995324494461989229E+00
    0.98989796885598579923E+00
    0.98987030378614837556E+00
    0.98806970013383588203E+00
    0.47514417560049716435E-02
    0.12625412000320078268E-05
    0.89286316344189131982E-06
   -0.48225624864845880498E-06
   -0.57828203273919525038E-07
    0.53813949671735421283E-06
    0.76958667230587977232E-02
    0.98579753859012664297E+00
    0.98835181466499166802E+00
    0.98695079665338780739E+00
    0.98912671929820072947E+00
    0.53103409359149100072E-02
    0.11837249109795397063E-04
   -0.21232057749466516331E-06
   -0.54674264278816488465E-06
    0.10284890822351140837E-05
    0.10282264040994641358E-05
   -0.59461953877414822887E-06
    0.14448273619364531671E-06
   -0.20077235514809795046E-06
   -0.51613525464529394950E-06
    0.96921240261190640752E-06
    0.10004365821232446895E-05
    0.21783542238375384894E-06
   -0.18994495180274046164E-06