# vtk DataFile Version 3.0
LAPLACIEN  2D
ASCII
DATASET UNSTRUCTURED_GRID
 POINTS         481  float
   6.2500000000000000E-002  0.87500000000000000        0.0000000000000000     
  0.12500000000000000       0.87500000000000000        0.0000000000000000     
  0.12500000000000000       0.93750000000000000        0.0000000000000000     
   3.7499999999999999E-002  0.91249999999999998        0.0000000000000000     
   8.1250000000000003E-002  0.91874999999999996        0.0000000000000000     
   8.7499999999999994E-002  0.96250000000000002        0.0000000000000000     
   4.3749999999999997E-002  0.95625000000000004        0.0000000000000000     
  0.18750000000000000       0.87500000000000000        0.0000000000000000     
  0.25000000000000000       0.87500000000000000        0.0000000000000000     
  0.25000000000000000       0.93750000000000000        0.0000000000000000     
  0.16250000000000001       0.91249999999999998        0.0000000000000000     
  0.20624999999999999       0.91874999999999996        0.0000000000000000     
  0.21249999999999999       0.96250000000000002        0.0000000000000000     
  0.16875000000000001       0.95625000000000004        0.0000000000000000     
   6.2500000000000000E-002  0.75000000000000000        0.0000000000000000     
  0.12500000000000000       0.75000000000000000        0.0000000000000000     
  0.12500000000000000       0.81250000000000000        0.0000000000000000     
   3.7499999999999999E-002  0.78749999999999998        0.0000000000000000     
   8.1250000000000003E-002  0.79374999999999996        0.0000000000000000     
   8.7499999999999994E-002  0.83750000000000002        0.0000000000000000     
   4.3749999999999997E-002  0.83125000000000004        0.0000000000000000     
  0.18750000000000000       0.75000000000000000        0.0000000000000000     
  0.25000000000000000       0.75000000000000000        0.0000000000000000     
  0.25000000000000000       0.81250000000000000        0.0000000000000000     
  0.16250000000000001       0.78749999999999998        0.0000000000000000     
  0.20624999999999999       0.79374999999999996        0.0000000000000000     
  0.21249999999999999       0.83750000000000002        0.0000000000000000     
  0.16875000000000001       0.83125000000000004        0.0000000000000000     
  0.31250000000000000       0.87500000000000000        0.0000000000000000     
  0.37500000000000000       0.87500000000000000        0.0000000000000000     
  0.37500000000000000       0.93750000000000000        0.0000000000000000     
  0.28749999999999998       0.91249999999999998        0.0000000000000000     
  0.33124999999999999       0.91874999999999996        0.0000000000000000     
  0.33750000000000002       0.96250000000000002        0.0000000000000000     
  0.29375000000000001       0.95625000000000004        0.0000000000000000     
  0.43750000000000000       0.87500000000000000        0.0000000000000000     
  0.50000000000000000       0.87500000000000000        0.0000000000000000     
  0.50000000000000000       0.93750000000000000        0.0000000000000000     
  0.41249999999999998       0.91249999999999998        0.0000000000000000     
  0.45624999999999999       0.91874999999999996        0.0000000000000000     
  0.46250000000000002       0.96250000000000002        0.0000000000000000     
  0.41875000000000001       0.95625000000000004        0.0000000000000000     
  0.31250000000000000       0.75000000000000000        0.0000000000000000     
  0.37500000000000000       0.75000000000000000        0.0000000000000000     
  0.37500000000000000       0.81250000000000000        0.0000000000000000     
  0.28749999999999998       0.78749999999999998        0.0000000000000000     
  0.33124999999999999       0.79374999999999996        0.0000000000000000     
  0.33750000000000002       0.83750000000000002        0.0000000000000000     
  0.29375000000000001       0.83125000000000004        0.0000000000000000     
  0.43750000000000000       0.75000000000000000        0.0000000000000000     
  0.50000000000000000       0.75000000000000000        0.0000000000000000     
  0.50000000000000000       0.81250000000000000        0.0000000000000000     
  0.41249999999999998       0.78749999999999998        0.0000000000000000     
  0.45624999999999999       0.79374999999999996        0.0000000000000000     
  0.46250000000000002       0.83750000000000002        0.0000000000000000     
  0.41875000000000001       0.83125000000000004        0.0000000000000000     
   6.2500000000000000E-002  0.62500000000000000        0.0000000000000000     
  0.12500000000000000       0.62500000000000000        0.0000000000000000     
  0.12500000000000000       0.68750000000000000        0.0000000000000000     
   3.7499999999999999E-002  0.66249999999999998        0.0000000000000000     
   8.1250000000000003E-002  0.66874999999999996        0.0000000000000000     
   8.7499999999999994E-002  0.71250000000000002        0.0000000000000000     
   4.3749999999999997E-002  0.70625000000000004        0.0000000000000000     
  0.18750000000000000       0.62500000000000000        0.0000000000000000     
  0.25000000000000000       0.62500000000000000        0.0000000000000000     
  0.25000000000000000       0.68750000000000000        0.0000000000000000     
  0.16250000000000001       0.66249999999999998        0.0000000000000000     
  0.20624999999999999       0.66874999999999996        0.0000000000000000     
  0.21249999999999999       0.71250000000000002        0.0000000000000000     
  0.16875000000000001       0.70625000000000004        0.0000000000000000     
   6.2500000000000000E-002  0.50000000000000000        0.0000000000000000     
  0.12500000000000000       0.50000000000000000        0.0000000000000000     
  0.12500000000000000       0.56250000000000000        0.0000000000000000     
   3.7499999999999999E-002  0.53749999999999998        0.0000000000000000     
   8.1250000000000003E-002  0.54374999999999996        0.0000000000000000     
   8.7499999999999994E-002  0.58750000000000002        0.0000000000000000     
   4.3749999999999997E-002  0.58125000000000004        0.0000000000000000     
  0.18750000000000000       0.50000000000000000        0.0000000000000000     
  0.25000000000000000       0.50000000000000000        0.0000000000000000     
  0.25000000000000000       0.56250000000000000        0.0000000000000000     
  0.16250000000000001       0.53749999999999998        0.0000000000000000     
  0.20624999999999999       0.54374999999999996        0.0000000000000000     
  0.21249999999999999       0.58750000000000002        0.0000000000000000     
  0.16875000000000001       0.58125000000000004        0.0000000000000000     
  0.31250000000000000       0.62500000000000000        0.0000000000000000     
  0.37500000000000000       0.62500000000000000        0.0000000000000000     
  0.37500000000000000       0.68750000000000000        0.0000000000000000     
  0.28749999999999998       0.66249999999999998        0.0000000000000000     
  0.33124999999999999       0.66874999999999996        0.0000000000000000     
  0.33750000000000002       0.71250000000000002        0.0000000000000000     
  0.29375000000000001       0.70625000000000004        0.0000000000000000     
  0.43750000000000000       0.62500000000000000        0.0000000000000000     
  0.50000000000000000       0.62500000000000000        0.0000000000000000     
  0.50000000000000000       0.68750000000000000        0.0000000000000000     
  0.41249999999999998       0.66249999999999998        0.0000000000000000     
  0.45624999999999999       0.66874999999999996        0.0000000000000000     
  0.46250000000000002       0.71250000000000002        0.0000000000000000     
  0.41875000000000001       0.70625000000000004        0.0000000000000000     
  0.31250000000000000       0.50000000000000000        0.0000000000000000     
  0.37500000000000000       0.50000000000000000        0.0000000000000000     
  0.37500000000000000       0.56250000000000000        0.0000000000000000     
  0.28749999999999998       0.53749999999999998        0.0000000000000000     
  0.33124999999999999       0.54374999999999996        0.0000000000000000     
  0.33750000000000002       0.58750000000000002        0.0000000000000000     
  0.29375000000000001       0.58125000000000004        0.0000000000000000     
  0.43750000000000000       0.50000000000000000        0.0000000000000000     
  0.50000000000000000       0.50000000000000000        0.0000000000000000     
  0.50000000000000000       0.56250000000000000        0.0000000000000000     
  0.41249999999999998       0.53749999999999998        0.0000000000000000     
  0.45624999999999999       0.54374999999999996        0.0000000000000000     
  0.46250000000000002       0.58750000000000002        0.0000000000000000     
  0.41875000000000001       0.58125000000000004        0.0000000000000000     
  0.56250000000000000       0.87500000000000000        0.0000000000000000     
  0.62500000000000000       0.87500000000000000        0.0000000000000000     
  0.62500000000000000       0.93750000000000000        0.0000000000000000     
  0.53749999999999998       0.91249999999999998        0.0000000000000000     
  0.58125000000000004       0.91874999999999996        0.0000000000000000     
  0.58750000000000002       0.96250000000000002        0.0000000000000000     
  0.54374999999999996       0.95625000000000004        0.0000000000000000     
  0.68750000000000000       0.87500000000000000        0.0000000000000000     
  0.75000000000000000       0.87500000000000000        0.0000000000000000     
  0.75000000000000000       0.93750000000000000        0.0000000000000000     
  0.66249999999999998       0.91249999999999998        0.0000000000000000     
  0.70625000000000004       0.91874999999999996        0.0000000000000000     
  0.71250000000000002       0.96250000000000002        0.0000000000000000     
[...]
 CELL_DATA         896
 SCALARS Cells_density float
 LOOKUP_TABLE default
    0.98996280781662959747E+00
    0.98995837541189946052E+00
    0.98994364371308796180E+00
    0.98993579426724620518E+00
    0.98995075532296117338E+00
    0.98994489775268112997E+00
    0.98995999398549316961E+00
    0.98996645145915485031E+00
    0.98997190993884254251E+00
    0.98997256071094863472E+00
    0.98996954454156615988E+00
    0.98996872597959995055E+00
    0.98996288219153438792E+00
    0.98996140137976451623E+00
    0.98985997874430442511E+00
    0.98978376015371793972E+00
    0.98958677140142004003E+00
    0.98944185193924405475E+00
    0.98963971978851206224E+00
    0.98951847470777143378E+00
    0.98972828514855160087E+00
    0.98983455374520157299E+00
    0.98990950980884440114E+00
    0.98992943600469474053E+00
    0.98990086881733396762E+00
    0.98991564203534609945E+00
    0.98983287566837419025E+00
    0.98980459046142355017E+00
    0.98993298322190259597E+00
    0.98992394118544302373E+00
    0.98988968504514696090E+00
    0.98987010867138147674E+00
    0.98990914279510600071E+00
    0.98990106555340506844E+00
    0.98993678807383989060E+00
    0.98994668442073263659E+00
    0.98995934789552764155E+00
    0.98995852727133182292E+00
    0.98994866350996002513E+00
    0.98994433788927838069E+00
    0.98993675049652829490E+00
    0.98993440588100523048E+00
    0.98968468362841899300E+00
    0.98948570744739927640E+00
    0.98895904018604496866E+00
    0.98855952013314318805E+00
    0.98916103962543289185E+00
    0.98896663432182441156E+00
    0.98951469274291192768E+00
    0.98968192333859628107E+00
    0.98984299316222312815E+00
    0.98987057991289129077E+00
    0.98979249407816360939E+00
    0.98982268097210723834E+00
    0.98963055201105587511E+00
    0.98957437793234914736E+00
    0.98674414058900561386E+00
    0.46308399477975421485E-02
    0.22103411563615056576E-05
    0.14358882212285326993E-05
   -0.92270456950049040846E-06
   -0.13420774119886249761E-07
    0.13721961955269028073E-05
    0.48608536199898650515E-02
    0.98767677407011456037E+00
    0.98927335270044214344E+00
    0.98685387979194938435E+00
    0.98910695936754622348E+00
    0.48892367880384287118E-02
    0.17881205016849549891E-04
   -0.50027437681591159122E-06
   -0.11367385769978425273E-05
    0.18749947000363310290E-05
    0.18728359264244229829E-05
   -0.13076927764098496403E-05
   -0.47649445421322546744E-06
    0.10172269847312747002E-05
   -0.89500058199527249813E-06
    0.31713352470617830972E-06
    0.17018700590101926462E-05
    0.13283277276865362415E-05
   -0.37779765275640154765E-06
    0.20576017136893003464E-04
    0.19669696790009796265E-04
    0.98182937528533653637E+00
    0.11562631900184052597E-01
    0.44949227361844137273E-05
    0.14353825058537033454E-05
   -0.92177378197762041934E-06
   -0.45417008668389984518E-08
    0.18911686782907651111E-05
    0.94759824115697530861E-02
    0.98637017339963528606E+00
    0.98841491448550578003E+00
    0.98356347896469809022E+00
    0.98753825261908545485E+00
    0.11290428269575027154E-01
    0.30914579529280700133E-04
   -0.49416906368995330740E-06
   -0.11345934599756968265E-05
    0.18461717822928429268E-05
    0.46480842829171338868E-06
   -0.13195995835031787646E-05
    0.18511872132992843714E-06
   -0.46757072678637256078E-06
   -0.97712396796490917032E-06
    0.16697112574724613668E-05
    0.17981006543842165048E-05
    0.13300358405052788314E-05
   -0.37837771349062360478E-06
    0.20545337173695980392E-04
    0.19670531591589622067E-04
    0.98989609407486767179E+00
    0.98987119872729267822E+00
    0.98980768997496970663E+00
    0.98975462015520054848E+00
    0.98982515930655412539E+00
    0.98979557147091412617E+00
    0.98987647959554680988E+00
    0.98990127267462879601E+00
    0.98992711531116506229E+00
    0.98992694536946623796E+00
    0.98991318406459982704E+00
    0.98991152846997365611E+00
    0.98988973240787458963E+00
    0.98988153286111557616E+00
    0.98938286834961131078E+00
    0.98887347250117763053E+00
    0.98762968119006622203E+00
    0.98626121699855595626E+00
    0.98785436664778947247E+00
    0.98708670594214342753E+00
    0.98876427868502680951E+00
    0.98922951310463247410E+00
    0.98964693139221060481E+00
    0.98972237665911455551E+00
    0.98955159593977681798E+00
    0.98965052333716174715E+00
    0.98916055562665217149E+00
    0.98900282110571002825E+00
    0.98987604430635478536E+00
    0.98983596443736920900E+00
    0.98975583301597769292E+00
    0.98966346270388416695E+00
    0.98974265491213142543E+00
    0.98966113841796166106E+00
    0.98979337180503368376E+00
    0.98984899095746770037E+00
    0.98989132003962010398E+00
    0.98989624467443826372E+00
    0.98988285669193043503E+00
    0.98988916851349151305E+00
    0.98984919076144728400E+00
    0.98983155205495720885E+00
    0.98918847099686391111E+00
    0.98832328187902340755E+00
    0.98648695540990694042E+00
    0.98316612629506794363E+00
    0.98585656779496955160E+00
    0.98283156171074226304E+00
    0.98734145960198982372E+00
    0.98850665826278139026E+00
    0.98934311069742386646E+00
    0.98952542855004199662E+00
    0.98928732589031487255E+00
    0.98951132028624477766E+00
    0.98861171754466459216E+00
    0.98826433440111405293E+00
    0.96309714552986036562E+00
    0.41725724965302253555E-01
    0.36941013204423134536E-04
    0.14827620249486177219E-05
   -0.90990856303872444207E-06
   -0.18106901357843338576E-08
    0.18281249033718343099E-04
    0.26646137013100430757E-01
    0.98078089922128008915E+00
    0.98527725679310385054E+00
    0.96815479932736958624E+00
    0.98249441526045744322E+00
    0.36678723066312597656E-01
    0.17350639629208007260E-03
    0.26132163381309047075E-05
   -0.11575851072241262050E-05
    0.46472982240897873717E-06
    0.46479247882004934691E-06
   -0.20752912786709575884E-06
    0.18523306757064443551E-06
   -0.46409596010444063405E-06
   -0.87588875823609120171E-06
    0.16727712826470803459E-05
    0.17978362938226021976E-05
    0.13717243702585928330E-05
    0.87452760155985470106E-08
    0.20422598259036320420E-04
    0.19696070666697027945E-04
    0.93822136080164209027E+00
    0.10089592468416140603E+00
    0.11672596401160722623E-02
    0.35350540375626549570E-02
    0.75029159789563679844E-03
    0.18511189158676189534E-03
    0.16403559956465298196E-03
    0.74849237303443547087E-01
    0.96302893864634464549E+00
    0.97716282811120802609E+00
    0.90699802735717038882E+00
    0.97324100815826053434E+00
    0.11640306200923064561E+00
    0.14851606694420472782E-02
    0.73486067287790177507E-02
    0.24734809573366215579E-02
    0.11288058646491377885E-04
    0.49368274944362612471E-06
   -0.40657201776152772883E-07
    0.19173515177319201080E-06
    0.20906486463357805976E-06
    0.98814808740788144222E-04
    0.92914349118883066180E-04
    0.66395239036277876529E-03
    0.31338721299159614554E-02
    0.55373795756668365078E-02
    0.68221995153388691625E-03
    0.44422002519442766561E-04
   -0.47078355034268162899E-06
   -0.10159073545316962191E-05
    0.16704605413382550316E-05
    0.17982776977254605220E-05
    0.13048760306887282802E-05
   -0.19716768219717277311E-06
    0.86280441261827966960E-06
   -0.12206533594814833027E-05
    0.45724236789795730285E-06
    0.18757138863543527066E-05
   -0.13104069246286362004E-05
   -0.47656527489305832949E-06
    0.19689028092858897891E-04
    0.20596044062160692945E-04
    0.37439433703803767104E-06
    0.56698458289299053653E-02
    0.98684608969589326932E+00
    0.98902474136933482551E+00
    0.98693469110114862008E+00
    0.98933315855326442456E+00
    0.98763729886141160552E+00
    0.41705810239594251834E-02
    0.92320195584362978668E-06
    0.14671552751466539901E-05
   -0.92214708744910846567E-06
   -0.61972252647594918726E-08
    0.17893825419862031023E-04
    0.45542244837546222436E-02
   -0.45434765293883654332E-06
   -0.10554219246415796017E-05
    0.16657214477351136077E-05
    0.17992586339349692049E-05
    0.13205295590109911740E-05
   -0.37726238285921877641E-06
   -0.50388534382531464073E-06
   -0.11409395010348240532E-05
    0.18563032029035220915E-05
    0.46573325001984917067E-06
   -0.13160501512188039634E-05
    0.18523383895958284470E-06
    0.19688746867927267218E-04
    0.20620208620441308280E-04
    0.44561969180001853314E-05
    0.14119094441110684873E-01
    0.98224988843001170835E+00
    0.98733915189174403793E+00
    0.98406382598462305289E+00
    0.98857362035358864460E+00
    0.98641666430738728089E+00
    0.83421150183300880887E-02
    0.32984527363566287410E-05
    0.14368764614098413514E-05
   -0.92529379656801595488E-06
   -0.36615046416785548228E-08
    0.31641959451052438122E-04
    0.97110746688526088100E-02
    0.98957207044473827207E+00
    0.98977718546127058108E+00
    0.98986773643721504001E+00
    0.98991156190932350079E+00
    0.98990368055908151135E+00
    0.98993499432664044946E+00
    0.98991057792039804930E+00
    0.98984301119319251239E+00
    0.98973097712651914026E+00
    0.98957676329665644754E+00
    0.98963580145542917599E+00
    0.98936303314665086095E+00
    0.98979525887699359998E+00
    0.98984150678745930207E+00
    0.98994298332078134450E+00
    0.98995920162529449371E+00
    0.98996512815223458581E+00
    0.98996958246936728187E+00
    0.98997052353759518173E+00
    0.98997354493995781688E+00
    0.98997293761759586062E+00
    0.98996779351223795906E+00
    0.98996114063149587281E+00
    0.98995010136952499291E+00
    0.98995171570691931073E+00
    0.98993184063454431332E+00
    0.98996185093275479439E+00
    0.98996615203534188421E+00
    0.98892116962133935765E+00
    0.98947193066220340274E+00
    0.98970147863356328077E+00
    0.98981100546226852277E+00
    0.98980053089647224152E+00
    0.98988195916895127535E+00
    0.98985014746446653433E+00
    0.98970128433608717256E+00
    0.98950463637100283254E+00
    0.98911382551429005705E+00
    0.98915344595286303075E+00
    0.98832731882037272442E+00
    0.98954230826695388501E+00
    0.98966263193613546179E+00
    0.98988757587382658620E+00
    0.98992379940104802127E+00
    0.98993619978428182282E+00
    0.98994517705819951026E+00
    0.98995030601935507519E+00
    0.98995989458999955612E+00
    0.98996157413061691699E+00
    0.98994896827033052045E+00
    0.98993674052372104821E+00
    0.98991122428925770738E+00
    0.98990931257809511301E+00
    0.98985962031387553228E+00
    0.98993114204319199168E+00
    0.98994095669084591904E+00
    0.18571596076364811951E-06
   -0.10786913658318179670E-05
    0.22307111699875267554E-05
    0.18587431728629569534E-05
    0.13630835086010342708E-05
   -0.37155543456006822359E-06
   -0.50853056367401523694E-06
   -0.11442719657917691789E-05
    0.18433830198490858634E-05
    0.46480346328111027213E-06
   -0.17983143388101911173E-06
    0.18523425910020618412E-06
    0.19732328656952388311E-04
    0.20716992131140300379E-04
    0.55542441434356595463E-04
    0.48398305017830434149E-01
    0.96458262643310133111E+00
    0.98208553692112576794E+00
    0.97110943245852132666E+00
    0.98574302529545732021E+00
    0.98091930576147490228E+00
    0.23396005182851335735E-01
    0.14082394455086807273E-04
    0.14345313208538908359E-05
   -0.92454930066631275608E-06
    0.12019372503650193774E-07
    0.19686057130549681603E-03
    0.30982433427573483758E-01
    0.12416860354941755413E-04
    0.24516244736395255074E-02
    0.72767033397178864512E-02
    0.57806198087415553571E-02
    0.20977672525594945330E-02
    0.27528204654047824275E-03
    0.56125085424937294837E-04
    0.29831327276880648548E-03
    0.64483495673055693314E-06
    0.47035369726069852036E-06
   -0.14492632840728306951E-07
    0.21394715792361916864E-06
    0.10998236839071115695E-03
    0.26127430324101626061E-03
    0.13398466515828614566E-02
    0.11485605463939342619E+00
    0.93832998575838111321E+00
    0.97305049977363966551E+00
    0.91722233559662780245E+00
    0.97794523859610615890E+00
    0.96316682417751320333E+00
    0.65668041511206504124E-01
    0.99088633062298475912E-04
    0.50231393285427147679E-04
    0.96279733709722149261E-03
    0.40638772944223931771E-02
    0.15726493477060650775E-02
    0.10349477453619897183E+00
    0.98756714329295336441E+00
    0.98883678962639964816E+00
    0.98940560678653299842E+00
    0.98962383280970167565E+00
    0.98956777706489174040E+00
    0.98974842458134681955E+00
    0.98966186437956027433E+00
    0.98928167531635569087E+00
    0.98874251910354460371E+00
    0.98759672113280527750E+00
    0.98784899691042005188E+00
    0.98540478449715240838E+00
    0.98893965481656864736E+00
    0.98922219346926376637E+00
    0.98980498403010108710E+00
    0.98987004764175756666E+00
    0.98989892530087364442E+00
    0.98991133233563488591E+00
    0.98991505053441153361E+00
    0.98992849680774563925E+00
    0.98993007457739112809E+00
    0.98990422931346966351E+00
    0.98987495716001316914E+00
    0.98981780482749637251E+00
    0.98982551333358803625E+00
    0.98972928228950451945E+00
    0.98987790503199724057E+00
    0.98989557938266126147E+00
    0.98646309937308895854E+00
    0.98823650941005569681E+00
    0.98919489994951048661E+00
    0.98946647395965836580E+00
    0.98929814249068770415E+00
    0.98956891280915248998E+00
    0.98935767143054331729E+00
    0.98860647369768339665E+00
    0.98731602860887424100E+00
    0.98451417069842683816E+00
    0.98586288964625090614E+00
    0.98085834146610895168E+00
    0.98821622046894452840E+00
    0.98865521981270376717E+00
    0.98975458613670552754E+00
    0.98983268176253891291E+00
    0.98987658202020556431E+00
    0.98988788643854686011E+00
    0.98988398680316036504E+00
    0.98989759197624171971E+00
    0.98989343679829622236E+00
    0.98985339581743148063E+00
    0.98979267116153457629E+00
    0.98969984200917993089E+00
    0.98974260823109372343E+00
    0.98962244810122346195E+00
    0.98982956830981971841E+00
    0.98985236651378727402E+00
    0.98989324562127711804E+00
    0.98985332196247655112E+00
    0.98979282800382106799E+00
    0.98969993212712337183E+00
    0.98974261745661762379E+00
    0.98962253370524033702E+00
    0.98975474554797793214E+00
    0.98983262107367708804E+00
    0.98987642139472553637E+00
    0.98988787778610920487E+00
    0.98988394603511109526E+00
    0.98989757120093924136E+00
    0.98985233819385054499E+00
    0.98982955849331411002E+00
    0.98935750144990042276E+00
    0.98860640800320997990E+00
    0.98731625002718814699E+00
    0.98451427342872366300E+00
    0.98586291296716721533E+00
    0.98085845193466136838E+00
    0.98646334833934479214E+00
    0.98823646042383350707E+00
    0.98919474330160139797E+00
    0.98946647778105789595E+00
    0.98929811298846559442E+00
    0.98956892463664325454E+00
    0.98865519655507716479E+00
    0.98821621788703573053E+00
    0.98992987309513291727E+00
    0.98990415628313077612E+00
    0.98987511199109512461E+00
    0.98981789578164047771E+00
    0.98982552445552118847E+00
    0.98972936768740993330E+00
    0.98980514914988293462E+00
    0.98986998776405832334E+00
    0.98989876491280437421E+00
    0.98991132735092579598E+00
    0.98991501542951199077E+00
    0.98992846510640875035E+00
    0.98989555194422107487E+00
    0.98987789627528866010E+00
    0.98966170221011295904E+00
    0.98928160944131415810E+00
    0.98874270438193290200E+00
    0.98759682040770191414E+00
    0.98784901635070410109E+00
    0.98540489366378014591E+00
    0.98756737452410159328E+00
    0.98883673803749538855E+00
    0.98940545420764136608E+00
    0.98962383846439727630E+00
    0.98956775033800936647E+00
    0.98974843779297261293E+00
    0.98922217247210053603E+00
    0.98893965280974904797E+00
    0.96316620765373317514E+00
    0.65668335547305903277E-01
    0.99089262383424706266E-04
    0.50231371152345843814E-04
    0.96279663044548057221E-03
    0.40638747995622092821E-02
    0.13398488845945113936E-02
    0.11485666670667450673E+00
    0.93832898002935749560E+00
    0.97305040204261283865E+00
    0.91722232022052196942E+00
    0.97794517876303077575E+00
    0.10349468663699586124E+00
    0.15726528051596333144E-02
    0.56125102527306884527E-04
    0.29831332652596894393E-03
    0.64483499665464916188E-06
    0.47035369741456724330E-06
   -0.14492762608041323732E-07
    0.21394716583538549608E-06
    0.12416824390754093130E-04
    0.24516205271141503462E-02
    0.72766935474295173919E-02
    0.57806157700034414490E-02
    0.20977658597966090427E-02
    0.27528191277394680825E-03
    0.26127251291329202723E-03
    0.10998210852089619963E-03
    0.98091901875561504642E+00
    0.23396020695918878091E-01
    0.14082391713797845698E-04
    0.14345313303918922095E-05
   -0.92454990882222291636E-06
    0.12018716477128694867E-07
    0.55542719061540106072E-04
    0.48398472443500491214E-01
    0.96458203894588667726E+00
    0.98208550070064870585E+00
    0.97110939417036523658E+00
    0.98574301959224763792E+00
    0.30982388250212208186E-01
    0.19686079535393536354E-03
   -0.50853212808968094162E-06
   -0.11442719266490178336E-05
    0.18433824494571203582E-05
    0.46480347051245045377E-06
   -0.17983149700395410234E-06
    0.18523426741452976371E-06
    0.18571605574942821031E-06
   -0.10786902409015023572E-05
    0.22306317728547684019E-05
    0.18587376876295857265E-05
    0.13630843634010892100E-05
   -0.37155548359767179376E-06
    0.20716991564297842533E-04
    0.19732328415789904177E-04
    0.98996137051720956013E+00
    0.98994889688551990226E+00
    0.98993689683667518420E+00
    0.98991131755003269888E+00
    0.98990932549203158874E+00
    0.98985970549244595151E+00
    0.98988773902973126173E+00
    0.98992373978179371008E+00
    0.98993604028129111860E+00
    0.98994517382725921717E+00
    0.98995027388131018320E+00
    0.98995985902848737670E+00
    0.98994093015839879079E+00
    0.98993113390983578093E+00
    0.98984999378262894520E+00
    0.98970122026281714955E+00
    0.98950480853059941122E+00
    0.98911392634109207567E+00
    0.98915346502291723318E+00
    0.98832741917672806142E+00
    0.98892136401249397526E+00
    0.98947187722503193719E+00
    0.98970133323427633698E+00
    0.98981101346215949466E+00
    0.98980050759482873790E+00
    0.98988197543730982453E+00
    0.98966261279514622373E+00
    0.98954230652057861839E+00
    0.98997294057431239889E+00
    0.98996779134507639775E+00
    0.98996113812007568988E+00
    0.98995023915205981879E+00
    0.98995175970377546903E+00
    0.98993193478573160426E+00
    0.98994314672087513340E+00
    0.98995914797129680451E+00
    0.98996497295970131702E+00
    0.98996958491230657717E+00
    0.98997050793153618109E+00
    0.98997354492838918194E+00
    0.98996613640845165794E+00
    0.98996184547248278207E+00
    0.98991063551425850786E+00
    0.98984302470595852963E+00
    0.98973098519641111714E+00
    0.98957691460258634386E+00
    0.98963584826691020080E+00
    0.98936313971641232090E+00
    0.98957224950566491373E+00
    0.98977714104440406295E+00
    0.98986760183413113889E+00
    0.98991157659287065673E+00
    0.98990373281504773217E+00
    0.98993521653584981568E+00
    0.98984150967437112278E+00
    0.98979526496303871230E+00
    0.98641647967142676023E+00
    0.83420408188877148009E-02
    0.32984244115798247354E-05
    0.14368764493846446188E-05
   -0.92529438662479884284E-06
   -0.36614274410843432186E-08
    0.44561516892127096484E-05
    0.14119035766217280861E-01
    0.98224962381127356448E+00
    0.98733915285882001278E+00
    0.98406381113139596017E+00
    0.98857363524749419792E+00
    0.97110191787800684282E-02
    0.31641792490406310361E-04
   -0.50388686677763676328E-06
   -0.11409394469437402870E-05
    0.18563024497203833193E-05
    0.46573327495703843312E-06
   -0.13160511054066746731E-05
    0.18523382415461572629E-06
   -0.45434599961597859233E-06
   -0.10554217013242284759E-05
    0.16657222014296125229E-05
    0.17992587001702451274E-05
    0.13205304135796439117E-05
   -0.37726246720307337661E-06