# vtk DataFile Version 3.0
LAPLACIEN  2D
ASCII
DATASET UNSTRUCTURED_GRID
 POINTS         481  float
   6.2500000000000000E-002  0.87500000000000000        0.0000000000000000     
  0.12500000000000000       0.87500000000000000        0.0000000000000000     
  0.12500000000000000       0.93750000000000000        0.0000000000000000     
   3.7499999999999999E-002  0.91249999999999998        0.0000000000000000     
   8.1250000000000003E-002  0.91874999999999996        0.0000000000000000     
   8.7499999999999994E-002  0.96250000000000002        0.0000000000000000     
   4.3749999999999997E-002  0.95625000000000004        0.0000000000000000     
  0.18750000000000000       0.87500000000000000        0.0000000000000000     
  0.25000000000000000       0.87500000000000000        0.0000000000000000     
  0.25000000000000000       0.93750000000000000        0.0000000000000000     
  0.16250000000000001       0.91249999999999998        0.0000000000000000     
  0.20624999999999999       0.91874999999999996        0.0000000000000000     
  0.21249999999999999       0.96250000000000002        0.0000000000000000     
  0.16875000000000001       0.95625000000000004        0.0000000000000000     
   6.2500000000000000E-002  0.75000000000000000        0.0000000000000000     
  0.12500000000000000       0.75000000000000000        0.0000000000000000     
  0.12500000000000000       0.81250000000000000        0.0000000000000000     
   3.7499999999999999E-002  0.78749999999999998        0.0000000000000000     
   8.1250000000000003E-002  0.79374999999999996        0.0000000000000000     
   8.7499999999999994E-002  0.83750000000000002        0.0000000000000000     
   4.3749999999999997E-002  0.83125000000000004        0.0000000000000000     
  0.18750000000000000       0.75000000000000000        0.0000000000000000     
  0.25000000000000000       0.75000000000000000        0.0000000000000000     
  0.25000000000000000       0.81250000000000000        0.0000000000000000     
  0.16250000000000001       0.78749999999999998        0.0000000000000000     
  0.20624999999999999       0.79374999999999996        0.0000000000000000     
  0.21249999999999999       0.83750000000000002        0.0000000000000000     
  0.16875000000000001       0.83125000000000004        0.0000000000000000     
  0.31250000000000000       0.87500000000000000        0.0000000000000000     
  0.37500000000000000       0.87500000000000000        0.0000000000000000     
  0.37500000000000000       0.93750000000000000        0.0000000000000000     
  0.28749999999999998       0.91249999999999998        0.0000000000000000     
  0.33124999999999999       0.91874999999999996        0.0000000000000000     
  0.33750000000000002       0.96250000000000002        0.0000000000000000     
  0.29375000000000001       0.95625000000000004        0.0000000000000000     
  0.43750000000000000       0.87500000000000000        0.0000000000000000     
  0.50000000000000000       0.87500000000000000        0.0000000000000000     
  0.50000000000000000       0.93750000000000000        0.0000000000000000     
  0.41249999999999998       0.91249999999999998        0.0000000000000000     
  0.45624999999999999       0.91874999999999996        0.0000000000000000     
  0.46250000000000002       0.96250000000000002        0.0000000000000000     
  0.41875000000000001       0.95625000000000004        0.0000000000000000     
  0.31250000000000000       0.75000000000000000        0.0000000000000000     
  0.37500000000000000       0.75000000000000000        0.0000000000000000     
  0.37500000000000000       0.81250000000000000        0.0000000000000000     
  0.28749999999999998       0.78749999999999998        0.0000000000000000     
  0.33124999999999999       0.79374999999999996        0.0000000000000000     
  0.33750000000000002       0.83750000000000002        0.0000000000000000     
  0.29375000000000001       0.83125000000000004        0.0000000000000000     
  0.43750000000000000       0.75000000000000000        0.0000000000000000     
  0.50000000000000000       0.75000000000000000        0.0000000000000000     
  0.50000000000000000       0.81250000000000000        0.0000000000000000     
  0.41249999999999998       0.78749999999999998        0.0000000000000000     
  0.45624999999999999       0.79374999999999996        0.0000000000000000     
  0.46250000000000002       0.83750000000000002        0.0000000000000000     
  0.41875000000000001       0.83125000000000004        0.0000000000000000     
   6.2500000000000000E-002  0.62500000000000000        0.0000000000000000     
  0.12500000000000000       0.62500000000000000        0.0000000000000000     
  0.12500000000000000       0.68750000000000000        0.0000000000000000     
   3.7499999999999999E-002  0.66249999999999998        0.0000000000000000     
   8.1250000000000003E-002  0.66874999999999996        0.0000000000000000     
   8.7499999999999994E-002  0.71250000000000002        0.0000000000000000     
   4.3749999999999997E-002  0.70625000000000004        0.0000000000000000     
  0.18750000000000000       0.62500000000000000        0.0000000000000000     
  0.25000000000000000       0.62500000000000000        0.0000000000000000     
  0.25000000000000000       0.68750000000000000        0.0000000000000000     
  0.16250000000000001       0.66249999999999998        0.0000000000000000     
  0.20624999999999999       0.66874999999999996        0.0000000000000000     
  0.21249999999999999       0.71250000000000002        0.0000000000000000     
  0.16875000000000001       0.70625000000000004        0.0000000000000000     
   6.2500000000000000E-002  0.50000000000000000        0.0000000000000000     
  0.12500000000000000       0.50000000000000000        0.0000000000000000     
  0.12500000000000000       0.56250000000000000        0.0000000000000000     
   3.7499999999999999E-002  0.53749999999999998        0.0000000000000000     
   8.1250000000000003E-002  0.54374999999999996        0.0000000000000000     
   8.7499999999999994E-002  0.58750000000000002        0.0000000000000000     
   4.3749999999999997E-002  0.58125000000000004        0.0000000000000000     
  0.18750000000000000       0.50000000000000000        0.0000000000000000     
  0.25000000000000000       0.50000000000000000        0.0000000000000000     
  0.25000000000000000       0.56250000000000000        0.0000000000000000     
  0.16250000000000001       0.53749999999999998        0.0000000000000000     
  0.20624999999999999       0.54374999999999996        0.0000000000000000     
  0.21249999999999999       0.58750000000000002        0.0000000000000000     
  0.16875000000000001       0.58125000000000004        0.0000000000000000     
  0.31250000000000000       0.62500000000000000        0.0000000000000000     
  0.37500000000000000       0.62500000000000000        0.0000000000000000     
  0.37500000000000000       0.68750000000000000        0.0000000000000000     
  0.28749999999999998       0.66249999999999998        0.0000000000000000     
  0.33124999999999999       0.66874999999999996        0.0000000000000000     
  0.33750000000000002       0.71250000000000002        0.0000000000000000     
  0.29375000000000001       0.70625000000000004        0.0000000000000000     
  0.43750000000000000       0.62500000000000000        0.0000000000000000     
  0.50000000000000000       0.62500000000000000        0.0000000000000000     
  0.50000000000000000       0.68750000000000000        0.0000000000000000     
  0.41249999999999998       0.66249999999999998        0.0000000000000000     
  0.45624999999999999       0.66874999999999996        0.0000000000000000     
  0.46250000000000002       0.71250000000000002        0.0000000000000000     
  0.41875000000000001       0.70625000000000004        0.0000000000000000     
  0.31250000000000000       0.50000000000000000        0.0000000000000000     
  0.37500000000000000       0.50000000000000000        0.0000000000000000     
  0.37500000000000000       0.56250000000000000        0.0000000000000000     
  0.28749999999999998       0.53749999999999998        0.0000000000000000     
  0.33124999999999999       0.54374999999999996        0.0000000000000000     
  0.33750000000000002       0.58750000000000002        0.0000000000000000     
  0.29375000000000001       0.58125000000000004        0.0000000000000000     
  0.43750000000000000       0.50000000000000000        0.0000000000000000     
  0.50000000000000000       0.50000000000000000        0.0000000000000000     
  0.50000000000000000       0.56250000000000000        0.0000000000000000     
  0.41249999999999998       0.53749999999999998        0.0000000000000000     
  0.45624999999999999       0.54374999999999996        0.0000000000000000     
  0.46250000000000002       0.58750000000000002        0.0000000000000000     
  0.41875000000000001       0.58125000000000004        0.0000000000000000     
  0.56250000000000000       0.87500000000000000        0.0000000000000000     
  0.62500000000000000       0.87500000000000000        0.0000000000000000     
  0.62500000000000000       0.93750000000000000        0.0000000000000000     
  0.53749999999999998       0.91249999999999998        0.0000000000000000     
  0.58125000000000004       0.91874999999999996        0.0000000000000000     
  0.58750000000000002       0.96250000000000002        0.0000000000000000     
  0.54374999999999996       0.95625000000000004        0.0000000000000000     
  0.68750000000000000       0.87500000000000000        0.0000000000000000     
  0.75000000000000000       0.87500000000000000        0.0000000000000000     
  0.75000000000000000       0.93750000000000000        0.0000000000000000     
  0.66249999999999998       0.91249999999999998        0.0000000000000000     
  0.70625000000000004       0.91874999999999996        0.0000000000000000     
  0.71250000000000002       0.96250000000000002        0.0000000000000000     
[...]
 CELL_DATA         896
 SCALARS Cells_density float
 LOOKUP_TABLE default
    0.98995758427148006220E+00
    0.98995016642337807511E+00
    0.98992967579889723506E+00
    0.98991646461085891495E+00
    0.98993672188875403428E+00
    0.98992610929941737830E+00
    0.98994986042113719549E+00
    0.98996031124872507778E+00
    0.98996887240324149548E+00
    0.98997008092226090881E+00
    0.98996613323580440191E+00
    0.98996571812142886149E+00
    0.98995479954194520733E+00
    0.98995214220025817831E+00
    0.98980719065029876269E+00
    0.98968809164328486183E+00
    0.98939795314519041192E+00
    0.98916498775127170706E+00
    0.98945204220917137850E+00
    0.98924674874123907919E+00
    0.98958117766893871625E+00
    0.98975167638201266840E+00
    0.98987004627041197402E+00
    0.98990184890363308590E+00
    0.98986018201706016395E+00
    0.98988650905900166244E+00
    0.98975419856675883601E+00
    0.98970838523292170574E+00
    0.98992452660938234921E+00
    0.98991079894215250334E+00
    0.98986631068710173587E+00
    0.98983789570132729718E+00
    0.98988744952794816001E+00
    0.98987308693673148330E+00
    0.98992146894338484131E+00
    0.98993682960167517226E+00
    0.98995391782680408621E+00
    0.98995436343574694238E+00
    0.98994285895617128990E+00
    0.98993899055723877378E+00
    0.98992506567217275482E+00
    0.98992087100861625437E+00
    0.98959138431981952255E+00
    0.98931426969106905922E+00
    0.98860050185366876718E+00
    0.98802128305864922453E+00
    0.98883461126375460370E+00
    0.98851879435614387059E+00
    0.98930590620194525098E+00
    0.98955695054503756136E+00
    0.98978652071603490104E+00
    0.98982972112339495663E+00
    0.98972618440783910465E+00
    0.98977335351669282204E+00
    0.98950017934458867064E+00
    0.98941816151162842452E+00
    0.98154656531688977417E+00
    0.11947958591281082966E-01
    0.13664269247340257073E-04
    0.27230335869580057879E-05
   -0.27288102120776718786E-05
    0.66367426825142472057E-06
    0.11877535837768100991E-04
    0.12415943411861890544E-01
    0.98330790731645134617E+00
    0.98881726192937358100E+00
    0.97996078608178716074E+00
    0.98860680686190705035E+00
    0.12804844159441596332E-01
    0.94172597594943397966E-04
   -0.25136503392895109096E-05
   -0.41979056907857714649E-05
    0.54269680512294596642E-05
    0.54137314132585016065E-05
   -0.57296375127150760937E-05
   -0.22655555422900590684E-05
    0.22703107570666992373E-06
   -0.29310170345614872727E-05
   -0.20046591748442322066E-05
    0.42268426911817723012E-05
    0.12906279514800907354E-04
   -0.41126832594599515642E-06
    0.59268846068509335929E-04
    0.52862567034969905073E-04
    0.97169921101962708487E+00
    0.25350809043716917429E-01
    0.51216025349786803076E-04
    0.27224845003165606462E-05
   -0.26725994268103715336E-05
    0.10198168452995288225E-05
    0.34514272388713467964E-04
    0.20241042556870841862E-01
    0.98045549290455003000E+00
    0.98763865289210450715E+00
    0.97149191360275788387E+00
    0.98643142630830349393E+00
    0.25118324858815679196E-01
    0.29315451909599064438E-03
   -0.25058181641010841029E-05
   -0.42282126336623594392E-05
    0.51858744726041457377E-05
    0.20908044696391185127E-05
   -0.58408517398220317202E-05
   -0.82110537511406175117E-06
   -0.21554732558240843028E-05
   -0.33933895663690908361E-05
    0.37524810319208577745E-05
    0.53907622950112158135E-05
    0.12868157186048346320E-04
   -0.41559219899845375518E-06
    0.59216062121812011244E-04
    0.52869930167439970891E-04
    0.98988298640260952155E+00
    0.98985002065284011241E+00
    0.98976895654106644695E+00
    0.98969889538277289187E+00
    0.98978794557878124749E+00
    0.98974626832073842042E+00
    0.98985048856573221165E+00
    0.98988479167657128510E+00
    0.98991815197601418230E+00
    0.98991960440148385469E+00
    0.98990327268467936950E+00
    0.98990253493130619944E+00
    0.98987138867552526555E+00
    0.98985997909833756125E+00
    0.98921424292596460415E+00
    0.98853215863137577912E+00
    0.98685241671416279452E+00
    0.98489396937270012877E+00
    0.98712194283937082506E+00
    0.98600553676713276197E+00
    0.98835391513171644284E+00
    0.98898807650059483709E+00
    0.98954579012669696692E+00
    0.98964943309949360284E+00
    0.98942952900441361042E+00
    0.98956288545460058259E+00
    0.98890987268030938750E+00
    0.98870097711116433636E+00
    0.98986015556890805112E+00
    0.98980845975553721772E+00
    0.98970574102773656300E+00
    0.98958523373475504314E+00
    0.98968742413509958045E+00
    0.98958063385381878074E+00
    0.98975136746190195414E+00
    0.98982381589477319572E+00
    0.98987769459240593228E+00
    0.98988516348381294652E+00
    0.98986892564103567960E+00
    0.98987740129044565762E+00
    0.98982413355213361150E+00
    0.98980106465046513442E+00
    0.98895776923349398846E+00
    0.98777063224768568706E+00
    0.98517321034396909685E+00
    0.97972822121317626465E+00
    0.98418361087804973053E+00
    0.97940660556103753542E+00
    0.98643915297012163546E+00
    0.98803300066749022434E+00
    0.98916357030664714411E+00
    0.98940334671469687411E+00
    0.98908843772096977087E+00
    0.98938521071696927667E+00
    0.98817615397773927999E+00
    0.98771067373423893088E+00
    0.93068815783687708354E+00
    0.82336366511137418223E-01
    0.52019675958516137584E-03
    0.33614962025047595441E-05
   -0.22025064975388652537E-05
    0.10336696439944332430E-05
    0.22889451183719699613E-03
    0.49153789264052893948E-01
    0.96872292297265416572E+00
    0.98306548090250689409E+00
    0.93231626797520583683E+00
    0.97835911646991036150E+00
    0.75730648244925244383E-01
    0.23497397966551238080E-02
    0.43259661935144906031E-05
   -0.46009685637038641234E-05
    0.38452053412154130183E-05
    0.57861017110929033443E-06
   -0.49780132448973575041E-05
    0.23513689801494171118E-06
   -0.21469132034597142917E-05
   -0.31941071936187924957E-05
    0.37874222847807804549E-05
    0.54071479090707335113E-05
    0.12881082506798640337E-04
    0.13456158870964637226E-05
    0.58984007621962830984E-04
    0.53053785379649825635E-04
    0.87017892080829606360E+00
    0.21360165961023655501E+00
    0.51565473509515664594E-02
    0.28334573525635874287E-02
    0.16276125223197894856E-02
    0.62968645670076256373E-03
    0.19088698585717203335E-02
    0.13768099140287098914E+00
    0.93078359087958761897E+00
    0.96689093637240408619E+00
    0.77636093280727858090E+00
    0.95648729588102809895E+00
    0.25096630341401149344E+00
    0.21804770146294095989E-01
    0.34397392576384524902E-02
    0.21320373342301342755E-02
    0.15392595528269351242E-03
    0.66793900724446136692E-06
    0.11209513180407873417E-05
    0.23505148011401513360E-06
   -0.10934389532471647862E-05
    0.73519669169482722835E-04
    0.14041608659270908284E-03
    0.78979806324441911760E-03
    0.19611266529313687960E-02
    0.30854635014350693424E-02
    0.12248360480597089706E-02
    0.34187093794893692097E-03
   -0.21733850046494155455E-05
   -0.35096642498394514235E-05
    0.37413087632902085173E-05
    0.53806163293391054444E-05
    0.12792727622841346783E-04
    0.21059232815252557622E-06
   -0.77731948181877634992E-06
   -0.52497642498535410465E-05
   -0.12482112322557114652E-05
    0.54346711114824104157E-05
   -0.57012918167176782151E-05
   -0.13645694542702945403E-05
    0.53002958879062738210E-04
    0.59381402382583422638E-04
    0.14661702592380148211E-04
    0.14207637341479688667E-01
    0.98170730834875452597E+00
    0.98847543716845243100E+00
    0.98023664989297876193E+00
    0.98891252970091791941E+00
    0.98318569505147224152E+00
    0.10721703022639741607E-01
    0.74100469841032528544E-05
    0.29956629740921174937E-05
   -0.26361597135262388394E-05
    0.10089239342197868263E-05
    0.95542247657523965464E-04
    0.12211981204525325720E-01
   -0.21085221663371453241E-05
   -0.35922029615954638837E-05
    0.37183540368482441742E-05
    0.53798693839042529313E-05
    0.12881043874706802954E-04
   -0.41373788997590357373E-06
   -0.25296466476424836061E-05
   -0.42464129561180862408E-05
    0.52321228564165692807E-05
    0.30479589480110406834E-05
   -0.58030038139394395075E-05
   -0.10224620250594133513E-06
    0.52952683182604188346E-04
    0.59416892744216742391E-04
    0.77363765212350879097E-04
    0.29991592456872374212E-01
    0.97239816138879109353E+00
    0.98615293089507827240E+00
    0.97304533684271188321E+00
    0.98786949406804991369E+00
    0.98042920836624081193E+00
    0.17819627051742132490E-01
    0.27875559654183815412E-04
    0.27277624228729396748E-05
   -0.26755059494713504653E-05
    0.10172957084565406790E-05
    0.31458631843473821308E-03
    0.22273318077357828759E-01
    0.98937704235719181600E+00
    0.98967708708768498127E+00
    0.98981666260282152869E+00
    0.98987944470384214846E+00
    0.98986329543049489388E+00
    0.98990984671978832221E+00
    0.98987081741485427600E+00
    0.98976364719823961558E+00
    0.98958433351860197735E+00
    0.98933998701632908102E+00
    0.98944572340587666481E+00
    0.98903825425729752219E+00
    0.98969549196591477536E+00
    0.98976467029273196285E+00
    0.98992838749729084036E+00
    0.98995083704582342854E+00
    0.98996045823585065992E+00
    0.98996645303974739605E+00
    0.98996717288317115369E+00
    0.98997115410391089974E+00
    0.98997002322115124073E+00
    0.98996144026360843871E+00
    0.98995106621086315091E+00
    0.98993362752306912622E+00
    0.98993756071472549518E+00
    0.98990976659194740428E+00
    0.98995199653607390822E+00
    0.98995823052982034884E+00
    0.98854865009758008387E+00
    0.98929335277956198524E+00
    0.98961197339002515694E+00
    0.98975683663319868888E+00
    0.98973585755684478915E+00
    0.98984511311676715017E+00
    0.98979482613965186211E+00
    0.98958346917363437800E+00
    0.98929218464898716068E+00
    0.98873583546715082537E+00
    0.98882438085462787125E+00
    0.98767416090449511312E+00
    0.98937619933187559429E+00
    0.98953990602217856143E+00
    0.98986333967294426461E+00
    0.98991037990623365062E+00
    0.98992843085837300965E+00
    0.98993965782364778949E+00
    0.98994466260923630330E+00
    0.98995598056915634633E+00
    0.98995640623481695464E+00
    0.98993961173351485705E+00
    0.98992115366082722439E+00
    0.98988658162396148121E+00
    0.98988741737371732654E+00
    0.98982286147904863238E+00
    0.98991684315741823585E+00
    0.98993005697452463032E+00
   -0.14702100305187342899E-05
   -0.36529408052396157747E-05
    0.58019587914531387077E-05
    0.58390197673102407910E-05
    0.13016445181634612226E-04
   -0.37488272251780998785E-06
   -0.25488585160270806342E-05
   -0.42558688732108691102E-05
    0.51439492365550880951E-05
    0.57865562170104959004E-06
   -0.49650462112294077829E-05
    0.23512563883775568090E-06
    0.53169435443463315466E-04
    0.59642051412693352979E-04
    0.78316161476686782950E-03
    0.93511177443502818685E-01
    0.93384884729823047778E+00
    0.97796281413239916080E+00
    0.94051869127877396615E+00
    0.98373004182250989302E+00
    0.96864557449117849597E+00
    0.43801956993724501521E-01
    0.15831233374912748093E-03
    0.27343103432896439267E-05
   -0.21642290688621041566E-05
    0.12228148420174289907E-05
    0.27002236224891755165E-02
    0.64096280152697651666E-01
    0.19815860340292426101E-03
    0.21770551966052479297E-02
    0.34746624771181179071E-02
    0.32870218357292117425E-02
    0.18078283324458870474E-02
    0.69145964218661124228E-03
    0.11919194674945200621E-03
    0.19937096021530574270E-03
    0.62075458044956404767E-05
    0.57928257001552917290E-06
    0.19640089956450178314E-04
    0.34854111424995930424E-06
    0.69333433349164530924E-03
    0.66305440370826652149E-03
    0.64371721627554025907E-02
    0.23342211164818230107E+00
    0.87032708154430249436E+00
    0.95801082759456535065E+00
    0.80218150302676372032E+00
    0.96803706362283004072E+00
    0.93015280714880299584E+00
    0.12724946937378178724E+00
    0.13186507847880403130E-02
    0.46365175234597624538E-03
    0.18774277953771468293E-02
    0.30956927869638501370E-02
    0.22339042316527252252E-01
    0.22089445847091723762E+00
    0.98675866404016676636E+00
    0.98848086827402270593E+00
    0.98924321865809561327E+00
    0.98952746245367562139E+00
    0.98944936652894333040E+00
    0.98968301885622600444E+00
    0.98956342700947252933E+00
    0.98905717352243138762E+00
    0.98832455134615060377E+00
    0.98674411288615104798E+00
    0.98711488864141017086E+00
    0.98358423866833499805E+00
    0.98861584799325896711E+00
    0.98898824711197819148E+00
    0.98976524402305499084E+00
    0.98984830888844899111E+00
    0.98988654701887801579E+00
    0.98990211867123589773E+00
    0.98990542133547210213E+00
    0.98992151868697630945E+00
    0.98992148636817700602E+00
    0.98988861894191759738E+00
    0.98984862687339936205E+00
    0.98977496380093887840E+00
    0.98978802151663325404E+00
    0.98966519279244180574E+00
    0.98985532743575466164E+00
    0.98987829493108514534E+00
    0.98512297245940705359E+00
    0.98764832223698506564E+00
    0.98896672291828824353E+00
    0.98932651582575625859E+00
    0.98910280354434765293E+00
    0.98945964009112241655E+00
    0.98918177048603317392E+00
    0.98817192560491073916E+00
    0.98640706764175811738E+00
    0.98215492373360857581E+00
    0.98418101136075208935E+00
    0.97565120693091311743E+00
    0.98763865297653363751E+00
    0.98823605710637363320E+00
    0.98970380467102347932E+00
    0.98980449549016291666E+00
    0.98986113981304069132E+00
    0.98987576755965644981E+00
    0.98987025162363562192E+00
    0.98988696761940841995E+00
    0.98988017890094470719E+00
    0.98982921505347876145E+00
    0.98975043135226337121E+00
    0.98963073888691988067E+00
    0.98968715780960814232E+00
    0.98953110148890521813E+00
    0.98979862499470605552E+00
    0.98982782256499357576E+00
    0.98987973544986862517E+00
    0.98982902901137992391E+00
    0.98975080931543135687E+00
    0.98963097970104163537E+00
    0.98968717498196179250E+00
    0.98953132982696578868E+00
    0.98970418433707751937E+00
    0.98980434549202167549E+00
    0.98986074423205960837E+00
    0.98987572876661611421E+00
    0.98987014619598479026E+00
    0.98988692374342623914E+00
    0.98982776134330452411E+00
    0.98979859260576852353E+00
    0.98918136063177375394E+00
    0.98817175614504915160E+00
    0.98640762375529322803E+00
    0.98215523206955068769E+00
    0.98418106846675457167E+00
    0.97565153571916274355E+00
    0.98512360413217270327E+00
    0.98764820077276871402E+00
    0.98896633773063902240E+00
    0.98932651456262532541E+00
    0.98910273171765006328E+00
    0.98945966244837102455E+00
    0.98823600984322068630E+00
    0.98763863744223978625E+00
    0.98992103416734955612E+00
    0.98988843387499347859E+00
    0.98984900023808852776E+00
    0.98977520410113117855E+00
    0.98978804047281576661E+00
    0.98966542000768809029E+00
    0.98976563556598451399E+00
    0.98984816105669504172E+00
    0.98988615227630338822E+00
    0.98990208285752512296E+00
    0.98990532055998359251E+00
    0.98992146417880522158E+00
    0.98987823449863321379E+00
    0.98985529752116585556E+00
    0.98956303695367553441E+00
    0.98905700569677690304E+00
    0.98832501080728629717E+00
    0.98674439492688470477E+00
    0.98711493280375417481E+00
    0.98358454911739989779E+00
    0.98675923425349720830E+00
    0.98848074103101268850E+00
    0.98924284539273443784E+00
    0.98952746456397366881E+00
    0.98944929960660787938E+00
    0.98968304437583487498E+00
    0.98898820433495837623E+00
    0.98861583456934132297E+00
    0.93015064221197352179E+00
    0.12724983077767165751E+00
    0.13186590623105478009E-02
    0.46365104593629592831E-03
    0.18774257798239795368E-02
    0.30956885379553960268E-02
    0.64372098495276515104E-02
    0.23342306847735957986E+00
    0.87032333311272647158E+00
    0.95801042148765058748E+00
    0.80218186818335268651E+00
    0.96803686487561513285E+00
    0.22089357989270450022E+00
    0.22339030608841146941E-01
    0.11919183748837022959E-03
    0.19937049566184016861E-03
    0.62075377706106309961E-05
    0.57928255371517472578E-06
    0.19639860938950870890E-04
    0.34854014613594865214E-06
    0.19815777035426759313E-03
    0.21770486270604925104E-02
    0.34746474231837996133E-02
    0.32870146518964760314E-02
    0.18078241828045087027E-02
    0.69145848841530921976E-03
    0.66304740846892052178E-03
    0.69333105827479139804E-03
    0.96864467148839772381E+00
    0.43801824735582264858E-01
    0.15831202333737250565E-03
    0.27343101746656354156E-05
   -0.21642365598822277162E-05
    0.12227833615437024657E-05
    0.78316485427550866158E-03
    0.93511184016720413914E-01
    0.93384683855617489634E+00
    0.97796268572595734803E+00
    0.94051873386723150450E+00
    0.98373002381353291668E+00
    0.64095921838830935413E-01
    0.27002182988085281570E-02
   -0.25488701436700277002E-05
   -0.42558699957406107619E-05
    0.51439401176006138477E-05
    0.57865561737965171166E-06
   -0.49650504166167177343E-05
    0.23512564233807743376E-06
   -0.14701963401318146129E-05
   -0.36529397894113348902E-05
    0.58013867699327474099E-05
    0.58389127134663788480E-05
    0.13016444505271539689E-04
   -0.37488466542380855502E-06
    0.59642031787899551783E-04
    0.53169428532672338445E-04
    0.98995595705940397924E+00
    0.98993943167094655688E+00
    0.98992153152573525432E+00
    0.98988682650919990191E+00
    0.98988743958395775113E+00
    0.98982308789551920469E+00
    0.98986372680202150409E+00
    0.98991023312658532607E+00
    0.98992803842603316333E+00
    0.98993962481521569075E+00
    0.98994456677473197104E+00
    0.98995592465312631791E+00
    0.98992999914294266262E+00
    0.98991681521935603882E+00
    0.98979445842032776071E+00
    0.98958330920146642118E+00
    0.98929261251731281934E+00
    0.98873611317335352577E+00
    0.98882442427549277486E+00
    0.98767443858132297763E+00
    0.98854912429382257866E+00
    0.98929322334552716178E+00
    0.98961161834303801310E+00
    0.98975684355546300619E+00
    0.98973579788500498644E+00
    0.98984514640382625927E+00
    0.98953986868233934082E+00
    0.98937618887182543492E+00
    0.98997003093307212040E+00
    0.98996142984743473736E+00
    0.98995107094868939335E+00
    0.98993395366818615067E+00
    0.98993765804803590669E+00
    0.98991002056980248458E+00
    0.98992877952348790060E+00
    0.98995070605745250081E+00
    0.98996007714866118832E+00
    0.98996643323088751032E+00
    0.98996711800696113315E+00
    0.98997115340712626974E+00
    0.98995819850586896926E+00
    0.98995197629075781798E+00
    0.98987097045262073536E+00
    0.98976367939209242142E+00
    0.98958437125702292114E+00
    0.98934037194190116438E+00
    0.98944584914269340103E+00
    0.98903855491686054613E+00
    0.98937748548436144080E+00
    0.98967697866443804511E+00
    0.98981633542567715178E+00
    0.98987946418048167185E+00
    0.98986342994340725809E+00
    0.98991038500694417124E+00
    0.98976468957340946186E+00
    0.98969550007039053252E+00
    0.98042869781379249350E+00
    0.17819340089164352470E-01
    0.27874957533176383535E-04
    0.27277622340762693540E-05
   -0.26755078558425414046E-05
    0.10172958604249452074E-05
    0.77362697224343413981E-04
    0.29991302455284692824E-01
    0.97239734826911350396E+00
    0.98615292427868750380E+00
    0.97304539747841045649E+00
    0.98786953586377745928E+00
    0.22273025003693904672E-01
    0.31458136453611166682E-03
   -0.25296580148510254938E-05
   -0.42464142155514092525E-05
    0.52321103395991561431E-05
    0.30479016031700995287E-05
   -0.58030107429186965592E-05
   -0.10220737238956660835E-06
   -0.21085058860427351195E-05
   -0.35922012333347612031E-05
    0.37183641396618972579E-05
    0.53798711960226556521E-05
    0.12881043920568483699E-04
   -0.41373975246292838535E-06