# vtk DataFile Version 3.0
LAPLACIEN  2D
ASCII
DATASET UNSTRUCTURED_GRID
 POINTS         481  float
   6.2500000000000000E-002  0.87500000000000000        0.0000000000000000     
  0.12500000000000000       0.87500000000000000        0.0000000000000000     
  0.12500000000000000       0.93750000000000000        0.0000000000000000     
   3.7499999999999999E-002  0.91249999999999998        0.0000000000000000     
   8.1250000000000003E-002  0.91874999999999996        0.0000000000000000     
   8.7499999999999994E-002  0.96250000000000002        0.0000000000000000     
   4.3749999999999997E-002  0.95625000000000004        0.0000000000000000     
  0.18750000000000000       0.87500000000000000        0.0000000000000000     
  0.25000000000000000       0.87500000000000000        0.0000000000000000     
  0.25000000000000000       0.93750000000000000        0.0000000000000000     
  0.16250000000000001       0.91249999999999998        0.0000000000000000     
  0.20624999999999999       0.91874999999999996        0.0000000000000000     
  0.21249999999999999       0.96250000000000002        0.0000000000000000     
  0.16875000000000001       0.95625000000000004        0.0000000000000000     
   6.2500000000000000E-002  0.75000000000000000        0.0000000000000000     
  0.12500000000000000       0.75000000000000000        0.0000000000000000     
  0.12500000000000000       0.81250000000000000        0.0000000000000000     
   3.7499999999999999E-002  0.78749999999999998        0.0000000000000000     
   8.1250000000000003E-002  0.79374999999999996        0.0000000000000000     
   8.7499999999999994E-002  0.83750000000000002        0.0000000000000000     
   4.3749999999999997E-002  0.83125000000000004        0.0000000000000000     
  0.18750000000000000       0.75000000000000000        0.0000000000000000     
  0.25000000000000000       0.75000000000000000        0.0000000000000000     
  0.25000000000000000       0.81250000000000000        0.0000000000000000     
  0.16250000000000001       0.78749999999999998        0.0000000000000000     
  0.20624999999999999       0.79374999999999996        0.0000000000000000     
  0.21249999999999999       0.83750000000000002        0.0000000000000000     
  0.16875000000000001       0.83125000000000004        0.0000000000000000     
  0.31250000000000000       0.87500000000000000        0.0000000000000000     
  0.37500000000000000       0.87500000000000000        0.0000000000000000     
  0.37500000000000000       0.93750000000000000        0.0000000000000000     
  0.28749999999999998       0.91249999999999998        0.0000000000000000     
  0.33124999999999999       0.91874999999999996        0.0000000000000000     
  0.33750000000000002       0.96250000000000002        0.0000000000000000     
  0.29375000000000001       0.95625000000000004        0.0000000000000000     
  0.43750000000000000       0.87500000000000000        0.0000000000000000     
  0.50000000000000000       0.87500000000000000        0.0000000000000000     
  0.50000000000000000       0.93750000000000000        0.0000000000000000     
  0.41249999999999998       0.91249999999999998        0.0000000000000000     
  0.45624999999999999       0.91874999999999996        0.0000000000000000     
  0.46250000000000002       0.96250000000000002        0.0000000000000000     
  0.41875000000000001       0.95625000000000004        0.0000000000000000     
  0.31250000000000000       0.75000000000000000        0.0000000000000000     
  0.37500000000000000       0.75000000000000000        0.0000000000000000     
  0.37500000000000000       0.81250000000000000        0.0000000000000000     
  0.28749999999999998       0.78749999999999998        0.0000000000000000     
  0.33124999999999999       0.79374999999999996        0.0000000000000000     
  0.33750000000000002       0.83750000000000002        0.0000000000000000     
  0.29375000000000001       0.83125000000000004        0.0000000000000000     
  0.43750000000000000       0.75000000000000000        0.0000000000000000     
  0.50000000000000000       0.75000000000000000        0.0000000000000000     
  0.50000000000000000       0.81250000000000000        0.0000000000000000     
  0.41249999999999998       0.78749999999999998        0.0000000000000000     
  0.45624999999999999       0.79374999999999996        0.0000000000000000     
  0.46250000000000002       0.83750000000000002        0.0000000000000000     
  0.41875000000000001       0.83125000000000004        0.0000000000000000     
   6.2500000000000000E-002  0.62500000000000000        0.0000000000000000     
  0.12500000000000000       0.62500000000000000        0.0000000000000000     
  0.12500000000000000       0.68750000000000000        0.0000000000000000     
   3.7499999999999999E-002  0.66249999999999998        0.0000000000000000     
   8.1250000000000003E-002  0.66874999999999996        0.0000000000000000     
   8.7499999999999994E-002  0.71250000000000002        0.0000000000000000     
   4.3749999999999997E-002  0.70625000000000004        0.0000000000000000     
  0.18750000000000000       0.62500000000000000        0.0000000000000000     
  0.25000000000000000       0.62500000000000000        0.0000000000000000     
  0.25000000000000000       0.68750000000000000        0.0000000000000000     
  0.16250000000000001       0.66249999999999998        0.0000000000000000     
  0.20624999999999999       0.66874999999999996        0.0000000000000000     
  0.21249999999999999       0.71250000000000002        0.0000000000000000     
  0.16875000000000001       0.70625000000000004        0.0000000000000000     
   6.2500000000000000E-002  0.50000000000000000        0.0000000000000000     
  0.12500000000000000       0.50000000000000000        0.0000000000000000     
  0.12500000000000000       0.56250000000000000        0.0000000000000000     
   3.7499999999999999E-002  0.53749999999999998        0.0000000000000000     
   8.1250000000000003E-002  0.54374999999999996        0.0000000000000000     
   8.7499999999999994E-002  0.58750000000000002        0.0000000000000000     
   4.3749999999999997E-002  0.58125000000000004        0.0000000000000000     
  0.18750000000000000       0.50000000000000000        0.0000000000000000     
  0.25000000000000000       0.50000000000000000        0.0000000000000000     
  0.25000000000000000       0.56250000000000000        0.0000000000000000     
  0.16250000000000001       0.53749999999999998        0.0000000000000000     
  0.20624999999999999       0.54374999999999996        0.0000000000000000     
  0.21249999999999999       0.58750000000000002        0.0000000000000000     
  0.16875000000000001       0.58125000000000004        0.0000000000000000     
  0.31250000000000000       0.62500000000000000        0.0000000000000000     
  0.37500000000000000       0.62500000000000000        0.0000000000000000     
  0.37500000000000000       0.68750000000000000        0.0000000000000000     
  0.28749999999999998       0.66249999999999998        0.0000000000000000     
  0.33124999999999999       0.66874999999999996        0.0000000000000000     
  0.33750000000000002       0.71250000000000002        0.0000000000000000     
  0.29375000000000001       0.70625000000000004        0.0000000000000000     
  0.43750000000000000       0.62500000000000000        0.0000000000000000     
  0.50000000000000000       0.62500000000000000        0.0000000000000000     
  0.50000000000000000       0.68750000000000000        0.0000000000000000     
  0.41249999999999998       0.66249999999999998        0.0000000000000000     
  0.45624999999999999       0.66874999999999996        0.0000000000000000     
  0.46250000000000002       0.71250000000000002        0.0000000000000000     
  0.41875000000000001       0.70625000000000004        0.0000000000000000     
  0.31250000000000000       0.50000000000000000        0.0000000000000000     
  0.37500000000000000       0.50000000000000000        0.0000000000000000     
  0.37500000000000000       0.56250000000000000        0.0000000000000000     
  0.28749999999999998       0.53749999999999998        0.0000000000000000     
  0.33124999999999999       0.54374999999999996        0.0000000000000000     
  0.33750000000000002       0.58750000000000002        0.0000000000000000     
  0.29375000000000001       0.58125000000000004        0.0000000000000000     
  0.43750000000000000       0.50000000000000000        0.0000000000000000     
  0.50000000000000000       0.50000000000000000        0.0000000000000000     
  0.50000000000000000       0.56250000000000000        0.0000000000000000     
  0.41249999999999998       0.53749999999999998        0.0000000000000000     
  0.45624999999999999       0.54374999999999996        0.0000000000000000     
  0.46250000000000002       0.58750000000000002        0.0000000000000000     
  0.41875000000000001       0.58125000000000004        0.0000000000000000     
  0.56250000000000000       0.87500000000000000        0.0000000000000000     
  0.62500000000000000       0.87500000000000000        0.0000000000000000     
  0.62500000000000000       0.93750000000000000        0.0000000000000000     
  0.53749999999999998       0.91249999999999998        0.0000000000000000     
  0.58125000000000004       0.91874999999999996        0.0000000000000000     
  0.58750000000000002       0.96250000000000002        0.0000000000000000     
  0.54374999999999996       0.95625000000000004        0.0000000000000000     
  0.68750000000000000       0.87500000000000000        0.0000000000000000     
  0.75000000000000000       0.87500000000000000        0.0000000000000000     
  0.75000000000000000       0.93750000000000000        0.0000000000000000     
  0.66249999999999998       0.91249999999999998        0.0000000000000000     
  0.70625000000000004       0.91874999999999996        0.0000000000000000     
  0.71250000000000002       0.96250000000000002        0.0000000000000000     
[...]
 CELL_DATA         896
 SCALARS Endothelial_cells float
 LOOKUP_TABLE default
    0.98995775892848059119E+00
    0.98995085339776145439E+00
    0.98993089180540594363E+00
    0.98991830990847562433E+00
    0.98993811971816647599E+00
    0.98992789693760363523E+00
    0.98995057558696109012E+00
    0.98996052395394862344E+00
    0.98996868204558330362E+00
    0.98996981730370259278E+00
    0.98996597548225839791E+00
    0.98996555595173651998E+00
    0.98995554552852138563E+00
    0.98995303517672428306E+00
    0.98981288357193775163E+00
    0.98969886675283058608E+00
    0.98941928732013184611E+00
    0.98919717549788899191E+00
    0.98947407242375184921E+00
    0.98927938614175214838E+00
    0.98959838597602745036E+00
    0.98976106772394456534E+00
    0.98987428850783798495E+00
    0.98990468013343613229E+00
    0.98986458938466537205E+00
    0.98988948367019724550E+00
    0.98976326010543547174E+00
    0.98971954471877066073E+00
    0.98992509882014034783E+00
    0.98991207846051454400E+00
    0.98986869135842747713E+00
    0.98984125462797600825E+00
    0.98988967757271728587E+00
    0.98987587901359019860E+00
    0.98992287535663603393E+00
    0.98993763950497704052E+00
    0.98995405515281997832E+00
    0.98995433812797162254E+00
    0.98994299536009477958E+00
    0.98993910208439228615E+00
    0.98992621314099260577E+00
    0.98992227806854737882E+00
    0.98960228382852755136E+00
    0.98933425146236209091E+00
    0.98864334634346218156E+00
    0.98808525906449629073E+00
    0.98887207550863276406E+00
    0.98857020423148977972E+00
    0.98932944265958622232E+00
    0.98957082194690981769E+00
    0.98979254955243811676E+00
    0.98983395422691544674E+00
    0.98973340501124373869E+00
    0.98977873333965926683E+00
    0.98951495526470478747E+00
    0.98943586763847379828E+00
    0.98324883120190831320E+00
    0.96638445116609458102E-02
    0.48214332803845492872E-05
    0.11184714971111451354E-06
    0.10791333810022553424E-06
    0.11078284841253431887E-06
    0.61125059675007087774E-05
    0.10043518064151948921E-01
    0.98479083106947529203E+00
    0.98888727239689810933E+00
    0.98230736468543766726E+00
    0.98868077073683402478E+00
    0.10209470215428057341E-01
    0.34120383566131464793E-04
    0.11078100915881121054E-06
    0.10786240889568257673E-06
    0.11184586943883115592E-06
    0.11184588806334977790E-06
    0.10786213951618139294E-06
    0.11078117355945868067E-06
    0.10418278945436654133E-06
    0.10786272415545432475E-06
    0.10523640817557586244E-06
    0.11184592591109794046E-06
    0.10786056843780545301E-06
    0.11078265593304278963E-06
    0.11499735763049956747E-06
    0.11499738010290714055E-06
    0.97478972451324585879E+00
    0.21379065442338179154E-01
    0.25515032651539914512E-04
    0.11187857104246680185E-06
    0.10885044749398048822E-06
    0.11079636549450002715E-06
    0.19608329096434886659E-04
    0.17083090911273253465E-01
    0.98241193925789471741E+00
    0.98775700972314484094E+00
    0.97547748570126957546E+00
    0.98660395132251987871E+00
    0.20895366372683348011E-01
    0.14402161904260968968E-03
    0.11078100596239807641E-06
    0.10786241451896927448E-06
    0.11184587244860300210E-06
    0.11184549968822818303E-06
    0.10786220967573382853E-06
    0.11078457466401230058E-06
    0.11078126008239511141E-06
    0.10786212164130604046E-06
    0.11184603488684177394E-06
    0.11184591963742490863E-06
    0.10786052242700157942E-06
    0.11078262469749959638E-06
    0.11499737723218395829E-06
    0.11499738002946341509E-06
    0.98988435108537764506E+00
    0.98985268138172144425E+00
    0.98977416949153040893E+00
    0.98970647623943963644E+00
    0.98979265079106582004E+00
    0.98975215577613595563E+00
    0.98985331990917257983E+00
    0.98988651596958188161E+00
    0.98991874528326739835E+00
    0.98992000297545146292E+00
    0.98990401862272825451E+00
    0.98990321876450737548E+00
    0.98987357125283714776E+00
    0.98986261052896040713E+00
    0.98924045641685531827E+00
    0.98858527935661943964E+00
    0.98698103267502013125E+00
    0.98511991692191802628E+00
    0.98722810009223660455E+00
    0.98615197295207257522E+00
    0.98840571403375143689E+00
    0.98901898053931525112E+00
    0.98955801094215389835E+00
    0.98965838604735067996E+00
    0.98944614640309158649E+00
    0.98957532448150176130E+00
    0.98894534200649020228E+00
    0.98874321480666182982E+00
    0.98986209785396161998E+00
    0.98981251356682076192E+00
    0.98971362498212944736E+00
    0.98959820216493665779E+00
    0.98969611115391364908E+00
    0.98959324402808834797E+00
    0.98975734852641583661E+00
    0.98982723588768750655E+00
    0.98987912085030782539E+00
    0.98988623589608315534E+00
    0.98987045573922960440E+00
    0.98987863222019611964E+00
    0.98982771031778760129E+00
    0.98980556622016768742E+00
    0.98900033511993734603E+00
    0.98787942893023505952E+00
    0.98545080472983448416E+00
    0.98056614541102160576E+00
    0.98452853653769112352E+00
    0.98012801275236394183E+00
    0.98660350073754887745E+00
    0.98811667027025851251E+00
    0.98919274647421284730E+00
    0.98942313395888115135E+00
    0.98912368529590277699E+00
    0.98940711645214429737E+00
    0.98825748553594539025E+00
    0.98781630704968315104E+00
    0.94033858458507468825E+00
    0.71425548892635068454E-01
    0.29241976238047584068E-03
    0.11635992731153861634E-06
    0.19295310616359756611E-06
    0.11153003659284144849E-06
    0.13431105315107996811E-03
    0.42983317936127966863E-01
    0.97249920924697619284E+00
    0.98350395007299762362E+00
    0.94332903044632288037E+00
    0.97929806260835239318E+00
    0.64686041399798832607E-01
    0.13076525074444593586E-02
    0.11078176819207279189E-06
    0.10786212102463307351E-06
    0.11184771996505623823E-06
    0.11184504215611469710E-06
    0.10786000613798936611E-06
    0.11078416921293517473E-06
    0.11078125358558391541E-06
    0.10786267162456570146E-06
    0.11184608881853654474E-06
    0.11184587710516925014E-06
    0.10786060135847798582E-06
    0.11078138649833125604E-06
    0.11499734831025171671E-06
    0.11499738835312042426E-06
    0.88973535463211361751E+00
    0.17826721760890873458E+00
    0.15935178382448090921E-02
    0.24531745931708633021E-06
    0.68919434903745063322E-05
    0.15136900774702150000E-06
    0.98258083426066645041E-03
    0.11998938802626214761E+00
    0.94037432639848006488E+00
    0.97007224314512829899E+00
    0.81276880888170555117E+00
    0.96181912607937614101E+00
    0.21475391406397817406E+00
    0.11783460424074472528E-01
    0.11066090717972558906E-06
    0.10778805502338631474E-06
    0.11167118598094608080E-06
    0.11167002813692503557E-06
    0.10780740138337546901E-06
    0.11077382017073311454E-06
    0.11078296498379762180E-06
    0.10785931376398145650E-06
    0.11184478897178584426E-06
    0.11183833015304248659E-06
    0.10783184375840240605E-06
    0.11071768907756042072E-06
    0.11495930008770285703E-06
    0.11497204354884627686E-06
    0.11078121898334634443E-06
    0.10786189329505016183E-06
    0.11184601997677455596E-06
    0.11184590575329773419E-06
    0.10786056943378637794E-06
    0.11077915110249002779E-06
    0.10418770544306712717E-06
    0.10786202039697861017E-06
    0.10523388009286737148E-06
    0.11184588621387391782E-06
    0.10786212277560813390E-06
    0.11078182465796061101E-06
    0.11499740590350277507E-06
    0.11499732825488439588E-06
    0.81684186326843249504E-05
    0.11569729412885964084E-01
    0.98339110463480849944E+00
    0.98855684445116387415E+00
    0.98251604151638127771E+00
    0.98897663880867381359E+00
    0.98470196102859652854E+00
    0.86541425489104102653E-02
    0.38970712349159602249E-05
    0.11184674470417145058E-06
    0.10791482873205364628E-06
    0.11078378006115211664E-06
    0.34682909172415126006E-04
    0.96860887922737264749E-02
    0.11078118117159484543E-06
    0.10786187156095679259E-06
    0.11184598203784214519E-06
    0.11184591423667191116E-06
    0.10786054625562131821E-06
    0.11078264317891475478E-06
    0.11078096867143823376E-06
    0.10786242968013259370E-06
    0.11184590066366957325E-06
    0.11184569295774398052E-06
    0.10786221083780925881E-06
    0.11078385466897915168E-06
    0.11499742016372405274E-06
    0.11499736152405674991E-06
    0.43218689033606509902E-04
    0.25475385963587213189E-01
    0.97540712316187572206E+00
    0.98633655463379299455E+00
    0.97668796143312364144E+00
    0.98797556871955860558E+00
    0.98242327113815874906E+00
    0.15021948494711303418E-01
    0.12994974683963953830E-04
    0.11185461756344683769E-06
    0.10900417329847989865E-06
    0.11085279662254930556E-06
    0.15534306860970716925E-03
    0.18404917505405609529E-01
    0.98939913211421748329E+00
    0.98968829995394302923E+00
    0.98982208257811099550E+00
    0.98988275100619838032E+00
    0.98986768919098799824E+00
    0.98991241931895701534E+00
    0.98987510128490163730E+00
    0.98977273992825931526E+00
    0.98960150612447617124E+00
    0.98936827396251780797E+00
    0.98946803540175609637E+00
    0.98907627114161855708E+00
    0.98970702659925191558E+00
    0.98977357704557955564E+00
    0.98992976230720408637E+00
    0.98995152129540209263E+00
    0.98996045993170045385E+00
    0.98996630543037555938E+00
    0.98996700906200008063E+00
    0.98997089285065575925E+00
    0.98996982197702021455E+00
    0.98996178287771618987E+00
    0.98995177888367147379E+00
    0.98993512204221512096E+00
    0.98993897822925125407E+00
    0.98991196651328794420E+00
    0.98995303852758542718E+00
    0.98995896433741925602E+00
    0.98859355211999244695E+00
    0.98931410649303264115E+00
    0.98962218105371857479E+00
    0.98976272742804249916E+00
    0.98974284336674600571E+00
    0.98984890059995733758E+00
    0.98980073339895446871E+00
    0.98959648118891208046E+00
    0.98931604421227525847E+00
    0.98877899555092041428E+00
    0.98886217579284951817E+00
    0.98775165636508677203E+00
    0.98939513016063640460E+00
    0.98955364031420323112E+00
    0.98986591362933062932E+00
    0.98991166403974872878E+00
    0.98992880335587096763E+00
    0.98993978269374660606E+00
    0.98994476081366955533E+00
    0.98995591299485052872E+00
    0.98995651567778764068E+00
    0.98994035439788197195E+00
    0.98992258240974351224E+00
    0.98988901811148077847E+00
    0.98988966442322900985E+00
    0.98982676268209635051E+00
    0.98991838269877663326E+00
    0.98993105815523940727E+00
    0.11078356010397124282E-06
    0.10786173453951535063E-06
    0.11184595434823722744E-06
    0.11184599764167150009E-06
    0.10786054593483239162E-06
    0.11078270017326198277E-06
    0.11078094699043989396E-06
    0.10786240834464803252E-06
    0.11184590788531420549E-06
    0.11184504373203861988E-06
    0.10785991860983935131E-06
    0.11078426887227373564E-06
    0.11499737739682213606E-06
    0.11499736273953946040E-06
    0.45030073413655433145E-03
    0.81611271719260761182E-01
    0.94291848182017456992E+00
    0.97888908272633501362E+00
    0.94999235060707731826E+00
    0.98411601468138720783E+00
    0.97252788647793841914E+00
    0.38052393339553694518E-01
    0.89312273535528647435E-04
    0.11228464260140436523E-06
    0.22219876665541830688E-06
    0.11891186025288408988E-06
    0.15141955718074233232E-02
    0.54748312224208096899E-01
    0.11062129151921379792E-06
    0.10779183015571284146E-06
    0.11172102905513997639E-06
    0.11177455848247615213E-06
    0.10784508062197087636E-06
    0.11077822178829482090E-06
    0.11078114699704197074E-06
    0.10785896221116409052E-06
    0.11184484769220243907E-06
    0.11183551446131197736E-06
    0.10781291064354192911E-06
    0.11062451683243292243E-06
    0.11496086571738063771E-06
    0.11498465943157485469E-06
    0.23234225134924732688E-02
    0.19815242696969612157E+00
    0.88968292608993315707E+00
    0.96275846590788671797E+00
    0.83461790111998390707E+00
    0.97101549755107341433E+00
    0.94025064330041163707E+00
    0.10870119164432959225E+00
    0.67087353339240196875E-03
    0.13650774890324219219E-06
    0.70859134410800320625E-05
    0.32766044731245477493E-06
    0.11932195010381939707E-01
    0.18926926695974793935E+00
    0.98689452429703417025E+00
    0.98853583553089274805E+00
    0.98926792414315112278E+00
    0.98954109480536933674E+00
    0.98946515510318189257E+00
    0.98969095112602178954E+00
    0.98957512709718042920E+00
    0.98908555430024247546E+00
    0.98837717943863423464E+00
    0.98685936235317839316E+00
    0.98722191916522039623E+00
    0.98388062655579233695E+00
    0.98866224803709124025E+00
    0.98902019126691009809E+00
    0.98977069994230271188E+00
    0.98985101458389546103E+00
    0.98988768975411245421E+00
    0.98990282711639498991E+00
    0.98990610907987908185E+00
    0.98992185371709062736E+00
    0.98992202643420446062E+00
    0.98989020574014441323E+00
    0.98985148952414014900E+00
    0.98978000951602562729E+00
    0.98979276954277373157E+00
    0.98967398264242045780E+00
    0.98985816675724869196E+00
    0.98988024892669335131E+00
    0.98540988900445947163E+00
    0.98776367802237596827E+00
    0.98900869486854436907E+00
    0.98935094369109777279E+00
    0.98913704161027282691E+00
    0.98947715635362298858E+00
    0.98920989487466970402E+00
    0.98824788473108782227E+00
    0.98657139024241591319E+00
    0.98265050248564778101E+00
    0.98453103715604650681E+00
    0.97690890546546194084E+00
    0.98775054608202150774E+00
    0.98831286188412192928E+00
    0.98971188242732810458E+00
    0.98980860137340842542E+00
    0.98986292373474549233E+00
    0.98987704908013118832E+00
    0.98987173050804755370E+00
    0.98988795460465184295E+00
    0.98988153967599656902E+00
    0.98983247844875110744E+00
    0.98975644347098845621E+00
    0.98964139474740264735E+00
    0.98969589832605664448E+00
    0.98954647216469715509E+00
    0.98980322562125999664E+00
    0.98983127065092701979E+00
    0.98988117223895932817E+00
    0.98983232623614847423E+00
    0.98975675514264327415E+00
    0.98964158672049573617E+00
    0.98969591378669929949E+00
    0.98954665435801969497E+00
    0.98971219677666510961E+00
    0.98980847872864186066E+00
    0.98986259996991765586E+00
    0.98987702202696403742E+00
    0.98987164531004889767E+00
    0.98988791988456736881E+00
    0.98983121725709866112E+00
    0.98980320123542042676E+00
    0.98920955620968598065E+00
    0.98824774756264954778E+00
    0.98657184679233034252E+00
    0.98265074242940730898E+00
    0.98453108454008142481E+00
    0.97690916206594358151E+00
    0.98541040538133362059E+00
    0.98776357864602271075E+00
    0.98900837884294201530E+00
    0.98935094563473668927E+00
    0.98913698263835236890E+00
    0.98947717643365118434E+00
    0.98831282019480137802E+00
    0.98775053590521810776E+00
    0.98992164976802110576E+00
    0.98989005575353150590E+00
    0.98985179736475803480E+00
    0.98978020142816947047E+00
    0.98979278681703808385E+00
    0.98967416403434227412E+00
    0.98977102456353205362E+00
    0.98985089385969471376E+00
    0.98988736663676291094E+00
    0.98990280380614337208E+00
    0.98990602970474816935E+00
    0.98992180826159237306E+00
    0.98988019760183887374E+00
    0.98985814456492582369E+00
    0.98957480458025981473E+00
    0.98908541855684473099E+00
    0.98837755816121142249E+00
    0.98685958452665722973E+00
    0.98722195660625211566E+00
    0.98388087124955880824E+00
    0.98689499518355983110E+00
    0.98853573179328768639E+00
    0.98926761737158286358E+00
    0.98954109955948044153E+00
    0.98946510035296231234E+00
    0.98969097376823211842E+00
    0.98902015379721819333E+00
    0.98866223947604370270E+00
    0.94024898912541499119E+00
    0.10870160726016768471E+00
    0.67087899413176602624E-03
    0.13650811933794775151E-06
    0.70859279135291763460E-05
    0.32766458979256600987E-06
    0.23234443517193884531E-02
    0.19815338658981868081E+00
    0.88968012078187241887E+00
    0.96275818672169388712E+00
    0.83461811713277422875E+00
    0.97101534819955503952E+00
    0.18926867951026471459E+00
    0.11932200523543093004E-01
    0.11078116755675547237E-06
    0.10785896096404745231E-06
    0.11184475089281288074E-06
    0.11183552198040740945E-06
    0.10781294139640628257E-06
    0.11062453123787371081E-06
    0.11062126994678963685E-06
    0.10779182957608594572E-06
    0.11172103054542264780E-06
    0.11177455454685530030E-06
    0.10784506377758406817E-06
    0.11077820416373942279E-06
    0.11498465281198794029E-06
    0.11496087774262194543E-06
    0.97252718093232670693E+00
    0.38052345014311719784E-01
    0.89312251648885474160E-04
    0.11228471333687704068E-06
    0.22219894971891724559E-06
    0.11891202391382908241E-06
    0.45030320753727213221E-03
    0.81611419694645470635E-01
    0.94291694142030357817E+00
    0.97888898812564950624E+00
    0.94999234430396850559E+00
    0.98411599930924975599E+00
    0.54748085455403480704E-01
    0.15141953335998123518E-02
    0.11078097560418318139E-06
    0.10786241151472535060E-06
    0.11184590460801651880E-06
    0.11184504273129141408E-06
    0.10785993914775809964E-06
    0.11078427555980821694E-06
    0.11078351249986922576E-06
    0.10786173628459319558E-06
    0.11184590763558178758E-06
    0.11184602335814616179E-06
    0.10786052769656976685E-06
    0.11078269678796271163E-06
    0.11499737026699112398E-06
    0.11499738655226285246E-06
    0.98995614039935919681E+00
    0.98994020832155105172E+00
    0.98992289368502817126E+00
    0.98988921387324912970E+00
    0.98988968446491842901E+00
    0.98982694348048472222E+00
    0.98986623454551259105E+00
    0.98991154410380477469E+00
    0.98992848210943051868E+00
    0.98993976374357040005E+00
    0.98994468864891127513E+00
    0.98995586533210122582E+00
    0.98993100889235696727E+00
    0.98991836203511573977E+00
    0.98980042906635445910E+00
    0.98959635121111833023E+00
    0.98931639587840891625E+00
    0.98877921568557980425E+00
    0.98886221242288585564E+00
    0.98775187704193301297E+00
    0.98859394500423547480E+00
    0.98931400048540996117E+00
    0.98962188909990589369E+00
    0.98976273619839771900E+00
    0.98974279470593651276E+00
    0.98984892953178527097E+00
    0.98955360723535801259E+00
    0.98939512353760972196E+00
    0.98996982819404655274E+00
    0.98996177064015955516E+00
    0.98995177959129487810E+00
    0.98993539072065273032E+00
    0.98993905781404767374E+00
    0.98991216880433685610E+00
    0.98993008652990777119E+00
    0.98995141397683150686E+00
    0.98996014778371854703E+00
    0.98996629447231376808E+00
    0.98996696565330499773E+00
    0.98997089253861791924E+00
    0.98995893162905568285E+00
    0.98995302379372307477E+00
    0.98987522316813281176E+00
    0.98977276588627627341E+00
    0.98960153243739412687E+00
    0.98936858807876604249E+00
    0.98946813527621235718E+00
    0.98907650917546685587E+00
    0.98939949744007515964E+00
    0.98968821236125670282E+00
    0.98982181327824847461E+00
    0.98988277040064098777E+00
    0.98986779605862518228E+00
    0.98991286243377663023E+00
    0.98977358898401412990E+00
    0.98970703611676913436E+00
    0.98242286149147173280E+00
    0.15021748661582975601E-01
    0.12994693077145779081E-04
    0.11185463282624959749E-06
    0.10900409558524677575E-06
    0.11085283561369091178E-06
    0.43218213735932102374E-04
    0.25475199772913431628E-01
    0.97540648502308646695E+00
    0.98633655060115532631E+00
    0.97668797970809106967E+00
    0.98797560145013452182E+00
    0.18404721192245811906E-01
    0.15534090229557480410E-03
    0.11078096868908698578E-06
    0.10786242703612905590E-06
    0.11184592012974727146E-06
    0.11184570513296230508E-06
    0.10786221388619593416E-06
    0.11078384421498873891E-06
    0.11078120105461747097E-06
    0.10786187078668450490E-06
    0.11184601228297893585E-06
    0.11184590821007256670E-06
    0.10786053001212843106E-06
    0.11078263003308828458E-06