# vtk DataFile Version 3.0
LAPLACIEN  2D
ASCII
DATASET UNSTRUCTURED_GRID
 POINTS         481  float
   6.2500000000000000E-002  0.87500000000000000        0.0000000000000000     
  0.12500000000000000       0.87500000000000000        0.0000000000000000     
  0.12500000000000000       0.93750000000000000        0.0000000000000000     
   3.7499999999999999E-002  0.91249999999999998        0.0000000000000000     
   8.1250000000000003E-002  0.91874999999999996        0.0000000000000000     
   8.7499999999999994E-002  0.96250000000000002        0.0000000000000000     
   4.3749999999999997E-002  0.95625000000000004        0.0000000000000000     
  0.18750000000000000       0.87500000000000000        0.0000000000000000     
  0.25000000000000000       0.87500000000000000        0.0000000000000000     
  0.25000000000000000       0.93750000000000000        0.0000000000000000     
  0.16250000000000001       0.91249999999999998        0.0000000000000000     
  0.20624999999999999       0.91874999999999996        0.0000000000000000     
  0.21249999999999999       0.96250000000000002        0.0000000000000000     
  0.16875000000000001       0.95625000000000004        0.0000000000000000     
   6.2500000000000000E-002  0.75000000000000000        0.0000000000000000     
  0.12500000000000000       0.75000000000000000        0.0000000000000000     
  0.12500000000000000       0.81250000000000000        0.0000000000000000     
   3.7499999999999999E-002  0.78749999999999998        0.0000000000000000     
   8.1250000000000003E-002  0.79374999999999996        0.0000000000000000     
   8.7499999999999994E-002  0.83750000000000002        0.0000000000000000     
   4.3749999999999997E-002  0.83125000000000004        0.0000000000000000     
  0.18750000000000000       0.75000000000000000        0.0000000000000000     
  0.25000000000000000       0.75000000000000000        0.0000000000000000     
  0.25000000000000000       0.81250000000000000        0.0000000000000000     
  0.16250000000000001       0.78749999999999998        0.0000000000000000     
  0.20624999999999999       0.79374999999999996        0.0000000000000000     
  0.21249999999999999       0.83750000000000002        0.0000000000000000     
  0.16875000000000001       0.83125000000000004        0.0000000000000000     
  0.31250000000000000       0.87500000000000000        0.0000000000000000     
  0.37500000000000000       0.87500000000000000        0.0000000000000000     
  0.37500000000000000       0.93750000000000000        0.0000000000000000     
  0.28749999999999998       0.91249999999999998        0.0000000000000000     
  0.33124999999999999       0.91874999999999996        0.0000000000000000     
  0.33750000000000002       0.96250000000000002        0.0000000000000000     
  0.29375000000000001       0.95625000000000004        0.0000000000000000     
  0.43750000000000000       0.87500000000000000        0.0000000000000000     
  0.50000000000000000       0.87500000000000000        0.0000000000000000     
  0.50000000000000000       0.93750000000000000        0.0000000000000000     
  0.41249999999999998       0.91249999999999998        0.0000000000000000     
  0.45624999999999999       0.91874999999999996        0.0000000000000000     
  0.46250000000000002       0.96250000000000002        0.0000000000000000     
  0.41875000000000001       0.95625000000000004        0.0000000000000000     
  0.31250000000000000       0.75000000000000000        0.0000000000000000     
  0.37500000000000000       0.75000000000000000        0.0000000000000000     
  0.37500000000000000       0.81250000000000000        0.0000000000000000     
  0.28749999999999998       0.78749999999999998        0.0000000000000000     
  0.33124999999999999       0.79374999999999996        0.0000000000000000     
  0.33750000000000002       0.83750000000000002        0.0000000000000000     
  0.29375000000000001       0.83125000000000004        0.0000000000000000     
  0.43750000000000000       0.75000000000000000        0.0000000000000000     
  0.50000000000000000       0.75000000000000000        0.0000000000000000     
  0.50000000000000000       0.81250000000000000        0.0000000000000000     
  0.41249999999999998       0.78749999999999998        0.0000000000000000     
  0.45624999999999999       0.79374999999999996        0.0000000000000000     
  0.46250000000000002       0.83750000000000002        0.0000000000000000     
  0.41875000000000001       0.83125000000000004        0.0000000000000000     
   6.2500000000000000E-002  0.62500000000000000        0.0000000000000000     
  0.12500000000000000       0.62500000000000000        0.0000000000000000     
  0.12500000000000000       0.68750000000000000        0.0000000000000000     
   3.7499999999999999E-002  0.66249999999999998        0.0000000000000000     
   8.1250000000000003E-002  0.66874999999999996        0.0000000000000000     
   8.7499999999999994E-002  0.71250000000000002        0.0000000000000000     
   4.3749999999999997E-002  0.70625000000000004        0.0000000000000000     
  0.18750000000000000       0.62500000000000000        0.0000000000000000     
  0.25000000000000000       0.62500000000000000        0.0000000000000000     
  0.25000000000000000       0.68750000000000000        0.0000000000000000     
  0.16250000000000001       0.66249999999999998        0.0000000000000000     
  0.20624999999999999       0.66874999999999996        0.0000000000000000     
  0.21249999999999999       0.71250000000000002        0.0000000000000000     
  0.16875000000000001       0.70625000000000004        0.0000000000000000     
   6.2500000000000000E-002  0.50000000000000000        0.0000000000000000     
  0.12500000000000000       0.50000000000000000        0.0000000000000000     
  0.12500000000000000       0.56250000000000000        0.0000000000000000     
   3.7499999999999999E-002  0.53749999999999998        0.0000000000000000     
   8.1250000000000003E-002  0.54374999999999996        0.0000000000000000     
   8.7499999999999994E-002  0.58750000000000002        0.0000000000000000     
   4.3749999999999997E-002  0.58125000000000004        0.0000000000000000     
  0.18750000000000000       0.50000000000000000        0.0000000000000000     
  0.25000000000000000       0.50000000000000000        0.0000000000000000     
  0.25000000000000000       0.56250000000000000        0.0000000000000000     
  0.16250000000000001       0.53749999999999998        0.0000000000000000     
  0.20624999999999999       0.54374999999999996        0.0000000000000000     
  0.21249999999999999       0.58750000000000002        0.0000000000000000     
  0.16875000000000001       0.58125000000000004        0.0000000000000000     
  0.31250000000000000       0.62500000000000000        0.0000000000000000     
  0.37500000000000000       0.62500000000000000        0.0000000000000000     
  0.37500000000000000       0.68750000000000000        0.0000000000000000     
  0.28749999999999998       0.66249999999999998        0.0000000000000000     
  0.33124999999999999       0.66874999999999996        0.0000000000000000     
  0.33750000000000002       0.71250000000000002        0.0000000000000000     
  0.29375000000000001       0.70625000000000004        0.0000000000000000     
  0.43750000000000000       0.62500000000000000        0.0000000000000000     
  0.50000000000000000       0.62500000000000000        0.0000000000000000     
  0.50000000000000000       0.68750000000000000        0.0000000000000000     
  0.41249999999999998       0.66249999999999998        0.0000000000000000     
  0.45624999999999999       0.66874999999999996        0.0000000000000000     
  0.46250000000000002       0.71250000000000002        0.0000000000000000     
  0.41875000000000001       0.70625000000000004        0.0000000000000000     
  0.31250000000000000       0.50000000000000000        0.0000000000000000     
  0.37500000000000000       0.50000000000000000        0.0000000000000000     
  0.37500000000000000       0.56250000000000000        0.0000000000000000     
  0.28749999999999998       0.53749999999999998        0.0000000000000000     
  0.33124999999999999       0.54374999999999996        0.0000000000000000     
  0.33750000000000002       0.58750000000000002        0.0000000000000000     
  0.29375000000000001       0.58125000000000004        0.0000000000000000     
  0.43750000000000000       0.50000000000000000        0.0000000000000000     
  0.50000000000000000       0.50000000000000000        0.0000000000000000     
  0.50000000000000000       0.56250000000000000        0.0000000000000000     
  0.41249999999999998       0.53749999999999998        0.0000000000000000     
  0.45624999999999999       0.54374999999999996        0.0000000000000000     
  0.46250000000000002       0.58750000000000002        0.0000000000000000     
  0.41875000000000001       0.58125000000000004        0.0000000000000000     
  0.56250000000000000       0.87500000000000000        0.0000000000000000     
  0.62500000000000000       0.87500000000000000        0.0000000000000000     
  0.62500000000000000       0.93750000000000000        0.0000000000000000     
  0.53749999999999998       0.91249999999999998        0.0000000000000000     
  0.58125000000000004       0.91874999999999996        0.0000000000000000     
  0.58750000000000002       0.96250000000000002        0.0000000000000000     
  0.54374999999999996       0.95625000000000004        0.0000000000000000     
  0.68750000000000000       0.87500000000000000        0.0000000000000000     
  0.75000000000000000       0.87500000000000000        0.0000000000000000     
  0.75000000000000000       0.93750000000000000        0.0000000000000000     
  0.66249999999999998       0.91249999999999998        0.0000000000000000     
  0.70625000000000004       0.91874999999999996        0.0000000000000000     
  0.71250000000000002       0.96250000000000002        0.0000000000000000     
[...]
 CELL_DATA         896
 SCALARS Endothelial_cells float
 LOOKUP_TABLE default
    0.98996080538367736690E+00
    0.98995544260422929650E+00
    0.98993853309473844870E+00
    0.98992883177263846228E+00
    0.98994586107060889013E+00
    0.98993830710054786515E+00
    0.98995628666353929770E+00
    0.98996411653485050230E+00
    0.98997059106365192793E+00
    0.98997142230076839997E+00
    0.98996808751474218990E+00
    0.98996739410963441319E+00
    0.98996017941795555473E+00
    0.98995830647887261833E+00
    0.98984079049990303378E+00
    0.98974958632343768006E+00
    0.98951886449393455791E+00
    0.98934437727321289380E+00
    0.98957481870197150364E+00
    0.98942649720652275924E+00
    0.98967807750283054435E+00
    0.98980599485048981201E+00
    0.98989581034213269817E+00
    0.98991982849857018678E+00
    0.98988655845159367885E+00
    0.98990516380357240767E+00
    0.98980553727467623926E+00
    0.98977133351732060618E+00
    0.98992963518051269034E+00
    0.98991894678867131674E+00
    0.98988067727098327797E+00
    0.98985774113418945053E+00
    0.98990097074669025634E+00
    0.98989057929693624605E+00
    0.98993113683836764238E+00
    0.98994299494637294501E+00
    0.98995720419519905864E+00
    0.98995673212262069729E+00
    0.98994622226564354950E+00
    0.98994202121106866787E+00
    0.98993251600180065530E+00
    0.98992954105888320004E+00
    0.98964902262072806938E+00
    0.98942050559024474765E+00
    0.98882320428655101630E+00
    0.98835767209092639796E+00
    0.98903903952998839522E+00
    0.98880254524816157957E+00
    0.98943843662654284987E+00
    0.98963562088099854552E+00
    0.98982215344855517536E+00
    0.98985529047986675621E+00
    0.98976731344856139216E+00
    0.98980378408754876585E+00
    0.98958146254761558680E+00
    0.98951580076695189181E+00
    0.98583832455939846007E+00
    0.59729835921234087498E-02
    0.10458818785844405860E-05
    0.89334254420680507389E-07
    0.86722574458631605776E-07
    0.88636300943450922775E-07
    0.13329813221826211440E-05
    0.62285079671038712582E-02
    0.98697049398615732674E+00
    0.98913033076652567832E+00
    0.98578664781313418697E+00
    0.98894377334295302528E+00
    0.62586078418006337726E-02
    0.70847426619538435589E-05
    0.88635817222236112083E-07
    0.86721218853884725268E-07
    0.89334210456300439022E-07
    0.89334222574904735744E-07
    0.86721506910529298389E-07
    0.88635771994759851026E-07
    0.84309255318765486622E-07
    0.86721761829496103348E-07
    0.84997865590715382033E-07
    0.89334411231453770905E-07
    0.86719760975987825172E-07
    0.88635127518181216645E-07
    0.91400990711881166723E-07
    0.91401004077831581407E-07
    0.97982518679699903696E+00
    0.14464901567284381423E-01
    0.59539502802250000461E-05
    0.89335200005617413113E-07
    0.86749038266018357082E-07
    0.88636533546055037590E-07
    0.48201020391377827275E-05
    0.11684025102869711674E-01
    0.98535736101582727109E+00
    0.98815445248613542617E+00
    0.98153089040031704648E+00
    0.98716089484170321811E+00
    0.14013506773596393767E-01
    0.34120653487792049132E-04
    0.88635801459258398467E-07
    0.86721209695643506192E-07
    0.89334237881403026845E-07
    0.89335846383518556043E-07
    0.86721513876872456387E-07
    0.88636963959987768276E-07
    0.88635802065712879052E-07
    0.86721418677346618907E-07
    0.89334307800388960113E-07
    0.89334311064671826748E-07
    0.86719755033224797504E-07
    0.88635138845527700456E-07
    0.91401008890285574535E-07
    0.91401001072117089215E-07
    0.98989102339481360726E+00
    0.98986325424609111767E+00
    0.98979327058648225446E+00
    0.98973387628346287670E+00
    0.98981111848397906883E+00
    0.98977672452031673078E+00
    0.98986650637313988721E+00
    0.98989492287598479514E+00
    0.98992351964381020135E+00
    0.98992385527598503181E+00
    0.98990912991933233123E+00
    0.98990780815962331474E+00
    0.98988293832344187440E+00
    0.98987356650318714113E+00
    0.98932258263125871789E+00
    0.98875199661430535070E+00
    0.98736116825013309217E+00
    0.98579288560136479891E+00
    0.98758981050175942418E+00
    0.98669134069834540934E+00
    0.98861004991298850886E+00
    0.98913859449265650881E+00
    0.98960836447526623338E+00
    0.98969460225962047062E+00
    0.98950606762378889858E+00
    0.98961823834309525783E+00
    0.98906845732901182977E+00
    0.98889163710983907229E+00
    0.98987005579386311283E+00
    0.98982603469320273870E+00
    0.98973806095111727110E+00
    0.98963621949616997764E+00
    0.98972301387106897952E+00
    0.98963243794062105696E+00
    0.98977797460963734544E+00
    0.98983966799903078115E+00
    0.98988603878225589483E+00
    0.98989180480887162261E+00
    0.98987741969883302762E+00
    0.98988449830428903997E+00
    0.98984019222980879071E+00
    0.98982067494112513373E+00
    0.98911215383577899551E+00
    0.98814795060744076149E+00
    0.98609081577537793795E+00
    0.98223730953866095206E+00
    0.98534631586006105053E+00
    0.98180708515843240214E+00
    0.98704388338456283680E+00
    0.98834721993580032517E+00
    0.98928005449389289083E+00
    0.98948247027944380427E+00
    0.98922011342356541697E+00
    0.98946827902935208243E+00
    0.98846914636328886417E+00
    0.98808544793192665256E+00
    0.95638787554088866560E+00
    0.51135122500642803123E-01
    0.74005551256997874517E-04
    0.89478210058696190024E-07
    0.89475741807635909757E-07
    0.88665310232364622487E-07
    0.37071412201348884598E-04
    0.31786393921526615025E-01
    0.97850019214690786562E+00
    0.98458785153990735495E+00
    0.96130086861003172238E+00
    0.98131425587886322859E+00
    0.45170175109383772782E-01
    0.32950550681786649381E-03
    0.88636494617679459507E-07
    0.86721171722512629863E-07
    0.89335908507173190155E-07
    0.89335515816733891463E-07
    0.86719250884037173829E-07
    0.88637972548277710400E-07
    0.88635810537382913583E-07
    0.86721926980065450642E-07
    0.89334334167447738096E-07
    0.89334297118940859256E-07
    0.86719804754980823164E-07
    0.88635861591712572681E-07
    0.91400982120574147314E-07
    0.91401007136056491500E-07
    0.92446086366885027452E+00
    0.12340394469687422652E+00
    0.40717236868477002087E-03
    0.93751032358230946471E-07
    0.28572132219653686753E-06
    0.90269561104181289851E-07
    0.27713799585957942439E-03
    0.89026498910715040624E-01
    0.95649315266952139591E+00
    0.97496867701054623634E+00
    0.87911296214741607713E+00
    0.96986943352745536018E+00
    0.14721295470137438222E+00
    0.28729517003781802550E-02
    0.88537980215747499301E-07
    0.86656444326684700528E-07
    0.89159773493532054344E-07
    0.89160490130649130867E-07
    0.86668095200893086537E-07
    0.88627619675904590191E-07
    0.88637624190788574924E-07
    0.86718831888933502813E-07
    0.89333647434435073476E-07
    0.89330425295144196457E-07
    0.86699834839583949746E-07
    0.88591101575820632177E-07
    0.91369242500388015858E-07
    0.91376325419656357360E-07
    0.88635796748883535421E-07
    0.86721293650280934942E-07
    0.89334327665103392017E-07
    0.89334320221832020025E-07
    0.86719768203100849183E-07
    0.88634425727708230925E-07
    0.84310075275149401052E-07
    0.86721433094345290964E-07
    0.84996157652264698442E-07
    0.89334217822420159120E-07
    0.86721512223654064016E-07
    0.88635734425273645099E-07
    0.91400999336741715507E-07
    0.91400991732156293607E-07
    0.17731355655678768944E-05
    0.72608480411094382043E-02
    0.98595496278954530833E+00
    0.98884559999620524895E+00
    0.98589888161366734387E+00
    0.98920134851483321192E+00
    0.98691905411732938624E+00
    0.53488585883931559842E-02
    0.86994867661359648309E-06
    0.89334298557944791321E-07
    0.86722630128820485896E-07
    0.88636016319926242257E-07
    0.71251533494790869754E-05
    0.58612347206466811067E-02
    0.88635705966872415016E-07
    0.86721094076426799780E-07
    0.89334292409643805931E-07
    0.89334306385666087750E-07
    0.86719755871235705669E-07
    0.88635137131398705626E-07
    0.88635849151920463026E-07
    0.86721241770849229204E-07
    0.89334250887430467811E-07
    0.89335067207172549741E-07
    0.86721535796680433065E-07
    0.88637660488922359500E-07
    0.91401003886414959936E-07
    0.91401009315748675459E-07
    0.10375136634342227250E-04
    0.17512323458420672728E-01
    0.98031240251244999850E+00
    0.98693293589914476982E+00
    0.98221622777666628412E+00
    0.98833691276095159139E+00
    0.98540144085932690476E+00
    0.10277797857944751675E-01
    0.32238647582900105472E-05
    0.89334616114446905220E-07
    0.86752128775627417290E-07
    0.88638181121599584176E-07
    0.36189376696526241728E-04
    0.12146152289135901323E-01
    0.98950179550114891747E+00
    0.98974142401682696502E+00
    0.98984919874021948250E+00
    0.98990004026045619323E+00
    0.98988954807014295501E+00
    0.98992626166727726300E+00
    0.98989681318878008920E+00
    0.98981581501418713920E+00
    0.98968101677277420247E+00
    0.98949648820767643898E+00
    0.98957006661524271607E+00
    0.98924927718113775388E+00
    0.98976060231313889304E+00
    0.98981504206476433883E+00
    0.98993770725838903246E+00
    0.98995619983066218683E+00
    0.98996324565947069196E+00
    0.98996821979074212106E+00
    0.98996909356520779166E+00
    0.98997244368963044359E+00
    0.98997165863375835571E+00
    0.98996548313680643449E+00
    0.98995747395473743246E+00
    0.98994430908369013267E+00
    0.98994678688476300810E+00
    0.98992394108526504670E+00
    0.98995861205472923672E+00
    0.98996352694690725738E+00
    0.98878014775437517159E+00
    0.98940402434284757671E+00
    0.98966714289847090846E+00
    0.98979023740725402547E+00
    0.98977600131406051620E+00
    0.98986818180424940294E+00
    0.98982981817131909796E+00
    0.98965764024076186001E+00
    0.98942682372401669078E+00
    0.98897482177149753646E+00
    0.98903035473700184887E+00
    0.98808329055734955837E+00
    0.98947979996472790187E+00
    0.98961655935622361291E+00
    0.98987830655465713914E+00
    0.98991867662964883046E+00
    0.98993301745499406863E+00
    0.98994279559074327413E+00
    0.98994790350085559716E+00
    0.98995817400650976126E+00
    0.98995952408480136775E+00
    0.98994546075585421185E+00
    0.98993099193673506075E+00
    0.98990202321130560392E+00
    0.98990105610753542642E+00
    0.98984553509709505281E+00
    0.98992601687255721288E+00
    0.98993698468252411260E+00
    0.88638005700641057868E-07
    0.86720793784077424925E-07
    0.89334401922978486965E-07
    0.89334226031965869017E-07
    0.86719776311632030298E-07
    0.88635020108469641958E-07
    0.88635863656385279229E-07
    0.86721228042113134138E-07
    0.89334234538730318202E-07
    0.89335511344939000256E-07
    0.86719181904637916245E-07
    0.88638079405120213094E-07
    0.91401011117145688134E-07
    0.91401000267868120234E-07
    0.11638879863213715871E-03
    0.59026802787517512749E-01
    0.95817244168434334561E+00
    0.98089527081150329479E+00
    0.96532731981914121633E+00
    0.98510654472001113469E+00
    0.97862517848082186678E+00
    0.27945478789101682593E-01
    0.24481826868213962654E-04
    0.89351202207869874544E-07
    0.90371953742548268509E-07
    0.88906533731487015703E-07
    0.38130136810394512584E-03
    0.38189938043129152689E-01
    0.88476307121975132845E-07
    0.86660388857288121759E-07
    0.89233863531030957411E-07
    0.89284603763680945650E-07
    0.86711743368217527279E-07
    0.88635122686264378388E-07
    0.88636044772221807393E-07
    0.86719047403766096142E-07
    0.89333134180629385222E-07
    0.89325984064528938756E-07
    0.86671604999785813118E-07
    0.88478350172242778987E-07
    0.91366756882371123899E-07
    0.91390735126328722981E-07
    0.60994192975704947420E-03
    0.13999671225945786723E+00
    0.92441226581751234637E+00
    0.96996806276503688693E+00
    0.89299508605549371421E+00
    0.97576373305859043228E+00
    0.95661798044669843488E+00
    0.78562509633727989344E-01
    0.18344958052656811279E-03
    0.90279900384364949471E-07
    0.29675411205713633701E-06
    0.96134809122083787350E-07
    0.29366641051294427658E-02
    0.13040211598737791454E+00
    0.98728975545949471115E+00
    0.98870980097115868102E+00
    0.98934707367090302110E+00
    0.98958827129666404598E+00
    0.98952334697478094849E+00
    0.98972346547490197555E+00
    0.98962422416260253932E+00
    0.98919678344669459413E+00
    0.98858511924971770313E+00
    0.98728324576461634621E+00
    0.98758432041409205393E+00
    0.98478087719926032939E+00
    0.98882120182783317386E+00
    0.98913533241297635357E+00
    0.98979027395347285445E+00
    0.98986186109291018909E+00
    0.98989401895371587070E+00
    0.98990753517890572866E+00
    0.98991108495225710318E+00
    0.98992552020159285675E+00
    0.98992660818135447265E+00
    0.98989818881595681432E+00
    0.98986485182899830448E+00
    0.98980142069634668989E+00
    0.98981136786718681986E+00
    0.98970544941232163616E+00
    0.98986961278603025072E+00
    0.98988911112390587377E+00
    0.98606264438221280511E+00
    0.98804960110306194743E+00
    0.98911929406139564858E+00
    0.98941880576845575579E+00
    0.98923175743761748713E+00
    0.98953029213445997669E+00
    0.98929545816524355750E+00
    0.98845929865188253416E+00
    0.98701493384750649263E+00
    0.98380243876405149006E+00
    0.98535305400716344248E+00
    0.97945458751354108617E+00
    0.98803127330213014190E+00
    0.98851665857795933956E+00
    0.98973664547234529998E+00
    0.98982243715260920247E+00
    0.98987066958682168316E+00
    0.98988309619458869637E+00
    0.98987860055290521899E+00
    0.98989329300713790882E+00
    0.98988826656445105812E+00
    0.98984444525786474678E+00
    0.98977719565297361815E+00
    0.98967509059194624932E+00
    0.98972290635247972546E+00
    0.98959081933053338886E+00
    0.98981854746367659015E+00
    0.98984351622726829412E+00
    0.98988802944727205535E+00
    0.98984435149380256558E+00
    0.98977739303730760678E+00
    0.98967520583284307456E+00
    0.98972291749270924210E+00
    0.98959092883087262926E+00
    0.98973684577069820367E+00
    0.98982236053838856815E+00
    0.98987046684769297578E+00
    0.98988308382791578843E+00
    0.98987854851705125991E+00
    0.98989326949031331004E+00
    0.98984348097720586956E+00
    0.98981853435254585349E+00
    0.98929524354902620420E+00
    0.98845921500172084784E+00
    0.98701521818213011628E+00
    0.98380257398177584083E+00
    0.98535308399321708261E+00
    0.97945473294157858746E+00
    0.98606296472850063495E+00
    0.98804953943602924493E+00
    0.98911909567714462188E+00
    0.98941880967019513182E+00
    0.98923172020042149377E+00
    0.98953030637688643711E+00
    0.98851662987775079650E+00
    0.98803126943132091320E+00
    0.98992636104250031348E+00
    0.98989809630121217143E+00
    0.98986504668208019631E+00
    0.98980153655179226035E+00
    0.98981138087656750368E+00
    0.98970555856601460931E+00
    0.98979048122943202870E+00
    0.98986178563362825500E+00
    0.98989381655677910476E+00
    0.98990752649644619954E+00
    0.98991103862544949088E+00
    0.98992548580210615317E+00
    0.98988907712794860227E+00
    0.98986960108407207048E+00
    0.98962401967015833915E+00
    0.98919670004083137815E+00
    0.98858535601091845901E+00
    0.98728337473027871773E+00
    0.98758434491773583463E+00
    0.98478101956082597646E+00
    0.98729005144459813792E+00
    0.98870973624917679601E+00
    0.98934688065830911352E+00
    0.98958827728586296058E+00
    0.98952331291850137429E+00
    0.98972348142985688835E+00
    0.98913530661935578081E+00
    0.98882119874607321552E+00
    0.95661710725969895108E+00
    0.78562884779774813659E-01
    0.18345102216123560413E-03
    0.90279875858768173441E-07
    0.29675506020841922498E-06
    0.96134937219220322464E-07
    0.60994759298493926147E-03
    0.13999749900748820197E+00
    0.92441082239647665020E+00
    0.96996792423041922060E+00
    0.89299511191392533238E+00
    0.97576364910733315305E+00
    0.13040193208944592107E+00
    0.29366701201941135084E-02
    0.88636089796211253951E-07
    0.86719050820382120868E-07
    0.89333082868398787174E-07
    0.89325982200292404608E-07
    0.86671612359050627924E-07
    0.88478359745841757698E-07
    0.88476278564007244455E-07
    0.86660374663838424846E-07
    0.89233866530642881620E-07
    0.89284614877990159662E-07
    0.86711742078168177107E-07
    0.88635112170075489269E-07
    0.91390734456657645679E-07
    0.91366761674889799567E-07
    0.97862478672777963862E+00
    0.27945498215714962426E-01
    0.24481840650898080056E-04
    0.89351217362771687990E-07
    0.90371982223901616538E-07
    0.88906593583571232967E-07
    0.11638949113636321377E-03
    0.59027018047719634342E-01
    0.95817161429637720538E+00
    0.98089521922750300131E+00
    0.96532727972625842483E+00
    0.98510653508637902043E+00
    0.38189862046400520346E-01
    0.38130192207979859715E-03
    0.88635836958249208077E-07
    0.86721231164162545907E-07
    0.89334242471795262631E-07
    0.89335514001912372720E-07
    0.86719182269539749627E-07
    0.88638078311498954825E-07
    0.88637965647397731958E-07
    0.86720793900811085262E-07
    0.89334385191853099596E-07
    0.89334236314306749090E-07
    0.86719767330427221999E-07
    0.88635024184766255071E-07
    0.91401007911984609487E-07
    0.91401022930453661449E-07
    0.98995927570283248631E+00
    0.98994537043573083146E+00
    0.98993118868902785223E+00
    0.98990214175659640983E+00
    0.98990107113869163502E+00
    0.98984564393781415692E+00
    0.98987851135947713122E+00
    0.98991860154939814720E+00
    0.98993281620335404902E+00
    0.98994279071928337199E+00
    0.98994786335197160199E+00
    0.98995813615303884792E+00
    0.98993695188169161803E+00
    0.98992600601122970883E+00
    0.98982962478969516162E+00
    0.98965755947213240873E+00
    0.98942704288945959590E+00
    0.98897495170234195339E+00
    0.98903037858908948721E+00
    0.98808342077960842342E+00
    0.98878039542684792451E+00
    0.98940395744378406562E+00
    0.98966695917396307891E+00
    0.98979024619908884119E+00
    0.98977597141110162937E+00
    0.98986820166843147994E+00
    0.98961653608823296757E+00
    0.98947979745168779253E+00
    0.98997166241277423371E+00
    0.98996547847478499893E+00
    0.98995747152606550223E+00
    0.98994448067453733042E+00
    0.98994683947051831385E+00
    0.98992406195553162007E+00
    0.98993791299807620820E+00
    0.98995613235735380186E+00
    0.98996304992016181945E+00
    0.98996821897091080711E+00
    0.98996906958905328544E+00
    0.98997244367229808581E+00
    0.98996350639995389642E+00
    0.98995860460708884343E+00
    0.98989688653811691577E+00
    0.98981583150088248146E+00
    0.98968102852989847662E+00
    0.98949668143953484201E+00
    0.98957012630901342032E+00
    0.98924941614407890800E+00
    0.98950202369698925242E+00
    0.98974136872685791744E+00
    0.98984902896620297064E+00
    0.98990005671647307572E+00
    0.98988961336168035388E+00
    0.98992654140781077832E+00
    0.98981504631844041686E+00
    0.98976060988223302228E+00
    0.98540119921378688250E+00
    0.10277700644332867300E-01
    0.32238071763984550319E-05
    0.89334589384618315488E-07
    0.86752083395486742085E-07
    0.88638225717362180417E-07
    0.10375043869629691471E-04
    0.17512247631714623203E-01
    0.98031204286397866099E+00
    0.98693293516601432458E+00
    0.98221621459581087699E+00
    0.98833693169281056079E+00
    0.12146069769171215225E-01
    0.36189006003216873616E-04
    0.88635811607120092670E-07
    0.86721242208836149004E-07
    0.89334263665938135820E-07
    0.89335070885833172125E-07
    0.86721535428282272670E-07
    0.88637643774536844563E-07
    0.88635717896951357823E-07
    0.86721096566500310626E-07
    0.89334328452752857808E-07
    0.89334296197662919841E-07
    0.86719758204066430468E-07
    0.88635125724700481251E-07