# vtk DataFile Version 3.0
LAPLACIEN  2D
ASCII
DATASET UNSTRUCTURED_GRID
 POINTS         481  float
   6.2500000000000000E-002  0.87500000000000000        0.0000000000000000     
  0.12500000000000000       0.87500000000000000        0.0000000000000000     
  0.12500000000000000       0.93750000000000000        0.0000000000000000     
   3.7499999999999999E-002  0.91249999999999998        0.0000000000000000     
   8.1250000000000003E-002  0.91874999999999996        0.0000000000000000     
   8.7499999999999994E-002  0.96250000000000002        0.0000000000000000     
   4.3749999999999997E-002  0.95625000000000004        0.0000000000000000     
  0.18750000000000000       0.87500000000000000        0.0000000000000000     
  0.25000000000000000       0.87500000000000000        0.0000000000000000     
  0.25000000000000000       0.93750000000000000        0.0000000000000000     
  0.16250000000000001       0.91249999999999998        0.0000000000000000     
  0.20624999999999999       0.91874999999999996        0.0000000000000000     
  0.21249999999999999       0.96250000000000002        0.0000000000000000     
  0.16875000000000001       0.95625000000000004        0.0000000000000000     
   6.2500000000000000E-002  0.75000000000000000        0.0000000000000000     
  0.12500000000000000       0.75000000000000000        0.0000000000000000     
  0.12500000000000000       0.81250000000000000        0.0000000000000000     
   3.7499999999999999E-002  0.78749999999999998        0.0000000000000000     
   8.1250000000000003E-002  0.79374999999999996        0.0000000000000000     
   8.7499999999999994E-002  0.83750000000000002        0.0000000000000000     
   4.3749999999999997E-002  0.83125000000000004        0.0000000000000000     
  0.18750000000000000       0.75000000000000000        0.0000000000000000     
  0.25000000000000000       0.75000000000000000        0.0000000000000000     
  0.25000000000000000       0.81250000000000000        0.0000000000000000     
  0.16250000000000001       0.78749999999999998        0.0000000000000000     
  0.20624999999999999       0.79374999999999996        0.0000000000000000     
  0.21249999999999999       0.83750000000000002        0.0000000000000000     
  0.16875000000000001       0.83125000000000004        0.0000000000000000     
  0.31250000000000000       0.87500000000000000        0.0000000000000000     
  0.37500000000000000       0.87500000000000000        0.0000000000000000     
  0.37500000000000000       0.93750000000000000        0.0000000000000000     
  0.28749999999999998       0.91249999999999998        0.0000000000000000     
  0.33124999999999999       0.91874999999999996        0.0000000000000000     
  0.33750000000000002       0.96250000000000002        0.0000000000000000     
  0.29375000000000001       0.95625000000000004        0.0000000000000000     
  0.43750000000000000       0.87500000000000000        0.0000000000000000     
  0.50000000000000000       0.87500000000000000        0.0000000000000000     
  0.50000000000000000       0.93750000000000000        0.0000000000000000     
  0.41249999999999998       0.91249999999999998        0.0000000000000000     
  0.45624999999999999       0.91874999999999996        0.0000000000000000     
  0.46250000000000002       0.96250000000000002        0.0000000000000000     
  0.41875000000000001       0.95625000000000004        0.0000000000000000     
  0.31250000000000000       0.75000000000000000        0.0000000000000000     
  0.37500000000000000       0.75000000000000000        0.0000000000000000     
  0.37500000000000000       0.81250000000000000        0.0000000000000000     
  0.28749999999999998       0.78749999999999998        0.0000000000000000     
  0.33124999999999999       0.79374999999999996        0.0000000000000000     
  0.33750000000000002       0.83750000000000002        0.0000000000000000     
  0.29375000000000001       0.83125000000000004        0.0000000000000000     
  0.43750000000000000       0.75000000000000000        0.0000000000000000     
  0.50000000000000000       0.75000000000000000        0.0000000000000000     
  0.50000000000000000       0.81250000000000000        0.0000000000000000     
  0.41249999999999998       0.78749999999999998        0.0000000000000000     
  0.45624999999999999       0.79374999999999996        0.0000000000000000     
  0.46250000000000002       0.83750000000000002        0.0000000000000000     
  0.41875000000000001       0.83125000000000004        0.0000000000000000     
   6.2500000000000000E-002  0.62500000000000000        0.0000000000000000     
  0.12500000000000000       0.62500000000000000        0.0000000000000000     
  0.12500000000000000       0.68750000000000000        0.0000000000000000     
   3.7499999999999999E-002  0.66249999999999998        0.0000000000000000     
   8.1250000000000003E-002  0.66874999999999996        0.0000000000000000     
   8.7499999999999994E-002  0.71250000000000002        0.0000000000000000     
   4.3749999999999997E-002  0.70625000000000004        0.0000000000000000     
  0.18750000000000000       0.62500000000000000        0.0000000000000000     
  0.25000000000000000       0.62500000000000000        0.0000000000000000     
  0.25000000000000000       0.68750000000000000        0.0000000000000000     
  0.16250000000000001       0.66249999999999998        0.0000000000000000     
  0.20624999999999999       0.66874999999999996        0.0000000000000000     
  0.21249999999999999       0.71250000000000002        0.0000000000000000     
  0.16875000000000001       0.70625000000000004        0.0000000000000000     
   6.2500000000000000E-002  0.50000000000000000        0.0000000000000000     
  0.12500000000000000       0.50000000000000000        0.0000000000000000     
  0.12500000000000000       0.56250000000000000        0.0000000000000000     
   3.7499999999999999E-002  0.53749999999999998        0.0000000000000000     
   8.1250000000000003E-002  0.54374999999999996        0.0000000000000000     
   8.7499999999999994E-002  0.58750000000000002        0.0000000000000000     
   4.3749999999999997E-002  0.58125000000000004        0.0000000000000000     
  0.18750000000000000       0.50000000000000000        0.0000000000000000     
  0.25000000000000000       0.50000000000000000        0.0000000000000000     
  0.25000000000000000       0.56250000000000000        0.0000000000000000     
  0.16250000000000001       0.53749999999999998        0.0000000000000000     
  0.20624999999999999       0.54374999999999996        0.0000000000000000     
  0.21249999999999999       0.58750000000000002        0.0000000000000000     
  0.16875000000000001       0.58125000000000004        0.0000000000000000     
  0.31250000000000000       0.62500000000000000        0.0000000000000000     
  0.37500000000000000       0.62500000000000000        0.0000000000000000     
  0.37500000000000000       0.68750000000000000        0.0000000000000000     
  0.28749999999999998       0.66249999999999998        0.0000000000000000     
  0.33124999999999999       0.66874999999999996        0.0000000000000000     
  0.33750000000000002       0.71250000000000002        0.0000000000000000     
  0.29375000000000001       0.70625000000000004        0.0000000000000000     
  0.43750000000000000       0.62500000000000000        0.0000000000000000     
  0.50000000000000000       0.62500000000000000        0.0000000000000000     
  0.50000000000000000       0.68750000000000000        0.0000000000000000     
  0.41249999999999998       0.66249999999999998        0.0000000000000000     
  0.45624999999999999       0.66874999999999996        0.0000000000000000     
  0.46250000000000002       0.71250000000000002        0.0000000000000000     
  0.41875000000000001       0.70625000000000004        0.0000000000000000     
  0.31250000000000000       0.50000000000000000        0.0000000000000000     
  0.37500000000000000       0.50000000000000000        0.0000000000000000     
  0.37500000000000000       0.56250000000000000        0.0000000000000000     
  0.28749999999999998       0.53749999999999998        0.0000000000000000     
  0.33124999999999999       0.54374999999999996        0.0000000000000000     
  0.33750000000000002       0.58750000000000002        0.0000000000000000     
  0.29375000000000001       0.58125000000000004        0.0000000000000000     
  0.43750000000000000       0.50000000000000000        0.0000000000000000     
  0.50000000000000000       0.50000000000000000        0.0000000000000000     
  0.50000000000000000       0.56250000000000000        0.0000000000000000     
  0.41249999999999998       0.53749999999999998        0.0000000000000000     
  0.45624999999999999       0.54374999999999996        0.0000000000000000     
  0.46250000000000002       0.58750000000000002        0.0000000000000000     
  0.41875000000000001       0.58125000000000004        0.0000000000000000     
  0.56250000000000000       0.87500000000000000        0.0000000000000000     
  0.62500000000000000       0.87500000000000000        0.0000000000000000     
  0.62500000000000000       0.93750000000000000        0.0000000000000000     
  0.53749999999999998       0.91249999999999998        0.0000000000000000     
  0.58125000000000004       0.91874999999999996        0.0000000000000000     
  0.58750000000000002       0.96250000000000002        0.0000000000000000     
  0.54374999999999996       0.95625000000000004        0.0000000000000000     
  0.68750000000000000       0.87500000000000000        0.0000000000000000     
  0.75000000000000000       0.87500000000000000        0.0000000000000000     
  0.75000000000000000       0.93750000000000000        0.0000000000000000     
  0.66249999999999998       0.91249999999999998        0.0000000000000000     
  0.70625000000000004       0.91874999999999996        0.0000000000000000     
  0.71250000000000002       0.96250000000000002        0.0000000000000000     
[...]
 CELL_DATA         896
 SCALARS Tumor_cells float
 LOOKUP_TABLE default
    0.16180792692065968310E-06
    0.14753775065833227115E-06
    0.16718053174507782743E-06
    0.16720034453728077275E-06
    0.14755985645703630655E-06
    0.16187509294089253728E-06
    0.13001659616672256282E-06
    0.14749160357331390357E-06
    0.13491490140868254340E-06
    0.13491063943523736838E-06
    0.14750311875798516621E-06
    0.12998469314680963673E-06
    0.18300819751942264589E-06
    0.18299257654998076908E-06
    0.16214107472842125564E-06
    0.14801217327087558554E-06
    0.16841938192889764916E-06
    0.16896729518925285424E-06
    0.14835780999771643530E-06
    0.16331133864629369017E-06
    0.13042929064695037399E-06
    0.14780245168364848125E-06
    0.13505002432275596474E-06
    0.16717915411566223691E-06
    0.14773927465705588305E-06
    0.16196539907659155093E-06
    0.18357704271954728575E-06
    0.18361682447438688272E-06
    0.16194723200106560256E-06
    0.14765071930050168302E-06
    0.16742021855044059841E-06
    0.16747812580318932022E-06
    0.14768542344287955527E-06
    0.16204522280782130805E-06
    0.16191101827100680068E-06
    0.14757388744712696996E-06
    0.16711555726831092765E-06
    0.13494967518579923101E-06
    0.14757644200927168819E-06
    0.13003786478322028995E-06
    0.18316751905639661000E-06
    0.18315254412797271472E-06
    0.16275806113477854939E-06
    0.14877970270612463949E-06
    0.17069764250428422429E-06
    0.17216978560173268230E-06
    0.14953934522642109909E-06
    0.16511304260428791362E-06
    0.16326586202336829235E-06
    0.14825673907478081483E-06
    0.16752253355769627041E-06
    0.16744930030196190785E-06
    0.14802925207983375112E-06
    0.16230654199570149808E-06
    0.18451476794209115031E-06
    0.18467599017419070654E-06
   -0.18544394966295207089E-06
   -0.54943749584659158427E-06
    0.18743128784043041953E-05
    0.14638206656607309802E-05
   -0.11160819042057902515E-05
   -0.76108217699868994995E-07
    0.72550142889532427755E-06
    0.28169658840234991321E-06
    0.12521236715899417656E-06
    0.19150560244462168246E-06
    0.16057075148522942072E-04
    0.19483177584193678505E-06
    0.19489458653633579124E-04
    0.15677752788993012619E-04
   -0.66694321038486007306E-06
   -0.13782665737172327472E-05
    0.19975389925089091753E-05
    0.19949152918482986693E-05
   -0.15901843363793773435E-05
   -0.63635206420671026462E-06
    0.97833838306020161774E-06
   -0.10876049442750274810E-05
    0.18922629001122445342E-06
    0.17841361926997840951E-05
    0.16259223776975260571E-05
   -0.50300872081762456349E-06
    0.22776872463452212407E-04
    0.21669882675280006837E-04
   -0.16347916513231024612E-06
   -0.53401921806805108587E-06
    0.18746887092712125803E-05
    0.14632312036428573794E-05
   -0.11148182826576947605E-05
   -0.62502408082382474539E-07
   -0.53141370411211577707E-06
   -0.14879234281850990324E-06
   -0.34844954793062620654E-08
    0.19840697833445692556E-06
    0.15742006393537269623E-04
    0.20571205334853835099E-06
    0.19033999314763238572E-04
    0.15681691014210940791E-04
   -0.66016255740077868266E-06
   -0.13762665695902077100E-05
    0.19611799287260766353E-05
    0.39407851182660117999E-06
   -0.16054693298436758813E-05
    0.11006029338173058963E-06
   -0.62449929625656035140E-06
   -0.11859015346320536599E-05
    0.17438352720609539516E-05
    0.19091169736387252211E-05
    0.16270216544300621702E-05
   -0.50365080692608684884E-06
    0.22741461329162992522E-04
    0.21670317481398735737E-04
    0.16211363430123918194E-06
    0.14782133668873515375E-06
    0.16777982141009798620E-06
    0.16796488905527980858E-06
    0.14793722156490121881E-06
    0.16244617314971637202E-06
    0.16215410124925377127E-06
    0.14772147870254764528E-06
    0.16727966849752620215E-06
    0.13502978735118216980E-06
    0.14769923412744643650E-06
    0.13010673517896732151E-06
    0.18345037741135629260E-06
    0.18346362913657560409E-06
    0.16384755527657486511E-06
    0.15040486676407860958E-06
    0.17571157798003488735E-06
    0.18083212867735096821E-06
    0.15285856566044126645E-06
    0.17141336797122892377E-06
    0.16581334671965061535E-06
    0.14942391986133583888E-06
    0.16828299926381674461E-06
    0.16804237495929127953E-06
    0.14868824841453505311E-06
    0.16294797367275826659E-06
    0.18676108303470995160E-06
    0.18740857187301326066E-06
    0.16220382416098489615E-06
    0.14793320219874542527E-06
    0.16800692434889217528E-06
    0.16834713580164191270E-06
    0.14818049063790442822E-06
    0.16295604259288088381E-06
    0.16248796062536191632E-06
    0.14788783218097153384E-06
    0.16745536138798434036E-06
    0.13510502671423777486E-06
    0.14780229404498811353E-06
    0.13015341965785920161E-06
    0.18368903843584964737E-06
    0.18375078155816727807E-06
    0.16455801290580337613E-06
    0.15187715618428386369E-06
    0.18011876496815722002E-06
    0.19400915163764620966E-06
    0.15798625336836815748E-06
    0.18592181725244050140E-06
    0.17082139825267480450E-06
    0.15133315662556110139E-06
    0.16948815493205426793E-06
    0.16883781554771345716E-06
    0.14941736562031777062E-06
    0.16346488658376803818E-06
    0.18942592997005810246E-06
    0.19103410486072274199E-06
   -0.71535375936170296092E-07
   -0.45120012468727500619E-06
    0.19041119373213500136E-05
    0.15273737320735874528E-05
   -0.11013485481435624222E-05
   -0.59469359499876732015E-07
   -0.53331291805328768921E-06
   -0.86870898087945602560E-07
    0.41006103518104047074E-07
    0.22822689050994209814E-06
    0.14583632402206272877E-04
    0.24699771425412692483E-06
    0.17316386473878732605E-04
    0.15632018196057957324E-04
    0.26539982417856935678E-05
   -0.14257390605041667010E-05
    0.39400283093351602014E-06
    0.39406410535039035687E-06
   -0.50937793000773778599E-06
    0.11007595776472356814E-06
   -0.62100880748345140040E-06
   -0.10770669200467088840E-05
    0.17481788601098318192E-05
    0.19093713672886920023E-05
    0.16684877084362237455E-05
   -0.47306152157545377680E-07
    0.22610616928109802980E-04
    0.21707386670810700346E-04
    0.57361054424164680400E-04
    0.29859161165890030177E-03
    0.11513121397629562381E-02
    0.36057963729846571367E-02
    0.88495552354017376507E-03
    0.21822401434200451587E-03
    0.30396454154324094055E-04
    0.13213855145686323741E-04
    0.22317323291123216688E-05
    0.36190377044706927899E-06
    0.20221501371836397029E-04
    0.80076418143976299345E-06
    0.52504311261964984659E-04
    0.21211793127096179663E-03
    0.68440369651125015915E-02
    0.26116456163766924199E-02
    0.12889528982835763489E-04
    0.39959170354595289277E-06
   -0.13553413750584743605E-06
    0.11119866993737507832E-06
    0.13196671128757474337E-06
    0.95960466333304067304E-04
    0.95507152091917855161E-04
    0.69749938275332845974E-03
    0.30368825987700533674E-02
    0.52935026717389555354E-02
    0.76486824915087097809E-03
    0.54197632704614784305E-04
   -0.62902399878095574925E-06
   -0.12335081612685805802E-05
    0.17444417522630082016E-05
    0.19090955613556288541E-05
    0.15978137769882275936E-05
   -0.29163476039705805630E-06
    0.79077411764602984353E-06
   -0.14857856837140230218E-05
    0.35761115632976680939E-06
    0.19984731968938410210E-05
   -0.15934845511429887341E-05
   -0.27463799065801859465E-06
    0.21693677821805797942E-04
    0.22802524762087278740E-04
   -0.52969524691554234689E-06
   -0.15922345708588499753E-06
   -0.77957622673607379308E-08
    0.19196008397003940571E-06
    0.16083363880038386987E-04
    0.19378679608262834318E-06
   -0.33129245472902913985E-06
   -0.91019476519099973548E-06
    0.48854886812510992983E-06
    0.15037355462786862080E-05
   -0.11148128133249030994E-05
   -0.64487491126733236351E-07
    0.15702969150106524078E-04
    0.19503125260509399081E-04
   -0.60951346050758837238E-06
   -0.12783721518575926943E-05
    0.17387971801959707274E-05
    0.19100460099666393553E-05
    0.16169363599794894177E-05
   -0.50226161464184496361E-06
   -0.67153516248770009378E-06
   -0.13837351647919290684E-05
    0.19712484044863346673E-05
    0.39424563794847570620E-06
   -0.16024382299782122804E-05
    0.11007995573029908765E-06
    0.21692093395607157539E-04
    0.22830315629906054649E-04
   -0.52462580735016526353E-06
   -0.16564435621523447837E-06
    0.58691173070028486780E-08
    0.20130327077225577959E-06
    0.15830019800120946871E-04
    0.20201433196504947328E-06
   -0.18124063445860319608E-06
   -0.54284144311584933386E-06
    0.18744967984613814289E-05
    0.14650114412031894928E-05
   -0.11188579849803860497E-05
   -0.61528342455575601910E-07
    0.15688359964415926677E-04
    0.19179014917927072792E-04
    0.16306491900491547315E-06
    0.14801789236054598068E-06
    0.16742343244173666366E-06
    0.16728346391256014579E-06
    0.14773114401626783097E-06
    0.16185881027448708085E-06
    0.13009994690580458933E-06
    0.14777754791328599765E-06
    0.13542291958001171840E-06
    0.16848943118948266913E-06
    0.14836803811213260487E-06
    0.16380947481504509888E-06
    0.18365721341289692357E-06
    0.18353789535144088014E-06
    0.16188439868335109289E-06
    0.14753188180675114959E-06
    0.16708582928737012162E-06
    0.13492082673922005103E-06
    0.14749966158951518987E-06
    0.12997171180083371024E-06
    0.12997649574720010317E-06
    0.14748678373981393794E-06
    0.13495402216067170018E-06
    0.16713642744389434827E-06
    0.14755577255912771376E-06
    0.16192557024629329750E-06
    0.18298575837275775012E-06
    0.18298604309040098626E-06
    0.16522539509617048205E-06
    0.14879751716100230367E-06
    0.16806367004957592123E-06
    0.16768451545417742183E-06
    0.14800763054302238555E-06
    0.16208842936969990086E-06
    0.16217445869763285310E-06
    0.14821858815245727454E-06
    0.16871763438404271157E-06
    0.17014318682478645077E-06
    0.14956098597883502943E-06
    0.16720880440100104318E-06
    0.18481660815815784695E-06
    0.18436391910318279385E-06
    0.16210976185163407686E-06
    0.14764841603373366940E-06
    0.16723394506772418793E-06
    0.13498366501231907710E-06
    0.14757099004691380173E-06
    0.13000388216168048372E-06
    0.16181345380921525213E-06
    0.14756873789686348689E-06
    0.16721020445400290854E-06
    0.16730292258636737972E-06
    0.14768395584289943608E-06
    0.16220067075561872138E-06
    0.18317184675367855222E-06
    0.18314299755510585101E-06
    0.11048115856469252618E-06
   -0.13022043544243297498E-05
    0.23694899355086605959E-05
    0.19833387398842724883E-05
    0.16643319515653894742E-05
   -0.49528388542072108914E-06
   -0.67699898430039934237E-06
   -0.13873149871334071445E-05
    0.19579143282145820498E-05
    0.39407701181893707860E-06
   -0.48262325123949232273E-06
    0.11007519084024195226E-06
    0.21748693936912190801E-04
    0.22934145235311211995E-04
   -0.48335242221640611320E-06
   -0.10075038547454428527E-06
    0.83336323502510521088E-07
    0.23532317071596810176E-06
    0.14864305376753437658E-04
    0.23378129282495359869E-06
   -0.14862384006681281727E-06
   -0.50789420973911089000E-06
    0.18733783202532787904E-05
    0.14625366366175076571E-05
   -0.11180721294312714301E-05
   -0.42276585380694761403E-07
    0.15641156050351861595E-04
    0.17763354039361286526E-04
    0.14665171760333048961E-04
    0.26194373240742215188E-02
    0.67947177855014707568E-02
    0.55468892126866887332E-02
    0.21608286522217146249E-02
    0.31963981031322437733E-03
    0.60631397647515009454E-04
    0.28944418095262970008E-03
    0.56302729715421216346E-06
    0.39502902288450325973E-06
   -0.77241354764259878768E-07
    0.11555175937858944966E-06
    0.15244502220062804945E-03
    0.28699178625474658930E-03
    0.12320493398852749075E-02
    0.28692426125506237606E-03
    0.53180753032323165779E-04
    0.72635499122701471826E-06
    0.21670113649497437159E-04
    0.38799589414596486155E-06
    0.12383119814935980359E-06
    0.78673367832078154713E-06
    0.89276241401098980604E-05
    0.66455906359080019218E-04
    0.11265785819072121274E-02
    0.41249281752956624622E-02
    0.27219405441482205730E-03
    0.57464492173806596873E-04
    0.16990444788272950056E-06
    0.15047131470092312424E-06
    0.16923019492294346057E-06
    0.16843877596913086206E-06
    0.14864082471864235086E-06
    0.16258111100768743026E-06
    0.16284037756127022144E-06
    0.14930416529513453638E-06
    0.17152290219296038724E-06
    0.17575569485872205888E-06
    0.15289217534128224327E-06
    0.17699958261425130223E-06
    0.18768820772162960297E-06
    0.18646245160437954155E-06
    0.16244126236434305898E-06
    0.14782099704353672554E-06
    0.16741841636784888364E-06
    0.13506809173671041453E-06
    0.14769306046797760726E-06
    0.13007189534905138982E-06
    0.16196052924761744506E-06
    0.14771616826675521057E-06
    0.16748450613172585424E-06
    0.16769741355857475082E-06
    0.14793431718807362548E-06
    0.16269700959621073927E-06
    0.18348230646582306917E-06
    0.18341587014359324483E-06
    0.17387368321117148180E-06
    0.15206027569530493272E-06
    0.17007510853798158181E-06
    0.16907584305852469358E-06
    0.14938586345038665274E-06
    0.16324991960816622169E-06
    0.16394296836162437578E-06
    0.15110495350120100556E-06
    0.17696188730603028444E-06
    0.18770895976633237326E-06
    0.15800272242583335968E-06
    0.19347566461725474980E-06
    0.19124840215769468682E-06
    0.18921528518676652188E-06
    0.16264299681890469832E-06
    0.14793938744267557776E-06
    0.16752856763387343515E-06
    0.13512582503996453870E-06
    0.14779836898230439601E-06
    0.13013616701850011780E-06
    0.16212567080251564778E-06
    0.14787804194287195807E-06
    0.16784490116035417962E-06
    0.16819277875511347914E-06
    0.14818000032911652513E-06
    0.16310230538590185296E-06
    0.18376126097261356598E-06
    0.18367008529549826337E-06
    0.16212627828982003351E-06
    0.14787814316013217260E-06
    0.16784448121455416201E-06
    0.16819247818142483724E-06
    0.14817998876463377096E-06
    0.16310217855178458936E-06
    0.16264251239463401256E-06
    0.14793951948689850856E-06
    0.16752901973746519253E-06
    0.13512575111124968960E-06
    0.14779850594781365842E-06
    0.13013627261262044579E-06
    0.18367021405129354750E-06
    0.18376133802813068753E-06
    0.16394345798726570147E-06
    0.15110513531219113403E-06
    0.17696130687504849956E-06
    0.18770858684898258938E-06
    0.15800268884588296294E-06
    0.19347550197757895672E-06
    0.17387306593310809998E-06
    0.15206029459978027868E-06
    0.17007566457711498562E-06
    0.16907587096949596786E-06
    0.14938588726832187823E-06
    0.16324996643965797529E-06
    0.18921529486960899416E-06
    0.19124833003493555525E-06
    0.16196120558889870965E-06
    0.14771639631507225279E-06
    0.16748406723881956067E-06
    0.16769714926466421307E-06
    0.14793430976760263342E-06
    0.16269677667652680220E-06
    0.16244079866435250481E-06
    0.14782112072693460323E-06
    0.16741909542162547159E-06
    0.13506806300414150714E-06
    0.14769310723439343419E-06
    0.13007184878274360267E-06
    0.18341616045173363336E-06
    0.18348236208112335404E-06
    0.16284080580816644625E-06
    0.14930432687875368537E-06
    0.17152257504955318789E-06
    0.17575538772462586234E-06
    0.15289210837086761699E-06
    0.17699922883838483563E-06
    0.16990375205864648102E-06
    0.15047144006240309355E-06
    0.16923071266982966036E-06
    0.16843870392506434708E-06
    0.14864087851744816074E-06
    0.16258103898813336055E-06
    0.18646248294377400339E-06
    0.18768812997421197733E-06
    0.12383286849113243253E-06
    0.78673401204425614758E-06
    0.89276204989752732120E-05
    0.66455870005427929159E-04
    0.11265777184454118034E-02
    0.41249254987413847690E-02
    0.12320491165471580269E-02
    0.28692421825431710467E-03
    0.53180673446612537997E-04
    0.72636067912796489563E-06
    0.21670127189028465074E-04
    0.38799611838077644197E-06
    0.57464561274553998778E-04
    0.27219445574060092746E-03
    0.60631414694504067169E-04
    0.28944422453486197844E-03
    0.56302738925546173351E-06
    0.39502903109542163946E-06
   -0.77241662695592233525E-07
    0.11555176053930532588E-06
    0.14665126518765105642E-04
    0.26194328980859997620E-02
    0.67947075102725287485E-02
    0.55468849142565985685E-02
    0.21608270459478992782E-02
    0.31963962737371003726E-03
    0.28698961505052551042E-03
    0.15244461585759967823E-03
   -0.14862318346372705554E-06
   -0.50789434168118183266E-06
    0.18733775771238984829E-05
    0.14625366127103847327E-05
   -0.11180728256062696912E-05
   -0.42277580199499295972E-07
   -0.48334776226490048004E-06
   -0.10074949808617703047E-06
    0.83338247843942439206E-07
    0.23532330409213991303E-06
    0.14864305425625522626E-04
    0.23378132899241272528E-06
    0.17763356113966697085E-04
    0.15641155183119214816E-04
   -0.67700085994396981290E-06
   -0.13873149692187117673E-05
    0.19579135144732530065E-05
    0.39407701859084913075E-06
   -0.48262351650671883810E-06
    0.11007518087802531614E-06
    0.11048128308506451723E-06
   -0.13022032468962660190E-05
    0.23693922385588762910E-05
    0.19833311934918903485E-05
    0.16643329628571442171E-05
   -0.49528398236004772984E-06
    0.22934144393624628284E-04
    0.21748693615030699071E-04
    0.16181411601064325306E-06
    0.14756888425383758179E-06
    0.16720959596005100461E-06
    0.16730271818019178925E-06
    0.14768394528028614020E-06
    0.16220049469910812105E-06
    0.16210950001858480267E-06
    0.14764837745919089814E-06
    0.16723448368486772745E-06
    0.13498365050481312145E-06
    0.14757103928306456818E-06
    0.13000400030512374439E-06
    0.18314303730889474710E-06
    0.18317190699987726044E-06
    0.16217474757873625721E-06
    0.14821870622409538175E-06
    0.16871714216121239293E-06
    0.17014289837989694121E-06
    0.14956094387132641139E-06
    0.16720848155616839297E-06
    0.16522487289213608625E-06
    0.14879752798814817121E-06
    0.16806412113859680246E-06
    0.16768460118236554923E-06
    0.14800771244628172661E-06
    0.16208843374465194025E-06
    0.18436391342423605236E-06
    0.18481662892665741296E-06
    0.12997643202383649054E-06
    0.14748680995366608157E-06
    0.13495403582373318833E-06
    0.16713592542952031045E-06
    0.14755563903252483630E-06
    0.16192534677574249884E-06
    0.16188408050425292240E-06
    0.14753198612658952660E-06
    0.16708620788151806852E-06
    0.13492096603284510875E-06
    0.14749978266844856451E-06
    0.12997174862784515268E-06
    0.18298604024150739153E-06
    0.18298582511715926329E-06
    0.13010006065099036080E-06
    0.14777751960202087560E-06
    0.13542288266800290200E-06
    0.16848884495889170539E-06
    0.14836789486439559550E-06
    0.16380912261313904005E-06
    0.16306448879619647186E-06
    0.14801787501451220775E-06
    0.16742384922363987143E-06
    0.16728339824836397426E-06
    0.14773095004120279782E-06
    0.16185824294981096910E-06
    0.18353783289779760195E-06
    0.18365713136162524536E-06
   -0.18124021470689079924E-06
   -0.54284170838549423418E-06
    0.18744961180189554426E-05
    0.14650114413508696871E-05
   -0.11188586375112171866E-05
   -0.61528317866099531760E-07
   -0.52462414512228259611E-06
   -0.16564430027266853536E-06
    0.58699493526663614699E-08
    0.20130325454080936855E-06
    0.15830020905314167882E-04
    0.20201442167668428854E-06
    0.19179018003531239444E-04
    0.15688359150584851528E-04
   -0.67153700991527176723E-06
   -0.13837351211497266372E-05
    0.19712474347289190554E-05
    0.39424563437906621391E-06
   -0.16024393371212622672E-05
    0.11007993956584987254E-06
   -0.60951147481648995476E-06
   -0.12783718833772653840E-05
    0.17387981478441163290E-05
    0.19100461140058971685E-05
    0.16169373313431778650E-05
   -0.50226172042599181289E-06