# vtk DataFile Version 3.0
LAPLACIEN  2D
ASCII
DATASET UNSTRUCTURED_GRID
 POINTS         481  float
   6.2500000000000000E-002  0.87500000000000000        0.0000000000000000     
  0.12500000000000000       0.87500000000000000        0.0000000000000000     
  0.12500000000000000       0.93750000000000000        0.0000000000000000     
   3.7499999999999999E-002  0.91249999999999998        0.0000000000000000     
   8.1250000000000003E-002  0.91874999999999996        0.0000000000000000     
   8.7499999999999994E-002  0.96250000000000002        0.0000000000000000     
   4.3749999999999997E-002  0.95625000000000004        0.0000000000000000     
  0.18750000000000000       0.87500000000000000        0.0000000000000000     
  0.25000000000000000       0.87500000000000000        0.0000000000000000     
  0.25000000000000000       0.93750000000000000        0.0000000000000000     
  0.16250000000000001       0.91249999999999998        0.0000000000000000     
  0.20624999999999999       0.91874999999999996        0.0000000000000000     
  0.21249999999999999       0.96250000000000002        0.0000000000000000     
  0.16875000000000001       0.95625000000000004        0.0000000000000000     
   6.2500000000000000E-002  0.75000000000000000        0.0000000000000000     
  0.12500000000000000       0.75000000000000000        0.0000000000000000     
  0.12500000000000000       0.81250000000000000        0.0000000000000000     
   3.7499999999999999E-002  0.78749999999999998        0.0000000000000000     
   8.1250000000000003E-002  0.79374999999999996        0.0000000000000000     
   8.7499999999999994E-002  0.83750000000000002        0.0000000000000000     
   4.3749999999999997E-002  0.83125000000000004        0.0000000000000000     
  0.18750000000000000       0.75000000000000000        0.0000000000000000     
  0.25000000000000000       0.75000000000000000        0.0000000000000000     
  0.25000000000000000       0.81250000000000000        0.0000000000000000     
  0.16250000000000001       0.78749999999999998        0.0000000000000000     
  0.20624999999999999       0.79374999999999996        0.0000000000000000     
  0.21249999999999999       0.83750000000000002        0.0000000000000000     
  0.16875000000000001       0.83125000000000004        0.0000000000000000     
  0.31250000000000000       0.87500000000000000        0.0000000000000000     
  0.37500000000000000       0.87500000000000000        0.0000000000000000     
  0.37500000000000000       0.93750000000000000        0.0000000000000000     
  0.28749999999999998       0.91249999999999998        0.0000000000000000     
  0.33124999999999999       0.91874999999999996        0.0000000000000000     
  0.33750000000000002       0.96250000000000002        0.0000000000000000     
  0.29375000000000001       0.95625000000000004        0.0000000000000000     
  0.43750000000000000       0.87500000000000000        0.0000000000000000     
  0.50000000000000000       0.87500000000000000        0.0000000000000000     
  0.50000000000000000       0.93750000000000000        0.0000000000000000     
  0.41249999999999998       0.91249999999999998        0.0000000000000000     
  0.45624999999999999       0.91874999999999996        0.0000000000000000     
  0.46250000000000002       0.96250000000000002        0.0000000000000000     
  0.41875000000000001       0.95625000000000004        0.0000000000000000     
  0.31250000000000000       0.75000000000000000        0.0000000000000000     
  0.37500000000000000       0.75000000000000000        0.0000000000000000     
  0.37500000000000000       0.81250000000000000        0.0000000000000000     
  0.28749999999999998       0.78749999999999998        0.0000000000000000     
  0.33124999999999999       0.79374999999999996        0.0000000000000000     
  0.33750000000000002       0.83750000000000002        0.0000000000000000     
  0.29375000000000001       0.83125000000000004        0.0000000000000000     
  0.43750000000000000       0.75000000000000000        0.0000000000000000     
  0.50000000000000000       0.75000000000000000        0.0000000000000000     
  0.50000000000000000       0.81250000000000000        0.0000000000000000     
  0.41249999999999998       0.78749999999999998        0.0000000000000000     
  0.45624999999999999       0.79374999999999996        0.0000000000000000     
  0.46250000000000002       0.83750000000000002        0.0000000000000000     
  0.41875000000000001       0.83125000000000004        0.0000000000000000     
   6.2500000000000000E-002  0.62500000000000000        0.0000000000000000     
  0.12500000000000000       0.62500000000000000        0.0000000000000000     
  0.12500000000000000       0.68750000000000000        0.0000000000000000     
   3.7499999999999999E-002  0.66249999999999998        0.0000000000000000     
   8.1250000000000003E-002  0.66874999999999996        0.0000000000000000     
   8.7499999999999994E-002  0.71250000000000002        0.0000000000000000     
   4.3749999999999997E-002  0.70625000000000004        0.0000000000000000     
  0.18750000000000000       0.62500000000000000        0.0000000000000000     
  0.25000000000000000       0.62500000000000000        0.0000000000000000     
  0.25000000000000000       0.68750000000000000        0.0000000000000000     
  0.16250000000000001       0.66249999999999998        0.0000000000000000     
  0.20624999999999999       0.66874999999999996        0.0000000000000000     
  0.21249999999999999       0.71250000000000002        0.0000000000000000     
  0.16875000000000001       0.70625000000000004        0.0000000000000000     
   6.2500000000000000E-002  0.50000000000000000        0.0000000000000000     
  0.12500000000000000       0.50000000000000000        0.0000000000000000     
  0.12500000000000000       0.56250000000000000        0.0000000000000000     
   3.7499999999999999E-002  0.53749999999999998        0.0000000000000000     
   8.1250000000000003E-002  0.54374999999999996        0.0000000000000000     
   8.7499999999999994E-002  0.58750000000000002        0.0000000000000000     
   4.3749999999999997E-002  0.58125000000000004        0.0000000000000000     
  0.18750000000000000       0.50000000000000000        0.0000000000000000     
  0.25000000000000000       0.50000000000000000        0.0000000000000000     
  0.25000000000000000       0.56250000000000000        0.0000000000000000     
  0.16250000000000001       0.53749999999999998        0.0000000000000000     
  0.20624999999999999       0.54374999999999996        0.0000000000000000     
  0.21249999999999999       0.58750000000000002        0.0000000000000000     
  0.16875000000000001       0.58125000000000004        0.0000000000000000     
  0.31250000000000000       0.62500000000000000        0.0000000000000000     
  0.37500000000000000       0.62500000000000000        0.0000000000000000     
  0.37500000000000000       0.68750000000000000        0.0000000000000000     
  0.28749999999999998       0.66249999999999998        0.0000000000000000     
  0.33124999999999999       0.66874999999999996        0.0000000000000000     
  0.33750000000000002       0.71250000000000002        0.0000000000000000     
  0.29375000000000001       0.70625000000000004        0.0000000000000000     
  0.43750000000000000       0.62500000000000000        0.0000000000000000     
  0.50000000000000000       0.62500000000000000        0.0000000000000000     
  0.50000000000000000       0.68750000000000000        0.0000000000000000     
  0.41249999999999998       0.66249999999999998        0.0000000000000000     
  0.45624999999999999       0.66874999999999996        0.0000000000000000     
  0.46250000000000002       0.71250000000000002        0.0000000000000000     
  0.41875000000000001       0.70625000000000004        0.0000000000000000     
  0.31250000000000000       0.50000000000000000        0.0000000000000000     
  0.37500000000000000       0.50000000000000000        0.0000000000000000     
  0.37500000000000000       0.56250000000000000        0.0000000000000000     
  0.28749999999999998       0.53749999999999998        0.0000000000000000     
  0.33124999999999999       0.54374999999999996        0.0000000000000000     
  0.33750000000000002       0.58750000000000002        0.0000000000000000     
  0.29375000000000001       0.58125000000000004        0.0000000000000000     
  0.43750000000000000       0.50000000000000000        0.0000000000000000     
  0.50000000000000000       0.50000000000000000        0.0000000000000000     
  0.50000000000000000       0.56250000000000000        0.0000000000000000     
  0.41249999999999998       0.53749999999999998        0.0000000000000000     
  0.45624999999999999       0.54374999999999996        0.0000000000000000     
  0.46250000000000002       0.58750000000000002        0.0000000000000000     
  0.41875000000000001       0.58125000000000004        0.0000000000000000     
  0.56250000000000000       0.87500000000000000        0.0000000000000000     
  0.62500000000000000       0.87500000000000000        0.0000000000000000     
  0.62500000000000000       0.93750000000000000        0.0000000000000000     
  0.53749999999999998       0.91249999999999998        0.0000000000000000     
  0.58125000000000004       0.91874999999999996        0.0000000000000000     
  0.58750000000000002       0.96250000000000002        0.0000000000000000     
  0.54374999999999996       0.95625000000000004        0.0000000000000000     
  0.68750000000000000       0.87500000000000000        0.0000000000000000     
  0.75000000000000000       0.87500000000000000        0.0000000000000000     
  0.75000000000000000       0.93750000000000000        0.0000000000000000     
  0.66249999999999998       0.91249999999999998        0.0000000000000000     
  0.70625000000000004       0.91874999999999996        0.0000000000000000     
  0.71250000000000002       0.96250000000000002        0.0000000000000000     
[...]
 CELL_DATA         896
 SCALARS Tumor_cells float
 LOOKUP_TABLE default
    0.19239735699339321932E-06
    0.17511737430635786657E-06
    0.19891391828146346055E-06
    0.19894101961379609620E-06
    0.17514844043538468476E-06
    0.19249146670290846082E-06
    0.15389646570127690382E-06
    0.17505615867381719115E-06
    0.15982274374350133630E-06
    0.15981664634229728413E-06
    0.17507268844665580096E-06
    0.15385101640210969864E-06
    0.21807804231920266799E-06
    0.21805562972231860346E-06
    0.19283594291876938030E-06
    0.17575343433036933071E-06
    0.20055516044967921332E-06
    0.20131562948376540281E-06
    0.17621628886014507711E-06
    0.19443215997429744858E-06
    0.15445562411241302741E-06
    0.17547014348150520766E-06
    0.16000582769929779304E-06
    0.19891325211899779602E-06
    0.17539315919798588677E-06
    0.19260622504246366076E-06
    0.21883349796940730550E-06
    0.21887977783130994805E-06
    0.19257057488022194891E-06
    0.17525899468893795272E-06
    0.19921654767562852565E-06
    0.19929389608123019923E-06
    0.17530736773775013672E-06
    0.19270767353507593972E-06
    0.19253202984644324599E-06
    0.17516240143329037608E-06
    0.19882665405190885224E-06
    0.15986582714952393832E-06
    0.17516389856801165861E-06
    0.15391697372759137132E-06
    0.21827729287916219417E-06
    0.21825629814301313685E-06
    0.19362930924442628805E-06
    0.17674982401882606292E-06
    0.20351343770925475431E-06
    0.20550806299244598138E-06
    0.17775759772529159162E-06
    0.19679946391301019597E-06
    0.19432661015318654881E-06
    0.17606990396068224947E-06
    0.19936115726168079172E-06
    0.19926343176468522870E-06
    0.17576698428551268745E-06
    0.19304269384729453644E-06
    0.22004666698628867540E-06
    0.22025357428585485063E-06
   -0.26086121041635742046E-06
   -0.58066140563827265192E-06
    0.21154142678925705849E-05
    0.16040902288234419605E-05
   -0.12877211592410257280E-05
   -0.49983927317720092472E-07
    0.70555491759960372828E-06
    0.37588988257757753430E-06
    0.18785608262504484650E-06
    0.23784187578783584253E-06
    0.21617506704286774743E-04
    0.24518103816005125196E-06
    0.21712033486842444093E-04
    0.17106237169923726966E-04
   -0.80366865746404365968E-06
   -0.16261005701884099181E-05
    0.22853279525336482524E-05
    0.22822403030144873546E-05
   -0.19045841642610412500E-05
   -0.76171640980341071505E-06
    0.10026358607096139225E-05
   -0.12606361939368620073E-05
    0.85161577313388273345E-07
    0.20084050469596777398E-05
    0.22287868518517729438E-05
   -0.56691659207968766435E-06
    0.26044401672997583914E-04
    0.24619825893425151210E-04
   -0.23036030706391272018E-06
   -0.56255053677733743881E-06
    0.21157068707657906941E-05
    0.16034239295317512492E-05
   -0.12858303926106584104E-05
   -0.27329239498275624207E-07
   -0.61595415638060339681E-06
   -0.13067709287969743845E-06
   -0.58807385228505625415E-08
    0.24875779675190538774E-06
    0.21138749388241775127E-04
    0.26224480762361780803E-06
    0.21155678070184351657E-04
    0.17110664976934448795E-04
   -0.79610447589301182342E-06
   -0.16246616471804955045E-05
    0.22369270704845243054E-05
    0.40468320053064936852E-06
   -0.19254032678643284220E-05
    0.11301519362012568020E-06
   -0.74494595780713209232E-06
   -0.13846155990017904060E-05
    0.19538874092699248424E-05
    0.21816923577914916438E-05
    0.22282811115112547922E-05
   -0.56764656911305531287E-06
    0.26003329953100081436E-04
    0.24619863910961996614E-04
    0.19277819459796465258E-06
    0.17547308656263779045E-06
    0.19967104068505809375E-06
    0.19991215888228493759E-06
    0.17562603155686790834E-06
    0.19321810503422914451E-06
    0.19283934070953674881E-06
    0.17534752579880854289E-06
    0.19903075312484967323E-06
    0.15996535356354409597E-06
    0.17531686615934608577E-06
    0.15400273186033928854E-06
    0.21863139812768334316E-06
    0.21864664736350315931E-06
    0.19502593164840033629E-06
    0.17885223839063810442E-06
    0.21000612923060111938E-06
    0.21690108909268927659E-06
    0.18207814047853888940E-06
    0.20509349631616938907E-06
    0.19763737292799271134E-06
    0.17758059080398705260E-06
    0.20033856423185587833E-06
    0.20002178199498746350E-06
    0.17661385608707599568E-06
    0.19386136077316034543E-06
    0.22294054378805811373E-06
    0.22378092506703204650E-06
    0.19289080726810045102E-06
    0.17561372791363365476E-06
    0.19995816786354015681E-06
    0.20039799411655191580E-06
    0.17593450931446994080E-06
    0.19386721754989303945E-06
    0.19326133243852167470E-06
    0.17555660567844497358E-06
    0.19924999209347917633E-06
    0.16005914311925009599E-06
    0.17544548921110702141E-06
    0.15406087324142877672E-06
    0.21893088396434999083E-06
    0.21900787058063492087E-06
    0.19593688614816665552E-06
    0.18075721471607600623E-06
    0.21573799669226036866E-06
    0.23666754855785199501E-06
    0.18878800431821611439E-06
    0.22475454728588222342E-06
    0.20414286960648530953E-06
    0.18004880637041154196E-06
    0.20188312412944223340E-06
    0.20103771145435835987E-06
    0.17755067000234762479E-06
    0.19452133946352804436E-06
    0.22637114597621108907E-06
    0.22845682097855898027E-06
   -0.10038881668804332191E-06
   -0.46026333487747196698E-06
    0.21650270879715655570E-05
    0.16956456850174881971E-05
   -0.12688340209764693071E-05
   -0.23876099828666225605E-07
   -0.61762526535842366758E-06
   -0.61966317858622077452E-07
    0.55662596295073049786E-07
    0.29679973117467025177E-06
    0.19369450052556518732E-04
    0.32875891350841814746E-06
    0.19057313328481250786E-04
    0.17050769072620201671E-04
    0.28039891228322694757E-05
   -0.17124836790165651030E-05
    0.66691709504316785898E-06
    0.40466571443949146222E-06
   -0.85169284444529180323E-06
    0.11301036755936474135E-06
   -0.74161135189143760262E-06
   -0.12664515492941834055E-05
    0.19602863865572249177E-05
    0.21828097834637633529E-05
    0.22684012305771188826E-05
   -0.10024863940533918028E-07
    0.25862421014759097502E-04
    0.24673347201482397295E-04
    0.10052412235590766124E-03
    0.42907928919260347441E-03
    0.13910803834813558789E-02
    0.36336442420046356251E-02
    0.10581599078508384815E-02
    0.26647546168496772127E-03
    0.42627362852168745747E-04
    0.21768394392070683854E-04
    0.42898271804094005775E-05
    0.56143354541979118350E-06
    0.31891721064554917663E-04
    0.15631057628176278325E-05
    0.80577452147334626201E-04
    0.29609026475128187106E-03
    0.62524247630820570937E-02
    0.27184090099143854748E-02
    0.14398619072321795681E-04
    0.40584775576866663050E-06
   -0.14094926488816701635E-06
    0.11309617459115487346E-06
    0.10092015563560834830E-06
    0.92234580904408002737E-04
    0.99626730231383917166E-04
    0.73581079713332423701E-03
    0.29037465739095180174E-02
    0.49802715524443494713E-02
    0.87327361154456860544E-03
    0.71268228690254907249E-04
   -0.74886337832394401349E-06
   -0.14440685897052154418E-05
    0.19540853721791800167E-05
    0.21812353783998365871E-05
    0.21937189793819802885E-05
   -0.31076794553722766186E-06
    0.76317678850077935537E-06
   -0.17735221617714893269E-05
    0.29691634923601925100E-06
    0.22866188479301723248E-05
   -0.19058691516283077020E-05
    0.81756549397675576914E-07
    0.24650643939630780541E-04
    0.26078420602076676001E-04
   -0.61386113973967217777E-06
   -0.14271580973255799382E-06
   -0.12397828027602617685E-07
    0.23821556307330294272E-06
    0.21654333929983121573E-04
    0.24366019061071086127E-06
   -0.47622981532382820061E-06
   -0.10545844122398378300E-05
    0.47173552599713616587E-06
    0.16581677486706590499E-05
   -0.12848427774889874860E-05
   -0.29820146709850103580E-07
    0.17137156575394365551E-04
    0.21727617685381376395E-04
   -0.72761809600075293466E-06
   -0.14954471307127299233E-05
    0.19472554383447855050E-05
    0.21820900855323832534E-05
    0.22180903686518433000E-05
   -0.56590735270208723274E-06
   -0.80963267690711733238E-06
   -0.16336514302932492847E-05
    0.22467234057961526383E-05
    0.40470527942515246761E-06
   -0.19230853141373668722E-05
    0.11301668398537443164E-06
    0.24646728438734269879E-04
    0.26110412907220675210E-04
   -0.60804833415966183298E-06
   -0.14890367722152192016E-06
    0.56809204699544906816E-08
    0.25212778356655881833E-06
    0.21271025539908733083E-04
    0.25715606597655034729E-06
   -0.25491102662625747600E-06
   -0.57312296401352991339E-06
    0.21156325283416917785E-05
    0.16056089637682937564E-05
   -0.12904231324437819647E-05
   -0.26295257479162343539E-07
    0.17118413102477170678E-04
    0.21329600553080571134E-04
    0.19406332593789149451E-06
    0.17576055536966445656E-06
    0.19923405756841823197E-06
    0.19905169494498712250E-06
    0.17538286297909605624E-06
    0.19246584560928958384E-06
    0.15400937754634726631E-06
    0.17543704318562391704E-06
    0.16051056636045795550E-06
    0.20069027699332644386E-06
    0.17623036638436326369E-06
    0.19508640226291792150E-06
    0.21893240553895333115E-06
    0.21878304414559689881E-06
    0.19249854951734550338E-06
    0.17510990594659339559E-06
    0.19878969593815071729E-06
    0.15983012912206887000E-06
    0.17506838612720085708E-06
    0.15383428022403612120E-06
    0.15384113052583919453E-06
    0.17504995172818798127E-06
    0.15987733395672145056E-06
    0.19886033189720403707E-06
    0.17514353678661862091E-06
    0.19255573599462344753E-06
    0.21804760594743363315E-06
    0.21805073906010620343E-06
    0.19687073951478209917E-06
    0.17677263392431743399E-06
    0.20005730536317948183E-06
    0.19956503233164522635E-06
    0.17573900910678823865E-06
    0.19276367758989625478E-06
    0.19287956718395947072E-06
    0.17602119241137014692E-06
    0.20094561257813664742E-06
    0.20286142492745285790E-06
    0.17778792955752450811E-06
    0.19954602881245200786E-06
    0.22043656756467686493E-06
    0.21985286479363293270E-06
    0.19278309108140997676E-06
    0.17525587455505490404E-06
    0.19897380388939345428E-06
    0.15990807402635797990E-06
    0.17515708265396855987E-06
    0.15387483560218171896E-06
    0.19240430675570120132E-06
    0.17515619307936280051E-06
    0.19895165624028452297E-06
    0.19907157937664966973E-06
    0.17530568572586437172E-06
    0.19290599172828463308E-06
    0.21828046615915830087E-06
    0.21824659259097418360E-06
   -0.89741141561009605855E-10
   -0.15180142286574564485E-05
    0.26731376655369579221E-05
    0.22769444712997330093E-05
    0.22721830290816135147E-05
   -0.55703483617644519375E-06
   -0.81643217683747869806E-06
   -0.16375267758172061914E-05
    0.22328572451458985228E-05
    0.40468164986200959575E-06
   -0.82623443244989984672E-06
    0.11300773239386430765E-06
    0.24721544233974387120E-04
    0.26223684670717171616E-04
   -0.54316200554483178326E-06
   -0.60373345820789141640E-07
    0.11561656057174091407E-06
    0.30430385773570312593E-06
    0.19791304139674197163E-04
    0.30960456327608933199E-06
   -0.20910053391855459694E-06
   -0.53210199355407229237E-06
    0.21140258440355768100E-05
    0.16030923209228919891E-05
   -0.12884571674875476958E-05
   -0.93560628911966440405E-09
    0.17059262016863684498E-04
    0.19588220290624530563E-04
    0.16841512308660507605E-04
    0.27548235352524747151E-02
    0.62275215970350513567E-02
    0.52420474312434755040E-02
    0.22105552499420387524E-02
    0.38071752064022248378E-03
    0.66858973510730107222E-04
    0.27758780725238368318E-03
    0.55983313767704714777E-06
    0.40474725578976527774E-06
   -0.68446850981825617267E-08
    0.11420248597669234848E-06
    0.21888485729342440126E-03
    0.32599457864786521560E-03
    0.14791410261894527393E-02
    0.41383643248234816504E-03
    0.93449715165315388262E-04
    0.14059483799832043024E-05
    0.34634678945274656307E-04
    0.62236002065360660987E-06
    0.29564622606029487412E-06
    0.17662580607443575641E-05
    0.13504142581127981807E-04
    0.94152802517726781107E-04
    0.13315693066084388369E-02
    0.41301863980293083978E-02
    0.37973252845118691916E-03
    0.88209971376897804390E-04
    0.20293887247723477423E-06
    0.17893726140708443476E-06
    0.20155284102782422224E-06
    0.20052863173107317727E-06
    0.17655302881121878133E-06
    0.19339325508200934803E-06
    0.19373590884166648296E-06
    0.17742724222046993980E-06
    0.20458835424144977805E-06
    0.21023349997377502731E-06
    0.18212758295674173371E-06
    0.21246349521798965672E-06
    0.22414437016992350856E-06
    0.22255819055382960848E-06
    0.19320212411886430387E-06
    0.17547258566153077544E-06
    0.19920390748040018388E-06
    0.16001313864604636478E-06
    0.17530914214387088597E-06
    0.15395926464667385537E-06
    0.19258720572327979761E-06
    0.17534083747845661800E-06
    0.19929798449556335952E-06
    0.19957263733806881216E-06
    0.17562267500740150228E-06
    0.19353756930477060107E-06
    0.21867045331943932595E-06
    0.21858827006020029751E-06
    0.20812026928162104763E-06
    0.18099241853828164718E-06
    0.20263539121514068080E-06
    0.20134202105519129108E-06
    0.17751011001137896914E-06
    0.19424677290007584351E-06
    0.19514913349707490790E-06
    0.17975560414904543070E-06
    0.21163805348951573169E-06
    0.22642107204021864253E-06
    0.18882138297683627618E-06
    0.23681816038149976970E-06
    0.22873557850785985418E-06
    0.22610120361513620036E-06
    0.19345728950722177753E-06
    0.17562142387600809871E-06
    0.19934128208111200933E-06
    0.16008504814320503728E-06
    0.17544059218177381785E-06
    0.15403932211535309974E-06
    0.19279323581306187372E-06
    0.17554430207498211972E-06
    0.19975358619162705315E-06
    0.20020209670140978479E-06
    0.17593397508737910584E-06
    0.19405359265757915333E-06
    0.21902120971021672144E-06
    0.21890720071259756914E-06
    0.19279406350523354308E-06
    0.17554444019743330306E-06
    0.19975301494300958865E-06
    0.20020168462953098018E-06
    0.17593396185866719273E-06
    0.19405337867122267493E-06
    0.19345664946610789127E-06
    0.17562160377542782434E-06
    0.19934191706211014923E-06
    0.16008497410284163720E-06
    0.17544076037883767477E-06
    0.15403945447855834174E-06
    0.21890738204493038496E-06
    0.21902127767191702344E-06
    0.19514974313904561123E-06
    0.17975583846887782066E-06
    0.21163730180106850366E-06
    0.22642059336136452353E-06
    0.18882131679484089660E-06
    0.23681797029343391198E-06
    0.20811942946928905555E-06
    0.18099242663069209724E-06
    0.20263610523440919403E-06
    0.20134206632923975291E-06
    0.17751016354282473198E-06
    0.19424686067923188290E-06
    0.22610121169730827203E-06
    0.22873550838838745593E-06
    0.19258806166142112199E-06
    0.17534112154269990918E-06
    0.19929741242055079964E-06
    0.19957227522417280194E-06
    0.17562269360131740620E-06
    0.19353727381257319075E-06
    0.19320150657131220180E-06
    0.17547273917933093555E-06
    0.19920470814987947795E-06
    0.16001311250110892761E-06
    0.17530918216016360393E-06
    0.15395923847994313398E-06
    0.21858859208726821810E-06
    0.21867050767804306968E-06
    0.19373649867656834923E-06
    0.17742745585939825249E-06
    0.20458792447056835406E-06
    0.21023311120650023305E-06
    0.18212748130871822870E-06
    0.21246307143141781618E-06
    0.20293794610881250247E-06
    0.17893741908140711302E-06
    0.20155353415637925890E-06
    0.20052853898062319867E-06
    0.17655308684274333456E-06
    0.19339316439195258760E-06
    0.22255826053574602662E-06
    0.22414428288876966436E-06
    0.29564852424125835263E-06
    0.17662582420047417603E-05
    0.13504135329479781223E-04
    0.94152738036615954875E-04
    0.13315682335170975735E-02
    0.41301834988790560657E-02
    0.14791408932751366843E-02
    0.41383640435387492734E-03
    0.93449547685413398234E-04
    0.14059625663835787795E-05
    0.34634706793014944368E-04
    0.62236045581067138965E-06
    0.88210083324668004290E-04
    0.37973306886578920161E-03
    0.66858989446192841209E-04
    0.27758783303322653001E-03
    0.55983319627878750483E-06
    0.40474725373046152923E-06
   -0.68454172428681820133E-08
    0.11420248135741876412E-06
    0.16841456816424802773E-04
    0.27548185870021712866E-02
    0.62275106735985704884E-02
    0.52420427826966901549E-02
    0.22105533582706424038E-02
    0.38071725950561077388E-03
    0.32599185485845694763E-03
    0.21888420521660697290E-03
   -0.20909958449163402883E-06
   -0.53210220925350872853E-06
    0.21140248813588941571E-05
    0.16030923074942201082E-05
   -0.12884580269344029373E-05
   -0.93722037788055382133E-09
   -0.54315424433747452875E-06
   -0.60371909985766111585E-07
    0.11561938423677460171E-06
    0.30430404119176395744E-06
    0.19791304309620485515E-04
    0.30960467304854068248E-06
    0.19588223111661113879E-04
    0.17059260975119062211E-04
   -0.81643458758355003685E-06
   -0.16375267458793497135E-05
    0.22328561202861191581E-05
    0.40468163617659223468E-06
   -0.82623496849312609412E-06
    0.11300773466112915015E-06
   -0.89486046791718214526E-10
   -0.15180131162505392692E-05
    0.26730111001905105192E-05
    0.22769332756822620263E-05
    0.22721842313585834609E-05
   -0.55703497318611774818E-06
    0.26223683315074539638E-04
    0.24721543761283978170E-04
    0.19240514021103721292E-06
    0.17515636415796789303E-06
    0.19895084930877127679E-06
    0.19907127095613409595E-06
    0.17530568180926052128E-06
    0.19290576189530694337E-06
    0.19278269437644903807E-06
    0.17525585490830687812E-06
    0.19897453020295545587E-06
    0.15990805452225726384E-06
    0.17515714238836439155E-06
    0.15387498321541758888E-06
    0.21824666288593672074E-06
    0.21828056476888947362E-06
    0.19287998357910473486E-06
    0.17602132074209144912E-06
    0.20094498438792491542E-06
    0.20286106445153544973E-06
    0.17778789145935653393E-06
    0.19954560560641934401E-06
    0.19687002993314370762E-06
    0.17677270621270054409E-06
    0.20005787873750582797E-06
    0.19956514208607565972E-06
    0.17573910109140171597E-06
    0.19276371703381323489E-06
    0.21985287955070502311E-06
    0.22043656389321099334E-06
    0.15384104854491312614E-06
    0.17504999981872020146E-06
    0.15987737383837664043E-06
    0.19885965911110973455E-06
    0.17514334287366336388E-06
    0.19255542810924126697E-06
    0.19249813144006332149E-06
    0.17511003336698811353E-06
    0.19879019963989609825E-06
    0.15983026745208275068E-06
    0.17506855343234770262E-06
    0.15383430917424897971E-06
    0.21805071840502720780E-06
    0.21804768854092646453E-06
    0.15400947891811513133E-06
    0.17543700124523669943E-06
    0.16051050585304214787E-06
    0.20068950425812781787E-06
    0.17623019782168282317E-06
    0.19508590639624530209E-06
    0.19406272410208352415E-06
    0.17576058700394729800E-06
    0.19923456430564853390E-06
    0.19905159838587951637E-06
    0.17538265623004888007E-06
    0.19246504910528607852E-06
    0.21878298672478238587E-06
    0.21893233519994034266E-06
   -0.25491044513928098634E-06
   -0.57312329899093059550E-06
    0.21156316126125899210E-05
    0.16056089580890812054E-05
   -0.12904239186777158341E-05
   -0.26295235006191890596E-07
   -0.60804617192139812771E-06
   -0.14890357950250245737E-06
    0.56820606987174683893E-08
    0.25212777721470131028E-06
    0.21271027442307558034E-04
    0.25715616750812704497E-06
    0.21329604635309422692E-04
    0.17118412078058919035E-04
   -0.80963503705968976196E-06
   -0.16336513751593258705E-05
    0.22467221130584788163E-05
    0.40470527504828764253E-06
   -0.19230866594063300170E-05
    0.11301668775138475761E-06
   -0.72761544797215692000E-06
   -0.14954468036285464735E-05
    0.19472567401991465126E-05
    0.21820902334925258079E-05
    0.22180915526965666994E-05
   -0.56590748592925030495E-06