# vtk DataFile Version 3.0
LAPLACIEN  2D
ASCII
DATASET UNSTRUCTURED_GRID
 POINTS         481  float
   6.2500000000000000E-002  0.87500000000000000        0.0000000000000000     
  0.12500000000000000       0.87500000000000000        0.0000000000000000     
  0.12500000000000000       0.93750000000000000        0.0000000000000000     
   3.7499999999999999E-002  0.91249999999999998        0.0000000000000000     
   8.1250000000000003E-002  0.91874999999999996        0.0000000000000000     
   8.7499999999999994E-002  0.96250000000000002        0.0000000000000000     
   4.3749999999999997E-002  0.95625000000000004        0.0000000000000000     
  0.18750000000000000       0.87500000000000000        0.0000000000000000     
  0.25000000000000000       0.87500000000000000        0.0000000000000000     
  0.25000000000000000       0.93750000000000000        0.0000000000000000     
  0.16250000000000001       0.91249999999999998        0.0000000000000000     
  0.20624999999999999       0.91874999999999996        0.0000000000000000     
  0.21249999999999999       0.96250000000000002        0.0000000000000000     
  0.16875000000000001       0.95625000000000004        0.0000000000000000     
   6.2500000000000000E-002  0.75000000000000000        0.0000000000000000     
  0.12500000000000000       0.75000000000000000        0.0000000000000000     
  0.12500000000000000       0.81250000000000000        0.0000000000000000     
   3.7499999999999999E-002  0.78749999999999998        0.0000000000000000     
   8.1250000000000003E-002  0.79374999999999996        0.0000000000000000     
   8.7499999999999994E-002  0.83750000000000002        0.0000000000000000     
   4.3749999999999997E-002  0.83125000000000004        0.0000000000000000     
  0.18750000000000000       0.75000000000000000        0.0000000000000000     
  0.25000000000000000       0.75000000000000000        0.0000000000000000     
  0.25000000000000000       0.81250000000000000        0.0000000000000000     
  0.16250000000000001       0.78749999999999998        0.0000000000000000     
  0.20624999999999999       0.79374999999999996        0.0000000000000000     
  0.21249999999999999       0.83750000000000002        0.0000000000000000     
  0.16875000000000001       0.83125000000000004        0.0000000000000000     
  0.31250000000000000       0.87500000000000000        0.0000000000000000     
  0.37500000000000000       0.87500000000000000        0.0000000000000000     
  0.37500000000000000       0.93750000000000000        0.0000000000000000     
  0.28749999999999998       0.91249999999999998        0.0000000000000000     
  0.33124999999999999       0.91874999999999996        0.0000000000000000     
  0.33750000000000002       0.96250000000000002        0.0000000000000000     
  0.29375000000000001       0.95625000000000004        0.0000000000000000     
  0.43750000000000000       0.87500000000000000        0.0000000000000000     
  0.50000000000000000       0.87500000000000000        0.0000000000000000     
  0.50000000000000000       0.93750000000000000        0.0000000000000000     
  0.41249999999999998       0.91249999999999998        0.0000000000000000     
  0.45624999999999999       0.91874999999999996        0.0000000000000000     
  0.46250000000000002       0.96250000000000002        0.0000000000000000     
  0.41875000000000001       0.95625000000000004        0.0000000000000000     
  0.31250000000000000       0.75000000000000000        0.0000000000000000     
  0.37500000000000000       0.75000000000000000        0.0000000000000000     
  0.37500000000000000       0.81250000000000000        0.0000000000000000     
  0.28749999999999998       0.78749999999999998        0.0000000000000000     
  0.33124999999999999       0.79374999999999996        0.0000000000000000     
  0.33750000000000002       0.83750000000000002        0.0000000000000000     
  0.29375000000000001       0.83125000000000004        0.0000000000000000     
  0.43750000000000000       0.75000000000000000        0.0000000000000000     
  0.50000000000000000       0.75000000000000000        0.0000000000000000     
  0.50000000000000000       0.81250000000000000        0.0000000000000000     
  0.41249999999999998       0.78749999999999998        0.0000000000000000     
  0.45624999999999999       0.79374999999999996        0.0000000000000000     
  0.46250000000000002       0.83750000000000002        0.0000000000000000     
  0.41875000000000001       0.83125000000000004        0.0000000000000000     
   6.2500000000000000E-002  0.62500000000000000        0.0000000000000000     
  0.12500000000000000       0.62500000000000000        0.0000000000000000     
  0.12500000000000000       0.68750000000000000        0.0000000000000000     
   3.7499999999999999E-002  0.66249999999999998        0.0000000000000000     
   8.1250000000000003E-002  0.66874999999999996        0.0000000000000000     
   8.7499999999999994E-002  0.71250000000000002        0.0000000000000000     
   4.3749999999999997E-002  0.70625000000000004        0.0000000000000000     
  0.18750000000000000       0.62500000000000000        0.0000000000000000     
  0.25000000000000000       0.62500000000000000        0.0000000000000000     
  0.25000000000000000       0.68750000000000000        0.0000000000000000     
  0.16250000000000001       0.66249999999999998        0.0000000000000000     
  0.20624999999999999       0.66874999999999996        0.0000000000000000     
  0.21249999999999999       0.71250000000000002        0.0000000000000000     
  0.16875000000000001       0.70625000000000004        0.0000000000000000     
   6.2500000000000000E-002  0.50000000000000000        0.0000000000000000     
  0.12500000000000000       0.50000000000000000        0.0000000000000000     
  0.12500000000000000       0.56250000000000000        0.0000000000000000     
   3.7499999999999999E-002  0.53749999999999998        0.0000000000000000     
   8.1250000000000003E-002  0.54374999999999996        0.0000000000000000     
   8.7499999999999994E-002  0.58750000000000002        0.0000000000000000     
   4.3749999999999997E-002  0.58125000000000004        0.0000000000000000     
  0.18750000000000000       0.50000000000000000        0.0000000000000000     
  0.25000000000000000       0.50000000000000000        0.0000000000000000     
  0.25000000000000000       0.56250000000000000        0.0000000000000000     
  0.16250000000000001       0.53749999999999998        0.0000000000000000     
  0.20624999999999999       0.54374999999999996        0.0000000000000000     
  0.21249999999999999       0.58750000000000002        0.0000000000000000     
  0.16875000000000001       0.58125000000000004        0.0000000000000000     
  0.31250000000000000       0.62500000000000000        0.0000000000000000     
  0.37500000000000000       0.62500000000000000        0.0000000000000000     
  0.37500000000000000       0.68750000000000000        0.0000000000000000     
  0.28749999999999998       0.66249999999999998        0.0000000000000000     
  0.33124999999999999       0.66874999999999996        0.0000000000000000     
  0.33750000000000002       0.71250000000000002        0.0000000000000000     
  0.29375000000000001       0.70625000000000004        0.0000000000000000     
  0.43750000000000000       0.62500000000000000        0.0000000000000000     
  0.50000000000000000       0.62500000000000000        0.0000000000000000     
  0.50000000000000000       0.68750000000000000        0.0000000000000000     
  0.41249999999999998       0.66249999999999998        0.0000000000000000     
  0.45624999999999999       0.66874999999999996        0.0000000000000000     
  0.46250000000000002       0.71250000000000002        0.0000000000000000     
  0.41875000000000001       0.70625000000000004        0.0000000000000000     
  0.31250000000000000       0.50000000000000000        0.0000000000000000     
  0.37500000000000000       0.50000000000000000        0.0000000000000000     
  0.37500000000000000       0.56250000000000000        0.0000000000000000     
  0.28749999999999998       0.53749999999999998        0.0000000000000000     
  0.33124999999999999       0.54374999999999996        0.0000000000000000     
  0.33750000000000002       0.58750000000000002        0.0000000000000000     
  0.29375000000000001       0.58125000000000004        0.0000000000000000     
  0.43750000000000000       0.50000000000000000        0.0000000000000000     
  0.50000000000000000       0.50000000000000000        0.0000000000000000     
  0.50000000000000000       0.56250000000000000        0.0000000000000000     
  0.41249999999999998       0.53749999999999998        0.0000000000000000     
  0.45624999999999999       0.54374999999999996        0.0000000000000000     
  0.46250000000000002       0.58750000000000002        0.0000000000000000     
  0.41875000000000001       0.58125000000000004        0.0000000000000000     
  0.56250000000000000       0.87500000000000000        0.0000000000000000     
  0.62500000000000000       0.87500000000000000        0.0000000000000000     
  0.62500000000000000       0.93750000000000000        0.0000000000000000     
  0.53749999999999998       0.91249999999999998        0.0000000000000000     
  0.58125000000000004       0.91874999999999996        0.0000000000000000     
  0.58750000000000002       0.96250000000000002        0.0000000000000000     
  0.54374999999999996       0.95625000000000004        0.0000000000000000     
  0.68750000000000000       0.87500000000000000        0.0000000000000000     
  0.75000000000000000       0.87500000000000000        0.0000000000000000     
  0.75000000000000000       0.93750000000000000        0.0000000000000000     
  0.66249999999999998       0.91249999999999998        0.0000000000000000     
  0.70625000000000004       0.91874999999999996        0.0000000000000000     
  0.71250000000000002       0.96250000000000002        0.0000000000000000     
[...]
 CELL_DATA         896
 SCALARS VEGF float
 LOOKUP_TABLE default
    0.11697651376097765440E-05
    0.16492787439269451079E-05
    0.29488860623881044542E-05
    0.39216756626634098514E-05
    0.26393743976138230366E-05
    0.34767321710851014185E-05
    0.20627742921831805026E-05
    0.13055932318249645104E-05
    0.80605579833284123606E-06
    0.72478131856707926620E-06
    0.89588732106961438899E-06
    0.88770438671252953148E-06
    0.13108806849823081746E-05
    0.15062713687728038371E-05
    0.11142865764761987848E-04
    0.19046069654386090208E-04
    0.37569120672694824117E-04
    0.51067645951834221519E-04
    0.33356006691356457166E-04
    0.44907645788471603162E-04
    0.25487925905384503623E-04
    0.14775321433823102515E-04
    0.72247253910489254026E-05
    0.50465988317788770635E-05
    0.77828135743815982442E-05
    0.59200019377744242277E-05
    0.14516673964946464730E-04
    0.17490798549079892177E-04
    0.23425340438723735802E-05
    0.33957534967686743853E-05
    0.62438168106611854856E-05
    0.83854404187027180995E-05
    0.53092265300680669535E-05
    0.65100163036781581749E-05
    0.33791432742052051997E-05
    0.22871678173806794046E-05
    0.13002277831310691849E-05
    0.12522565965175758345E-05
    0.17076824046784387562E-05
    0.17371550577941763857E-05
    0.25851537310011128084E-05
    0.29343156520358108957E-05
    0.24371322688366276583E-04
    0.42035846605618447890E-04
    0.83531728397549088018E-04
    0.11364183246942865548E-03
    0.70374651153124896641E-04
    0.87356858474827353339E-04
    0.43540765160819734528E-04
    0.27496746331026767219E-04
    0.12522852207732475922E-04
    0.94846770521832752577E-05
    0.16299917838696468723E-04
    0.12770168764161543500E-04
    0.30851744550168758380E-04
    0.36385892308591813969E-04
    0.14819083658035433690E-03
    0.25218260341785782774E-03
    0.40207393536847697933E-03
    0.41791727077004632140E-03
    0.32204569902777785200E-03
    0.33373710019616637966E-03
    0.26529014071430880592E-03
    0.19265997217301898030E-03
    0.94122760681003840751E-04
    0.66325142764827194758E-04
    0.10671452018876502357E-03
    0.78567990178127149301E-04
    0.20484959193064957318E-03
    0.22764588563646602579E-03
    0.62283689132169677265E-03
    0.60576555218356663724E-03
    0.70163269592231304259E-03
    0.63565135650207145110E-03
    0.53692539956279262871E-03
    0.48603914595379311839E-03
    0.46065426090156913214E-03
    0.44825401936967571200E-03
    0.39490997288567423985E-03
    0.37345593468390381013E-03
    0.44901282310485677793E-03
    0.47244793759692807348E-03
    0.50972248960862783385E-03
    0.49940956317907306706E-03
    0.33179532376118671443E-03
    0.56659849827961816706E-03
    0.90923258404370093256E-03
    0.94335122895320734637E-03
    0.69009523746132235989E-03
    0.65215041356153722468E-03
    0.45528112071229642115E-03
    0.36706576208055997652E-03
    0.16742202882437401011E-03
    0.12881850359938324941E-03
    0.22970539525764448251E-03
    0.17489990614419801350E-03
    0.44418189189793791860E-03
    0.48256506178307790635E-03
    0.14110681369233885572E-02
    0.13723846432451161734E-02
    0.15979936532621414561E-02
    0.14434325096101276696E-02
    0.11583516754212861300E-02
    0.95303129183414454079E-03
    0.79302655780107958374E-03
    0.85709172727892516362E-03
    0.70118273668278157263E-03
    0.72853361021003220158E-03
    0.97011903285717062447E-03
    0.10663233860539009668E-02
    0.11144261032095792961E-02
    0.10660290106016680027E-02
    0.39628944287974962439E-05
    0.60954066310280089773E-05
    0.11111291232887456946E-04
    0.15717281733855864931E-04
    0.10453487405851445883E-04
    0.13618558817517761110E-04
    0.70974020435656239445E-05
    0.46242135768992099999E-05
    0.25864623613655216916E-05
    0.24216941336339468131E-05
    0.31873658530972773708E-05
    0.30545700971657747200E-05
    0.49021306915881785024E-05
    0.57160046333409588877E-05
    0.43828542835672491015E-04
    0.79554004674834268105E-04
    0.15503177120137923302E-03
    0.22103055343869503543E-03
    0.14432212731385548081E-03
    0.18890701471216362890E-03
    0.95760557573397965992E-04
    0.59042771136019305813E-04
    0.27092600203365782297E-04
    0.19965699236553267833E-04
    0.32761508432618930103E-04
    0.24021184889401836038E-04
    0.62076365137020303410E-04
    0.74865849534078184719E-04
    0.48478571563832500172E-05
    0.79233357256481300364E-05
    0.14079000085448810993E-04
    0.21183504310841622407E-04
    0.15355599585378811419E-04
    0.21952963748110913801E-04
    0.11981201770220600432E-04
    0.73626335107270882513E-05
    0.41826583193276525572E-05
    0.37165421493074570972E-05
    0.45114104235849024303E-05
    0.39751101241277903231E-05
    0.69547502897620834626E-05
    0.84017940043130545110E-05
    0.55307533535068045187E-04
    0.10728997571140653589E-03
    0.20326874274024966764E-03
    0.31073091396155986437E-03
    0.22080596673610853480E-03
    0.31622144709100228873E-03
    0.16849699024436813350E-03
    0.98494853927927469503E-04
    0.46449304874638598271E-04
    0.32383068652653248978E-04
    0.48625889506260480850E-04
    0.32413558256771806429E-04
    0.91968386194763246063E-04
    0.11496365189949394410E-03
    0.61452480897261640719E-03
    0.10961583076906438686E-02
    0.17211834887339207828E-02
    0.18593128782534115197E-02
    0.14350149851822097645E-02
    0.14290837280020688305E-02
    0.10189638636498375267E-02
    0.79943108746834720506E-03
    0.37032541219909350478E-03
    0.27860407482324807925E-03
    0.47318208113753966373E-03
    0.33987724983324912572E-03
    0.90931821311703508407E-03
    0.10085187690193635115E-02
    0.26368049441238476487E-02
    0.26687791382421863912E-02
    0.30120515879135316244E-02
    0.28380118326519509532E-02
    0.24170977633437683990E-02
    0.20946692717299475288E-02
    0.17873346488232603243E-02
    0.18885744771385676571E-02
    0.15720964881049850730E-02
    0.15983414029966708410E-02
    0.20180845191249642198E-02
    0.20992887410467005009E-02
    0.23024382911556542410E-02
    0.22458149043630640934E-02
    0.81089387450731815338E-03
    0.15627485241182131111E-02
    0.24218480378070286578E-02
    0.28472596728380799441E-02
    0.23223439590946259176E-02
    0.24776351365089397359E-02
    0.18501987564383899545E-02
    0.13669396454596396875E-02
    0.65451279576021770008E-03
    0.46832255962991626696E-03
    0.73381725979618239470E-03
    0.47961583529757852292E-03
    0.14010557941136539666E-02
    0.16132719521527814216E-02
    0.37718193086481010406E-02
    0.38661153887923913400E-02
    0.40335652050697496165E-02
    0.40076149499419259567E-02
    0.37550098584376548523E-02
    0.35352847732780779376E-02
    0.32191157036602913166E-02
    0.32532278587180129582E-02
    0.28276385625459615758E-02
    0.27787732190641509407E-02
    0.32861372905450473951E-02
    0.32462601497647148967E-02
    0.36118953621049804982E-02
    0.35885974475459033427E-02
    0.73154492788113736380E-03
    0.60879309305797500544E-03
    0.59622317541108940837E-03
    0.48779279459772401182E-03
    0.44416499530656040721E-03
    0.36052150198058176235E-03
    0.39189691116797882586E-03
    0.44501998086889083244E-03
    0.46336853583716551769E-03
    0.48539042500842915226E-03
    0.54153417719223851182E-03
    0.63668645432027066305E-03
    0.52360393077138984736E-03
    0.48526260038536569432E-03
    0.41860618933538111010E-03
    0.26012143986079810628E-03
    0.14207758803058429670E-03
    0.86246016714961568788E-04
    0.10478520477154747690E-03
    0.60720930465636439237E-04
    0.96210212668254834747E-04
    0.18733840134077991957E-03
    0.26745882288534893146E-03
    0.32017884253707397249E-03
    0.32425510246479746172E-03
    0.43498524141370628312E-03
    0.23838452235496355048E-03
    0.19552326818187269644E-03
    0.16613847836423813620E-02
    0.13785555237999917201E-02
    0.13543085187854850878E-02
    0.11026011642062908541E-02
    0.95507711207604292173E-03
    0.70248771143686104031E-03
    0.67234949914289133567E-03
    0.85043160069619928767E-03
    0.82518557776161207979E-03
    0.95131314783686597627E-03
    0.11729178793972968361E-02
    0.14447935592086440064E-02
    0.11448921659522638683E-02
    0.10349463041350844342E-02
    0.94373796048094775370E-03
    0.58212288445204851337E-03
    0.31832831232960786096E-03
    0.19177705541706087725E-03
    0.22214758927278777773E-03
    0.11633590355511141761E-03
    0.16321795462329564768E-03
    0.35469322988834067756E-03
    0.47325614168476745798E-03
    0.62402725514858409846E-03
    0.69632153049294998656E-03
    0.98198424389541578115E-03
    0.51552119721534985820E-03
    0.41216125277934929135E-03
    0.38922059372097534162E-04
    0.19825777410414930090E-04
    0.10651226007501777852E-04
    0.64660485846856872124E-05
    0.76101106648972415954E-05
    0.45609956982973436074E-05
    0.72276257561580215059E-05
    0.13988960312607741319E-04
    0.25268264931215436817E-04
    0.39652473316472603316E-04
    0.33802864808938801969E-04
    0.58020449209737980274E-04
    0.18299238748377491683E-04
    0.13818456023641068579E-04
    0.30295355461409021818E-05
    0.16906783233684226984E-05
    0.11174837198182529010E-05
    0.88976800904529004101E-06
    0.87377279609791023204E-06
    0.70546811610054940023E-06
    0.79881511093882744150E-06
    0.12377432791777233950E-05
    0.20180685173057033342E-05
    0.30479544821278601844E-05
    0.26517911893135600323E-05
    0.44128440458321589656E-05
    0.15575620300678706697E-05
    0.12442459821641986313E-05
    0.86280516496639247871E-04
    0.43583936124465291035E-04
    0.23319118133653048516E-04
    0.13969791224053308010E-04
    0.15733373078859933219E-04
    0.85005926678899776828E-05
    0.12071592222263357493E-04
    0.25910079932117559655E-04
    0.44459587595547125189E-04
    0.76325926791869443708E-04
    0.71462356149060412549E-04
    0.12902572065700982154E-03
    0.38867302017864458668E-04
    0.28567275975259002183E-04
    0.64046509767935249233E-05
    0.34779220892589961639E-05
    0.22391951379820734264E-05
    0.17439088222173376081E-05
    0.16484466777510748978E-05
    0.12092645644364845506E-05
    0.12472380075095945161E-05
    0.21637806708958833611E-05
    0.34202085076208200229E-05
    0.56692773042229491513E-05
    0.53633472719423563611E-05
    0.94679207474957315349E-05
    0.31023397512554026899E-05
    0.23961155825593117430E-05
    0.30820466515508290924E-02
    0.26791641984657537517E-02
    0.25674044084551266194E-02
    0.21737636237606286493E-02
    0.19947906169877969822E-02
    0.15389778692100641345E-02
    0.15122988347648896185E-02
    0.18750812210594710889E-02
    0.18540125556865446731E-02
    0.20923074593479206590E-02
    0.24390405596853045704E-02
    0.28391397667266293076E-02
    0.23651729546779790524E-02
    0.21806475470580459659E-02
    0.17603850690351497202E-02
    0.11241470215756243535E-02
    0.59653662364447378619E-03
    0.37355127508074964385E-03
    0.46147839320798329267E-03
    0.25154560086600668114E-03
    0.36224170257638901079E-03
    0.77473537675956194535E-03
    0.10561300585655271703E-02
    0.13669695446639690880E-02
    0.14439367092767823198E-02
    0.19365461294060157781E-02
    0.10581777260424238708E-02
    0.86064111252929739217E-03
    0.40360861207939750100E-02
    0.38859459883717620624E-02
    0.37754033808473940782E-02
    0.33905697258409294229E-02
    0.32641104197115144298E-02
    0.26700148564428177744E-02
    0.27539641317887155955E-02
    0.32416487591330122794E-02
    0.32932806085184409238E-02
    0.35348454771027991092E-02
    0.37759130792541888144E-02
    0.40071281542998337527E-02
    0.36845179863598466648E-02
    0.35143661995466757286E-02
    0.24204169864906841664E-02
    0.16020779049447310578E-02
    0.80244883758276029564E-03
    0.52949057822104176729E-03
    0.72507768844733686865E-03
    0.42296336899065139743E-03
    0.64757449836746116753E-03
    0.13259449891143966320E-02
    0.18936395256977354724E-02
    0.23671510324529743997E-02
    0.23357006060023841401E-02
    0.29937782741317094104E-02
    0.16516066241248569552E-02
    0.13673068794606280107E-02
    0.15829327354122477026E-03
    0.82626085720028492280E-04
    0.42624534445776510920E-04
    0.26441770571132733358E-04
    0.31919372397188881829E-04
    0.17876854102320911610E-04
    0.26224332689669780397E-04
    0.55833488744874994170E-04
    0.97529268865631887258E-04
    0.16490328593935538073E-03
    0.14595442450828936603E-03
    0.25163145913411060373E-03
    0.78510537413411751154E-04
    0.58699109796835748445E-04
    0.11302302996853065987E-04
    0.62756418076097945122E-05
    0.38565412661143873811E-05
    0.30895170359135465118E-05
    0.31050457187461025716E-05
    0.23395357568622675835E-05
    0.24902468000889755573E-05
    0.43844284592978132983E-05
    0.71701716603902988938E-05
    0.11829039398299719785E-04
    0.10534515800596349556E-04
    0.17871715853777394282E-04
    0.59505031690198603692E-05
    0.46392672415300722203E-05
    0.20447095612172150846E-03
    0.11194480288764388574E-03
    0.54964966340989769057E-04
    0.35923851934846935945E-04
    0.48146926184315517105E-04
    0.29070570988420710437E-04
    0.45715958436826491002E-04
    0.93712751933082313839E-04
    0.16990418507391928898E-03
    0.27585789636947290800E-03
    0.22189164694105765747E-03
    0.35562221615045576080E-03
    0.11708027670380203959E-03
    0.90051044776753887675E-04
    0.14176297343394617730E-04
    0.82212337141931517398E-05
    0.48277909683975896667E-05
    0.40557813194673096504E-05
    0.44680053841026539166E-05
    0.36104087558823189415E-05
    0.41013814186794207557E-05
    0.70331532538810612233E-05
    0.12015787318364824882E-04
    0.19090337953319610863E-04
    0.15403039961516593710E-04
    0.24258789168843745005E-04
    0.85251486899559679802E-05
    0.68183399625864901872E-05
    0.41030810161914772020E-05
    0.70336327348301560635E-05
    0.12015215012678818554E-04
    0.19089978669202105230E-04
    0.15402866539865229129E-04
    0.24258900949926300722E-04
    0.14175820424889212912E-04
    0.82217850838336786149E-05
    0.48295815453150180827E-05
    0.40581747250615090602E-05
    0.44698596878852232876E-05
    0.36127003959811568034E-05
    0.68190637260839329049E-05
    0.85255570504540198278E-05
    0.45716687572759308236E-04
    0.93712636982837258285E-04
    0.16990320409746861060E-03
    0.27585712312663997203E-03
    0.22189106058168408565E-03
    0.35562191256345517020E-03
    0.20447007989801875560E-03
    0.11194479620338525683E-03
    0.54965794448757613374E-04
    0.35924422197662061540E-04
    0.48147358184797697453E-04
    0.29070667644528574948E-04
    0.90051073902292104781E-04
    0.11708013180386591431E-03
    0.24919283477402151440E-05
    0.43848951789273310565E-05
    0.71695800551354703226E-05
    0.11828665663991143312E-04
    0.10534335116463903846E-04
    0.17871822804653755129E-04
    0.11301823839218687516E-04
    0.62761903210975350826E-05
    0.38583299700650631987E-05
    0.30919077632835742316E-05
    0.31068944157157225355E-05
    0.23418174004080502675E-05
    0.46399844501792166776E-05
    0.59509061349040845074E-05
    0.26225025201955475923E-04
    0.55833338096521400128E-04
    0.97528222654160386692E-04
    0.16490243830992801287E-03
    0.14595379813119060378E-03
    0.25163111011067002942E-03
    0.15829238139257581410E-03
    0.82626066386299172628E-04
    0.42625356085225419211E-04
    0.26442334574917631795E-04
    0.31919791218356970022E-04
    0.17876933112599489834E-04
    0.58699118191567198409E-04
    0.78510371393695073091E-04
    0.64757443628031595515E-03
    0.13259428639842267030E-02
    0.18936353097723825079E-02
    0.23671484145995694282E-02
    0.23356982074278598120E-02
    0.29937766825849235555E-02
    0.24204128513969553650E-02
    0.16020758275384003322E-02
    0.80244897041427626447E-03
    0.52949064734791179403E-03
    0.72507736932024709729E-03
    0.42296295626049129016E-03
    0.13673053582368879365E-02
    0.16516047184256146645E-02
    0.27539658316661701047E-02
    0.32416481082768386357E-02
    0.32932775668999300471E-02
    0.35348439442454472094E-02
    0.37759118243622011822E-02
    0.40071278048394633892E-02
    0.40360832426093980543E-02
    0.38859453706504335467E-02
    0.37754049921151534852E-02
    0.33905698933302478443E-02
    0.32641104462470941529E-02
    0.26700140440788500129E-02
    0.35143657277361540874E-02
    0.36845172423743848857E-02
    0.36224136965736528169E-03
    0.77473299623617263975E-03
    0.10561253796115722004E-02
    0.13669665624637401379E-02
    0.14439341809448778039E-02
    0.19365445938185005606E-02
    0.17603809680654858207E-02
    0.11241449392297353169E-02
    0.59653665048007111556E-03
    0.37355127155621177743E-03
    0.46147797705695580914E-03
    0.25154507134798409843E-03
    0.86063944918642867801E-03
    0.10581757154431599682E-02
    0.15122997509712380378E-02
    0.18750799827353826360E-02
    0.18540087218705733878E-02
    0.20923053042476258238E-02
    0.24390389609565037501E-02
    0.28391391804774650763E-02
    0.30820437063062947232E-02
    0.26791635880200909831E-02
    0.25674062245592496091E-02
    0.21737638872129155451E-02
    0.19947904674232764914E-02
    0.15389766413133124101E-02
    0.21806467976700372874E-02
    0.23651719919074399787E-02
    0.12486468245381079819E-05
    0.21640452924440988714E-05
    0.34192981165475419700E-05
    0.56686864215670616785E-05
    0.53630596948777760713E-05
    0.94679687769633213041E-05
    0.64041415504878498654E-05
    0.34784282411294637698E-05
    0.22409566852127392227E-05
    0.17462593383530172880E-05
    0.16502097343972028054E-05
    0.12113947411790795362E-05
    0.23967310218041405153E-05
    0.31026602530609517318E-05
    0.12071802654133738746E-04
    0.25909570481026691745E-04
    0.44457981630788405436E-04
    0.76324586237834382649E-04
    0.71461471317930144818E-04
    0.12902515358567497234E-03
    0.86279529940425423286E-04
    0.43583822680149351698E-04
    0.23319887720960086905E-04
    0.13970289260152155385E-04
    0.15733646182464256679E-04
    0.85004302335726246019E-05
    0.28567093926720113354E-04
    0.38866966892246494704E-04
    0.79847406749326858977E-06
    0.12365583555021223668E-05
    0.20156163649815069299E-05
    0.30455648496382710658E-05
    0.26501037609769092776E-05
    0.44118579229538367018E-05
    0.30285145319819951307E-05
    0.16905573467656333189E-05
    0.11188375894678322523E-05
    0.89151047373808379990E-06
    0.87428263913001665411E-06
    0.70559520724732837565E-06
    0.12436846723067808648E-05
    0.15567760416155370227E-05
    0.72247411891385278566E-05
    0.13986027139229040132E-04
    0.25264543893245878397E-04
    0.39648690493901656928E-04
    0.33800036664223321898E-04
    0.58018281146403452618E-04
    0.38920248449708065715E-04
    0.19824657700371722509E-04
    0.10651263490588812731E-04
    0.64654103786145996133E-05
    0.76083188992298268402E-05
    0.45586003081498516914E-05
    0.13816291855921150830E-04
    0.18297170646023612261E-04
    0.16321625544223002146E-03
    0.35468908344031958683E-03
    0.47324854685707872393E-03
    0.62402169699280266024E-03
    0.69631742524972552351E-03
    0.98198155578156491076E-03
    0.94373320378088841609E-03
    0.58212011705374049671E-03
    0.31832798950067023357E-03
    0.19177674443211436975E-03
    0.22214654503833252482E-03
    0.11633471232729269279E-03
    0.41215845372743413044E-03
    0.51551807254812383272E-03
    0.67234610197461526504E-03
    0.85042679233655329388E-03
    0.82517739075044314184E-03
    0.95130747875239230794E-03
    0.11729139182833654004E-02
    0.14447913870830283480E-02
    0.16613807723524299034E-02
    0.13785535167991779144E-02
    0.13543092909003016152E-02
    0.11026001581089515165E-02
    0.95507485092498215287E-03
    0.70248363086762685877E-03
    0.10349431409494614948E-02