# vtk DataFile Version 3.0
LAPLACIEN  2D
ASCII
DATASET UNSTRUCTURED_GRID
 POINTS         481  float
   6.2500000000000000E-002  0.87500000000000000        0.0000000000000000     
  0.12500000000000000       0.87500000000000000        0.0000000000000000     
  0.12500000000000000       0.93750000000000000        0.0000000000000000     
   3.7499999999999999E-002  0.91249999999999998        0.0000000000000000     
   8.1250000000000003E-002  0.91874999999999996        0.0000000000000000     
   8.7499999999999994E-002  0.96250000000000002        0.0000000000000000     
   4.3749999999999997E-002  0.95625000000000004        0.0000000000000000     
  0.18750000000000000       0.87500000000000000        0.0000000000000000     
  0.25000000000000000       0.87500000000000000        0.0000000000000000     
  0.25000000000000000       0.93750000000000000        0.0000000000000000     
  0.16250000000000001       0.91249999999999998        0.0000000000000000     
  0.20624999999999999       0.91874999999999996        0.0000000000000000     
  0.21249999999999999       0.96250000000000002        0.0000000000000000     
  0.16875000000000001       0.95625000000000004        0.0000000000000000     
   6.2500000000000000E-002  0.75000000000000000        0.0000000000000000     
  0.12500000000000000       0.75000000000000000        0.0000000000000000     
  0.12500000000000000       0.81250000000000000        0.0000000000000000     
   3.7499999999999999E-002  0.78749999999999998        0.0000000000000000     
   8.1250000000000003E-002  0.79374999999999996        0.0000000000000000     
   8.7499999999999994E-002  0.83750000000000002        0.0000000000000000     
   4.3749999999999997E-002  0.83125000000000004        0.0000000000000000     
  0.18750000000000000       0.75000000000000000        0.0000000000000000     
  0.25000000000000000       0.75000000000000000        0.0000000000000000     
  0.25000000000000000       0.81250000000000000        0.0000000000000000     
  0.16250000000000001       0.78749999999999998        0.0000000000000000     
  0.20624999999999999       0.79374999999999996        0.0000000000000000     
  0.21249999999999999       0.83750000000000002        0.0000000000000000     
  0.16875000000000001       0.83125000000000004        0.0000000000000000     
  0.31250000000000000       0.87500000000000000        0.0000000000000000     
  0.37500000000000000       0.87500000000000000        0.0000000000000000     
  0.37500000000000000       0.93750000000000000        0.0000000000000000     
  0.28749999999999998       0.91249999999999998        0.0000000000000000     
  0.33124999999999999       0.91874999999999996        0.0000000000000000     
  0.33750000000000002       0.96250000000000002        0.0000000000000000     
  0.29375000000000001       0.95625000000000004        0.0000000000000000     
  0.43750000000000000       0.87500000000000000        0.0000000000000000     
  0.50000000000000000       0.87500000000000000        0.0000000000000000     
  0.50000000000000000       0.93750000000000000        0.0000000000000000     
  0.41249999999999998       0.91249999999999998        0.0000000000000000     
  0.45624999999999999       0.91874999999999996        0.0000000000000000     
  0.46250000000000002       0.96250000000000002        0.0000000000000000     
  0.41875000000000001       0.95625000000000004        0.0000000000000000     
  0.31250000000000000       0.75000000000000000        0.0000000000000000     
  0.37500000000000000       0.75000000000000000        0.0000000000000000     
  0.37500000000000000       0.81250000000000000        0.0000000000000000     
  0.28749999999999998       0.78749999999999998        0.0000000000000000     
  0.33124999999999999       0.79374999999999996        0.0000000000000000     
  0.33750000000000002       0.83750000000000002        0.0000000000000000     
  0.29375000000000001       0.83125000000000004        0.0000000000000000     
  0.43750000000000000       0.75000000000000000        0.0000000000000000     
  0.50000000000000000       0.75000000000000000        0.0000000000000000     
  0.50000000000000000       0.81250000000000000        0.0000000000000000     
  0.41249999999999998       0.78749999999999998        0.0000000000000000     
  0.45624999999999999       0.79374999999999996        0.0000000000000000     
  0.46250000000000002       0.83750000000000002        0.0000000000000000     
  0.41875000000000001       0.83125000000000004        0.0000000000000000     
   6.2500000000000000E-002  0.62500000000000000        0.0000000000000000     
  0.12500000000000000       0.62500000000000000        0.0000000000000000     
  0.12500000000000000       0.68750000000000000        0.0000000000000000     
   3.7499999999999999E-002  0.66249999999999998        0.0000000000000000     
   8.1250000000000003E-002  0.66874999999999996        0.0000000000000000     
   8.7499999999999994E-002  0.71250000000000002        0.0000000000000000     
   4.3749999999999997E-002  0.70625000000000004        0.0000000000000000     
  0.18750000000000000       0.62500000000000000        0.0000000000000000     
  0.25000000000000000       0.62500000000000000        0.0000000000000000     
  0.25000000000000000       0.68750000000000000        0.0000000000000000     
  0.16250000000000001       0.66249999999999998        0.0000000000000000     
  0.20624999999999999       0.66874999999999996        0.0000000000000000     
  0.21249999999999999       0.71250000000000002        0.0000000000000000     
  0.16875000000000001       0.70625000000000004        0.0000000000000000     
   6.2500000000000000E-002  0.50000000000000000        0.0000000000000000     
  0.12500000000000000       0.50000000000000000        0.0000000000000000     
  0.12500000000000000       0.56250000000000000        0.0000000000000000     
   3.7499999999999999E-002  0.53749999999999998        0.0000000000000000     
   8.1250000000000003E-002  0.54374999999999996        0.0000000000000000     
   8.7499999999999994E-002  0.58750000000000002        0.0000000000000000     
   4.3749999999999997E-002  0.58125000000000004        0.0000000000000000     
  0.18750000000000000       0.50000000000000000        0.0000000000000000     
  0.25000000000000000       0.50000000000000000        0.0000000000000000     
  0.25000000000000000       0.56250000000000000        0.0000000000000000     
  0.16250000000000001       0.53749999999999998        0.0000000000000000     
  0.20624999999999999       0.54374999999999996        0.0000000000000000     
  0.21249999999999999       0.58750000000000002        0.0000000000000000     
  0.16875000000000001       0.58125000000000004        0.0000000000000000     
  0.31250000000000000       0.62500000000000000        0.0000000000000000     
  0.37500000000000000       0.62500000000000000        0.0000000000000000     
  0.37500000000000000       0.68750000000000000        0.0000000000000000     
  0.28749999999999998       0.66249999999999998        0.0000000000000000     
  0.33124999999999999       0.66874999999999996        0.0000000000000000     
  0.33750000000000002       0.71250000000000002        0.0000000000000000     
  0.29375000000000001       0.70625000000000004        0.0000000000000000     
  0.43750000000000000       0.62500000000000000        0.0000000000000000     
  0.50000000000000000       0.62500000000000000        0.0000000000000000     
  0.50000000000000000       0.68750000000000000        0.0000000000000000     
  0.41249999999999998       0.66249999999999998        0.0000000000000000     
  0.45624999999999999       0.66874999999999996        0.0000000000000000     
  0.46250000000000002       0.71250000000000002        0.0000000000000000     
  0.41875000000000001       0.70625000000000004        0.0000000000000000     
  0.31250000000000000       0.50000000000000000        0.0000000000000000     
  0.37500000000000000       0.50000000000000000        0.0000000000000000     
  0.37500000000000000       0.56250000000000000        0.0000000000000000     
  0.28749999999999998       0.53749999999999998        0.0000000000000000     
  0.33124999999999999       0.54374999999999996        0.0000000000000000     
  0.33750000000000002       0.58750000000000002        0.0000000000000000     
  0.29375000000000001       0.58125000000000004        0.0000000000000000     
  0.43750000000000000       0.50000000000000000        0.0000000000000000     
  0.50000000000000000       0.50000000000000000        0.0000000000000000     
  0.50000000000000000       0.56250000000000000        0.0000000000000000     
  0.41249999999999998       0.53749999999999998        0.0000000000000000     
  0.45624999999999999       0.54374999999999996        0.0000000000000000     
  0.46250000000000002       0.58750000000000002        0.0000000000000000     
  0.41875000000000001       0.58125000000000004        0.0000000000000000     
  0.56250000000000000       0.87500000000000000        0.0000000000000000     
  0.62500000000000000       0.87500000000000000        0.0000000000000000     
  0.62500000000000000       0.93750000000000000        0.0000000000000000     
  0.53749999999999998       0.91249999999999998        0.0000000000000000     
  0.58125000000000004       0.91874999999999996        0.0000000000000000     
  0.58750000000000002       0.96250000000000002        0.0000000000000000     
  0.54374999999999996       0.95625000000000004        0.0000000000000000     
  0.68750000000000000       0.87500000000000000        0.0000000000000000     
  0.75000000000000000       0.87500000000000000        0.0000000000000000     
  0.75000000000000000       0.93750000000000000        0.0000000000000000     
  0.66249999999999998       0.91249999999999998        0.0000000000000000     
  0.70625000000000004       0.91874999999999996        0.0000000000000000     
  0.71250000000000002       0.96250000000000002        0.0000000000000000     
[...]
 CELL_DATA         896
 SCALARS VEGF float
 LOOKUP_TABLE default
    0.25504668807332245470E-06
    0.38602516627595402745E-06
    0.67740058865299059615E-06
    0.95369162047366988891E-06
    0.68686413902995042667E-06
    0.96507271601236710871E-06
    0.57236640250941779778E-06
    0.34860408295504496971E-06
    0.20615164642025837956E-06
    0.18020653077420728717E-06
    0.21857764699461279453E-06
    0.20252464558251488566E-06
    0.32888874367421564259E-06
    0.38929178784889047499E-06
    0.25309718039655784777E-05
    0.45850777617514466066E-05
    0.87468412172111379560E-05
    0.12649443912328584846E-04
    0.89387664878229983396E-05
    0.12868564187376011184E-04
    0.74009546312305888563E-05
    0.42019530582761051442E-05
    0.20641141239163015539E-05
    0.14077797879042933724E-05
    0.20513527594730147611E-05
    0.14372533817422017853E-05
    0.38130706123278035312E-05
    0.47248905917467431135E-05
    0.38521839160046016512E-06
    0.58325776073747862926E-06
    0.10518295577880472639E-05
    0.14594578105209610668E-05
    0.99366107017435530881E-06
    0.13185924039143418237E-05
    0.72837834188346116616E-06
    0.46715444410720215544E-06
    0.27003360082526094414E-06
    0.24704807231461643818E-06
    0.31366112962518414934E-06
    0.29757042776768729229E-06
    0.47601441514873386360E-06
    0.55554800854918608864E-06
    0.40488096881808818567E-05
    0.71823520109791288220E-05
    0.13961630164357294613E-04
    0.19616179970640712119E-04
    0.13078720231938072092E-04
    0.17647891031929075943E-04
    0.94336214243905656030E-05
    0.56427683383561465661E-05
    0.26803346786020136282E-05
    0.19215478574777049891E-05
    0.30156436881492515007E-05
    0.22149051705902473665E-05
    0.56515159753288292507E-05
    0.68479539698690521085E-05
    0.33947732639414405532E-04
    0.61674946104249000621E-04
    0.93942507924466242563E-04
    0.10384205311317756544E-03
    0.87184309932691935060E-04
    0.96690609152399621521E-04
    0.78340480099063611904E-04
    0.55741056440158550376E-04
    0.27520343074542052742E-04
    0.19001864323436213911E-04
    0.28789651263890054346E-04
    0.19398273005563793244E-04
    0.55030847604482681227E-04
    0.62724778650660311134E-04
    0.14199866598413679402E-03
    0.14778913328347017511E-03
    0.16370803637291887625E-03
    0.15795849259782169887E-03
    0.14589337457333458286E-03
    0.14119699004874405879E-03
    0.13675749794960645337E-03
    0.13058896777706362376E-03
    0.11671151666865404203E-03
    0.10827337184482348535E-03
    0.12141332968800822836E-03
    0.11707195759409087311E-03
    0.13687673549828865190E-03
    0.13792340258767825573E-03
    0.54533291961086418633E-04
    0.95961617949865511148E-04
    0.14950344893173965087E-03
    0.16058560285493628131E-03
    0.12719605969912061295E-03
    0.13170425521200028051E-03
    0.99622715821506997984E-04
    0.75050872169202956035E-04
    0.35889221326020927499E-04
    0.26029979356834318866E-04
    0.42319513396113842257E-04
    0.30094059856806164093E-04
    0.81084255912601505912E-04
    0.90533252039292711269E-04
    0.22699055281056687463E-03
    0.22915302590611490619E-03
    0.25821651410208004869E-03
    0.24280896899948726814E-03
    0.21200806259686477825E-03
    0.19177350041532268635E-03
    0.17337015102592541016E-03
    0.17511351876201030654E-03
    0.15050578002350119017E-03
    0.14719694234490947999E-03
    0.17749446946604304485E-03
    0.18092564739685931320E-03
    0.20146490512237203905E-03
    0.19857539076584648135E-03
    0.58195895314136383493E-06
    0.92187750751971321441E-06
    0.17023400480684277661E-05
    0.24319707570332607386E-05
    0.16276206910657694390E-05
    0.21627083158616830672E-05
    0.11567740476342492358E-05
    0.73545580941630196321E-06
    0.41301448232797684469E-06
    0.37627690171237266828E-06
    0.48283880507471381891E-06
    0.44932398611207893248E-06
    0.75116072547728828945E-06
    0.88601861084521407880E-06
    0.69876799335689291365E-05
    0.12733395685779519597E-04
    0.25328736206682841221E-04
    0.35497085829172473194E-04
    0.22847284970825288011E-04
    0.29861712719021994884E-04
    0.15513105407674663004E-04
    0.94361526936449365927E-05
    0.43869717953354292369E-05
    0.31778950261764598898E-05
    0.51401927558535360561E-05
    0.37551414577730600631E-05
    0.97883515724881123076E-05
    0.11810691944981747454E-04
    0.70816528884604236992E-06
    0.12048164329982435606E-05
    0.22155200111247595515E-05
    0.34233055684143250908E-05
    0.24141519107306306571E-05
    0.34796137593037410832E-05
    0.18462031737918802733E-05
    0.11116499487475330473E-05
    0.61227489000793936527E-06
    0.53646204193853941828E-06
    0.65884314456245545848E-06
    0.57093297007614949763E-06
    0.10474367813953223837E-05
    0.12806430852735355050E-05
    0.95537405939870693881E-05
    0.19395393827664988198E-04
    0.38598737981415606757E-04
    0.61132301380271633628E-04
    0.40616750689800244344E-04
    0.56841259530931013987E-04
    0.28536949149452677053E-04
    0.16634346906868181483E-04
    0.75241489857425182037E-05
    0.52211829660042414353E-05
    0.81892535076755677522E-05
    0.53847969407994957715E-05
    0.16072875059047606787E-04
    0.20224548002841514881E-04
    0.10355912243839083577E-03
    0.17652080412628611732E-03
    0.28443995996529171160E-03
    0.29268494913377562103E-03
    0.22253963343604326068E-03
    0.22118201321111405789E-03
    0.16262215914526761832E-03
    0.12546266592025560990E-03
    0.59210825690212082282E-04
    0.44035547193627351591E-04
    0.74361084274567293309E-04
    0.54992134603577901930E-04
    0.14215962866394953024E-03
    0.15684912309180278457E-03
    0.42194546667416725928E-03
    0.40253783768945134575E-03
    0.44596028714581419875E-03
    0.41380919247344636908E-03
    0.35601123452145048108E-03
    0.31520690477124751029E-03
    0.27918970874895112939E-03
    0.28848442121147150220E-03
    0.24587298362906942397E-03
    0.24632626773498842148E-03
    0.30653268113884935562E-03
    0.32728126706300182582E-03
    0.34447130885446110597E-03
    0.33503564658457539796E-03
    0.17779640910597620403E-03
    0.36177079886327059280E-03
    0.59123045075075474422E-03
    0.67648993951360922479E-03
    0.50483450189821364815E-03
    0.46672273459185471996E-03
    0.32358472739543714782E-03
    0.25537994095435341112E-03
    0.11585429943607736605E-03
    0.85847965921293761912E-04
    0.14967262943336583384E-03
    0.98285502150811924105E-04
    0.29716899203304576911E-03
    0.33815899112925719514E-03
    0.84145726539769317900E-03
    0.75400018582000684700E-03
    0.69002825208227722663E-03
    0.65557446933520342747E-03
    0.60654014461933986307E-03
    0.54011433092774057286E-03
    0.48599618723870293595E-03
    0.52955709182557876916E-03
    0.47279634983595300330E-03
    0.51244673370330281765E-03
    0.66330609937465152826E-03
    0.74757199439363453478E-03
    0.66824749271036107748E-03
    0.62251685423140256086E-03
    0.16688342849959674798E-03
    0.14868411745724824770E-03
    0.13937941297767147768E-03
    0.12141755210442589088E-03
    0.12108272672313188467E-03
    0.10469046305610691565E-03
    0.11643268302885114254E-03
    0.12993880533017807487E-03
    0.13733617589351375800E-03
    0.14114454436479632513E-03
    0.14648009899174656962E-03
    0.15811362263306130184E-03
    0.14076790456192341439E-03
    0.13428493128898354235E-03
    0.95868177070500810544E-04
    0.63642878734370030014E-04
    0.33222839096828025681E-04
    0.21434701174834792654E-04
    0.28747479774428154136E-04
    0.17524250525526065134E-04
    0.28436959594464981678E-04
    0.54647323681555361446E-04
    0.79143217506031182207E-04
    0.93063375971119376693E-04
    0.87714916059104637504E-04
    0.10842294639154317622E-03
    0.64212018292496574100E-04
    0.54232927075402135328E-04
    0.26499394131232598040E-03
    0.23024613315971044882E-03
    0.22071230569759735978E-03
    0.18728821594864766267E-03
    0.17604174200786939044E-03
    0.14210313944646645002E-03
    0.14748664063791343606E-03
    0.17409170965547896373E-03
    0.17695633610921015708E-03
    0.19157869364539467736E-03
    0.21359743446747232894E-03
    0.24301809047617189334E-03
    0.20696411321895465747E-03
    0.19318969849231400660E-03
    0.15350267561561336291E-03
    0.98656255187807692024E-04
    0.52777297152782577314E-04
    0.33060588593612466981E-04
    0.41570572936473983345E-04
    0.23619709498351429449E-04
    0.35681171514564852016E-04
    0.72949481570891842636E-04
    0.10186709181843583549E-03
    0.12636314528551741815E-03
    0.12800899302104547673E-03
    0.16728237404469209937E-03
    0.94260047868409914851E-04
    0.77736168976450550861E-04
    0.89592988274815805913E-05
    0.48077927703657477444E-05
    0.24804856259963327318E-05
    0.15879662213182676016E-05
    0.20444222007973014447E-05
    0.12833228065386782202E-05
    0.20947278356998600185E-05
    0.40256484576439423591E-05
    0.73809993124211204063E-05
    0.11434140601295006895E-04
    0.90575020240894016062E-05
    0.14472034027751944576E-04
    0.48501970111609566061E-05
    0.37558451662590466497E-05
    0.69227474642972723865E-06
    0.40004616372060739365E-06
    0.24862900338254337907E-06
    0.20426395804308246646E-06
    0.21592129093060120271E-06
    0.17670808307298838552E-06
    0.20744365061041817341E-06
    0.33356192869529444226E-06
    0.56399111323647928768E-06
    0.85129164868165579028E-06
    0.69260310563600928171E-06
    0.10861493596233002841E-05
    0.39811629345915418745E-06
    0.32093054784626937498E-06
    0.14326443559065387448E-04
    0.74778306326218500340E-05
    0.39186779113960517286E-05
    0.24340021307456496759E-05
    0.29584678750035187491E-05
    0.17352539772798954243E-05
    0.26449915006287760199E-05
    0.53710508344372759652E-05
    0.95443786251883855402E-05
    0.15487205827262286921E-04
    0.13220882629092769065E-04
    0.22311212916925993139E-04
    0.71416339086044750250E-05
    0.54053059228512857244E-05
    0.10747298532445655553E-05
    0.60145133907335354531E-06
    0.37289885520593434226E-06
    0.29944697888429958538E-06
    0.30647895080232350915E-06
    0.23904909346842627154E-06
    0.26362316679402146722E-06
    0.44652083535929757446E-06
    0.73449401438115435445E-06
    0.11565101877273760581E-05
    0.10024052507514324831E-05
    0.16556895497913347903E-05
    0.57557575480646173613E-06
    0.45568395359685589747E-06
    0.45886344354665215299E-03
    0.40253333414927493054E-03
    0.40413967960582270920E-03
    0.33639401905541816426E-03
    0.30277127216064121055E-03
    0.23754085827014891335E-03
    0.23893085024132923737E-03
    0.28670228648964782162E-03
    0.28653491233903631390E-03
    0.31488793091353486572E-03
    0.35923735568674312326E-03
    0.41408428107629949820E-03
    0.35182996633411082934E-03
    0.32655948208567414388E-03
    0.29432245604370645218E-03
    0.18100254210777196127E-03
    0.98921509682356700789E-04
    0.60143632172776464778E-04
    0.72330466912432539082E-04
    0.39772870033133710934E-04
    0.58259982363935930796E-04
    0.12143352629854847150E-03
    0.16709240271279445942E-03
    0.21180973276419310476E-03
    0.22348892445712560911E-03
    0.30276176582680780925E-03
    0.16511798957952352048E-03
    0.13388988832212581070E-03
    0.69296080360756781135E-03
    0.75772529195339505346E-03
    0.84495577586543569020E-03
    0.78100230366717825030E-03
    0.65972761705767820912E-03
    0.49472516838103026016E-03
    0.45299363994241969829E-03
    0.53380515060688312791E-03
    0.50017548778883173452E-03
    0.54086892178618385402E-03
    0.61636760333815823146E-03
    0.65505299132225013395E-03
    0.65920843556515652806E-03
    0.63272919664749912617E-03
    0.59172386237793257301E-03
    0.37035368799236134674E-03
    0.17539691164744481669E-03
    0.10894345041583064027E-03
    0.14540702448186777155E-03
    0.76891522461266110502E-04
    0.11238513527810705078E-03
    0.24309491882741507299E-03
    0.33401591801640731017E-03
    0.44534404177367867012E-03
    0.51294675792490699012E-03
    0.71033422603309118951E-03
    0.35865031375278440392E-03
    0.28146856344619047103E-03
    0.25934813185526544622E-04
    0.13210788023251619679E-04
    0.67609247347179037013E-05
    0.41313012835829266358E-05
    0.50045073018239286618E-05
    0.28495948197885306573E-05
    0.42817534461902691459E-05
    0.89224055218749201565E-05
    0.15714144027541956846E-04
    0.26088306900320256163E-04
    0.23073223959111727665E-04
    0.40261180317283741309E-04
    0.12378406721348909032E-04
    0.92452474496497128928E-05
    0.17315995823026878987E-05
    0.95111061652485693393E-06
    0.56697075929988444570E-06
    0.45414882917453994084E-06
    0.47156912624137774753E-06
    0.36335445201974712811E-06
    0.40135488223760614047E-06
    0.69920896631735596184E-06
    0.11650768528197296508E-05
    0.18819564304796936761E-05
    0.16399727192836891252E-05
    0.27690685384729365016E-05
    0.91716622638292503472E-06
    0.71758890788021283031E-06
    0.38858449862701743415E-04
    0.20239859289506496892E-04
    0.94805988939557771808E-05
    0.59866483694209465845E-05
    0.80604073400856806556E-05
    0.46657839794157880215E-05
    0.73624875010782019996E-05
    0.15707058961397539276E-04
    0.28815049102662000993E-04
    0.49100279167743481632E-04
    0.40999971599185700585E-04
    0.70662582938287751247E-04
    0.20805141223591284272E-04
    0.15565244545803675637E-04
    0.22324475798751454562E-05
    0.12523149328833670797E-05
    0.70385865935277673898E-06
    0.58185697803204017913E-06
    0.65101431304944102782E-06
    0.51922046065106683339E-06
    0.60019655091498581457E-06
    0.10585917619669408243E-05
    0.18504874478751883213E-05
    0.30072537616125071760E-05
    0.24251939095654126160E-05
    0.39475993711637480450E-05
    0.13015525286390924103E-05
    0.10255750402498074428E-05
    0.60185000059582299221E-06
    0.10590070612718074044E-05
    0.18498418897747154674E-05
    0.30069358594928441265E-05
    0.24250067663454660426E-05
    0.39476997865620870243E-05
    0.22318593070143470995E-05
    0.12527939262733196229E-05
    0.70556455751054088978E-06
    0.58395744889932257053E-06
    0.65268616846149322164E-06
    0.52123717181080495996E-06
    0.10262325436143877366E-05
    0.13018849655765056252E-05
    0.73632876529650093632E-05
    0.15706951044300686954E-04
    0.28814038398645610542E-04
    0.49099587422625541751E-04
    0.40999422237369449610E-04
    0.70662329904711454584E-04
    0.38857524065682815038E-04
    0.20239854857964784932E-04
    0.94814633284511362491E-05
    0.59871456631553839303E-05
    0.80608154495782410192E-05
    0.46658601254697591414E-05
    0.15565290042848134889E-04
    0.20804988561662982190E-04
    0.40299179984818586346E-06
    0.69961189383425724244E-06
    0.11644120602195684534E-05
    0.18816227030815821851E-05
    0.16397770780650201795E-05
    0.27691618289387684311E-05
    0.17310078018830435512E-05
    0.95158618245054252251E-06
    0.56867453772537616239E-06
    0.45624651125898664534E-06
    0.47323548921343770707E-06
    0.36536187330522223659E-06
    0.71823972451894146772E-06
    0.91749280219599245749E-06
    0.42825132089348775971E-05
    0.89222502170674672774E-05
    0.15713044087530274491E-04
    0.26087505395713834349E-04
    0.23072607230957315090E-04
    0.40260838528953071303E-04
    0.25933848255014688416E-04
    0.13210758604402120397E-04
    0.67617775124845629357E-05
    0.41317888405671801926E-05
    0.50048970910240725361E-05
    0.28496507555448465212E-05
    0.92452616511416562387E-05
    0.12378219119128183959E-04
    0.11238517421175448093E-03
    0.24309295317859275980E-03
    0.33401184375775799578E-03
    0.44534144941692910399E-03
    0.51294438429408243697E-03
    0.71033253125401326234E-03
    0.59171998853622281324E-03
    0.37035187798641679710E-03
    0.17539718793548896339E-03
    0.10894352052546499266E-03
    0.14540674833363339234E-03
    0.76891128969082896713E-04
    0.28146719506642886447E-03
    0.35864854286264056778E-03
    0.45299490093435643536E-03
    0.53380420124411688456E-03
    0.50017235890923556450E-03
    0.54086732056084772021E-03
    0.61636622341179267415E-03
    0.65505259566718890274E-03
    0.69295797981621754056E-03
    0.75772438663889070138E-03
    0.84495686748697548807E-03
    0.78100205471227262307E-03
    0.65972726826301968887E-03
    0.49472410495583925543E-03
    0.63272839527594418232E-03
    0.65920738721659264455E-03
    0.58259675791349481249E-04
    0.12143112368180027170E-03
    0.16708765791103918691E-03
    0.21180660033589545450E-03
    0.22348628893454074336E-03
    0.30276005693420757377E-03
    0.29431843735543855058E-03
    0.18100052843669791843E-03
    0.98921584884664569151E-04
    0.60143565150945163013E-04
    0.72330009665982756585E-04
    0.39772308316821561422E-04
    0.13388821025939835535E-03
    0.16511593907123867857E-03
    0.23893110258979435943E-03
    0.28670050893630415418E-03
    0.28653062493167260911E-03
    0.31488534592135502838E-03
    0.35923536462800656575E-03
    0.41408335316991186663E-03
    0.45886033588950729664E-03
    0.40253235825677975267E-03
    0.40414099773894098964E-03
    0.33639384426605793265E-03
    0.30277066262377410428E-03
    0.23753921095317798466E-03
    0.32655828030879241247E-03
    0.35182856213670436578E-03
    0.26501674878696119436E-06
    0.44674267156222255559E-06
    0.73354221847805638407E-06
    0.11559792977791856046E-05
    0.10021119421595420654E-05
    0.16557265978540621636E-05
    0.10741089885801354159E-05
    0.60188814920929634276E-06
    0.37457802988979726524E-06
    0.30150859828766075437E-06
    0.30806880736397497287E-06
    0.24092160270099843584E-06
    0.45624336849903666335E-06
    0.57582780886236575701E-06
    0.26453110785337616840E-05
    0.53705569639255534682E-05
    0.95427439743685150053E-05
    0.15485912938933199453E-04
    0.13219997235516940695E-04
    0.22310620630146611216E-04
    0.14325361719953476865E-04
    0.74776993532161086832E-05
    0.39194762577229452376E-05
    0.24344253394532168915E-05
    0.29587194704111110904E-05
    0.17350890874345954838E-05
    0.54051343949126815660E-05
    0.71412754111993013292E-05
    0.20713059707219417742E-06
    0.33249331196016380727E-06
    0.56180845126412320859E-06
    0.84901694613436568442E-06
    0.69106693991810903747E-06
    0.10852578865253189541E-05
    0.69119374623277886184E-06
    0.39992066354556192386E-06
    0.24994411713408555928E-06
    0.20578243789808675269E-06
    0.21639402746698915981E-06
    0.17681432178133851183E-06
    0.32043571355139599168E-06
    0.39737997348187078041E-06
    0.20921449056311145054E-05
    0.40229770389026052877E-05
    0.73775993558162761057E-05
    0.11430493468521362859E-04
    0.90548562528166681154E-05
    0.14469956881708890474E-04
    0.89574454119728034421E-05
    0.48067413344037927646E-05
    0.24806192304892374423E-05
    0.15873672214851487448E-05
    0.20428382337382648541E-05
    0.12810228225602141299E-05
    0.37538845357171917774E-05
    0.48482687519295090332E-05
    0.35679524037781940341E-04
    0.72945258287948240030E-04
    0.10185938997440116191E-03
    0.12635731177147591499E-03
    0.12800460582727823944E-03
    0.16727927912311640695E-03
    0.15349778320537425065E-03
    0.98653391469305219902E-04
    0.52776952278871369488E-04
    0.33060167179250401907E-04
    0.41569436438717496929E-04
    0.23618480631329596449E-04
    0.77733249890649916587E-04
    0.94256743208734328470E-04
    0.14748254512268786989E-03
    0.17408618308418759442E-03
    0.17694754243910526905E-03
    0.19157234462517108036E-03
    0.21359274734550083010E-03
    0.24301518591298402637E-03
    0.26498938063821580492E-03
    0.23024343708547950196E-03
    0.22071233057692588335E-03
    0.18728652371702446855E-03
    0.17603878495166079684E-03
    0.14209850075246445791E-03
    0.19318581028580182201E-03