# vtk DataFile Version 3.0
LAPLACIEN  2D
ASCII
DATASET UNSTRUCTURED_GRID
 POINTS         481  float
   6.2500000000000000E-002  0.87500000000000000        0.0000000000000000     
  0.12500000000000000       0.87500000000000000        0.0000000000000000     
  0.12500000000000000       0.93750000000000000        0.0000000000000000     
   3.7499999999999999E-002  0.91249999999999998        0.0000000000000000     
   8.1250000000000003E-002  0.91874999999999996        0.0000000000000000     
   8.7499999999999994E-002  0.96250000000000002        0.0000000000000000     
   4.3749999999999997E-002  0.95625000000000004        0.0000000000000000     
  0.18750000000000000       0.87500000000000000        0.0000000000000000     
  0.25000000000000000       0.87500000000000000        0.0000000000000000     
  0.25000000000000000       0.93750000000000000        0.0000000000000000     
  0.16250000000000001       0.91249999999999998        0.0000000000000000     
  0.20624999999999999       0.91874999999999996        0.0000000000000000     
  0.21249999999999999       0.96250000000000002        0.0000000000000000     
  0.16875000000000001       0.95625000000000004        0.0000000000000000     
   6.2500000000000000E-002  0.75000000000000000        0.0000000000000000     
  0.12500000000000000       0.75000000000000000        0.0000000000000000     
  0.12500000000000000       0.81250000000000000        0.0000000000000000     
   3.7499999999999999E-002  0.78749999999999998        0.0000000000000000     
   8.1250000000000003E-002  0.79374999999999996        0.0000000000000000     
   8.7499999999999994E-002  0.83750000000000002        0.0000000000000000     
   4.3749999999999997E-002  0.83125000000000004        0.0000000000000000     
  0.18750000000000000       0.75000000000000000        0.0000000000000000     
  0.25000000000000000       0.75000000000000000        0.0000000000000000     
  0.25000000000000000       0.81250000000000000        0.0000000000000000     
  0.16250000000000001       0.78749999999999998        0.0000000000000000     
  0.20624999999999999       0.79374999999999996        0.0000000000000000     
  0.21249999999999999       0.83750000000000002        0.0000000000000000     
  0.16875000000000001       0.83125000000000004        0.0000000000000000     
  0.31250000000000000       0.87500000000000000        0.0000000000000000     
  0.37500000000000000       0.87500000000000000        0.0000000000000000     
  0.37500000000000000       0.93750000000000000        0.0000000000000000     
  0.28749999999999998       0.91249999999999998        0.0000000000000000     
  0.33124999999999999       0.91874999999999996        0.0000000000000000     
  0.33750000000000002       0.96250000000000002        0.0000000000000000     
  0.29375000000000001       0.95625000000000004        0.0000000000000000     
  0.43750000000000000       0.87500000000000000        0.0000000000000000     
  0.50000000000000000       0.87500000000000000        0.0000000000000000     
  0.50000000000000000       0.93750000000000000        0.0000000000000000     
  0.41249999999999998       0.91249999999999998        0.0000000000000000     
  0.45624999999999999       0.91874999999999996        0.0000000000000000     
  0.46250000000000002       0.96250000000000002        0.0000000000000000     
  0.41875000000000001       0.95625000000000004        0.0000000000000000     
  0.31250000000000000       0.75000000000000000        0.0000000000000000     
  0.37500000000000000       0.75000000000000000        0.0000000000000000     
  0.37500000000000000       0.81250000000000000        0.0000000000000000     
  0.28749999999999998       0.78749999999999998        0.0000000000000000     
  0.33124999999999999       0.79374999999999996        0.0000000000000000     
  0.33750000000000002       0.83750000000000002        0.0000000000000000     
  0.29375000000000001       0.83125000000000004        0.0000000000000000     
  0.43750000000000000       0.75000000000000000        0.0000000000000000     
  0.50000000000000000       0.75000000000000000        0.0000000000000000     
  0.50000000000000000       0.81250000000000000        0.0000000000000000     
  0.41249999999999998       0.78749999999999998        0.0000000000000000     
  0.45624999999999999       0.79374999999999996        0.0000000000000000     
  0.46250000000000002       0.83750000000000002        0.0000000000000000     
  0.41875000000000001       0.83125000000000004        0.0000000000000000     
   6.2500000000000000E-002  0.62500000000000000        0.0000000000000000     
  0.12500000000000000       0.62500000000000000        0.0000000000000000     
  0.12500000000000000       0.68750000000000000        0.0000000000000000     
   3.7499999999999999E-002  0.66249999999999998        0.0000000000000000     
   8.1250000000000003E-002  0.66874999999999996        0.0000000000000000     
   8.7499999999999994E-002  0.71250000000000002        0.0000000000000000     
   4.3749999999999997E-002  0.70625000000000004        0.0000000000000000     
  0.18750000000000000       0.62500000000000000        0.0000000000000000     
  0.25000000000000000       0.62500000000000000        0.0000000000000000     
  0.25000000000000000       0.68750000000000000        0.0000000000000000     
  0.16250000000000001       0.66249999999999998        0.0000000000000000     
  0.20624999999999999       0.66874999999999996        0.0000000000000000     
  0.21249999999999999       0.71250000000000002        0.0000000000000000     
  0.16875000000000001       0.70625000000000004        0.0000000000000000     
   6.2500000000000000E-002  0.50000000000000000        0.0000000000000000     
  0.12500000000000000       0.50000000000000000        0.0000000000000000     
  0.12500000000000000       0.56250000000000000        0.0000000000000000     
   3.7499999999999999E-002  0.53749999999999998        0.0000000000000000     
   8.1250000000000003E-002  0.54374999999999996        0.0000000000000000     
   8.7499999999999994E-002  0.58750000000000002        0.0000000000000000     
   4.3749999999999997E-002  0.58125000000000004        0.0000000000000000     
  0.18750000000000000       0.50000000000000000        0.0000000000000000     
  0.25000000000000000       0.50000000000000000        0.0000000000000000     
  0.25000000000000000       0.56250000000000000        0.0000000000000000     
  0.16250000000000001       0.53749999999999998        0.0000000000000000     
  0.20624999999999999       0.54374999999999996        0.0000000000000000     
  0.21249999999999999       0.58750000000000002        0.0000000000000000     
  0.16875000000000001       0.58125000000000004        0.0000000000000000     
  0.31250000000000000       0.62500000000000000        0.0000000000000000     
  0.37500000000000000       0.62500000000000000        0.0000000000000000     
  0.37500000000000000       0.68750000000000000        0.0000000000000000     
  0.28749999999999998       0.66249999999999998        0.0000000000000000     
  0.33124999999999999       0.66874999999999996        0.0000000000000000     
  0.33750000000000002       0.71250000000000002        0.0000000000000000     
  0.29375000000000001       0.70625000000000004        0.0000000000000000     
  0.43750000000000000       0.62500000000000000        0.0000000000000000     
  0.50000000000000000       0.62500000000000000        0.0000000000000000     
  0.50000000000000000       0.68750000000000000        0.0000000000000000     
  0.41249999999999998       0.66249999999999998        0.0000000000000000     
  0.45624999999999999       0.66874999999999996        0.0000000000000000     
  0.46250000000000002       0.71250000000000002        0.0000000000000000     
  0.41875000000000001       0.70625000000000004        0.0000000000000000     
  0.31250000000000000       0.50000000000000000        0.0000000000000000     
  0.37500000000000000       0.50000000000000000        0.0000000000000000     
  0.37500000000000000       0.56250000000000000        0.0000000000000000     
  0.28749999999999998       0.53749999999999998        0.0000000000000000     
  0.33124999999999999       0.54374999999999996        0.0000000000000000     
  0.33750000000000002       0.58750000000000002        0.0000000000000000     
  0.29375000000000001       0.58125000000000004        0.0000000000000000     
  0.43750000000000000       0.50000000000000000        0.0000000000000000     
  0.50000000000000000       0.50000000000000000        0.0000000000000000     
  0.50000000000000000       0.56250000000000000        0.0000000000000000     
  0.41249999999999998       0.53749999999999998        0.0000000000000000     
  0.45624999999999999       0.54374999999999996        0.0000000000000000     
  0.46250000000000002       0.58750000000000002        0.0000000000000000     
  0.41875000000000001       0.58125000000000004        0.0000000000000000     
  0.56250000000000000       0.87500000000000000        0.0000000000000000     
  0.62500000000000000       0.87500000000000000        0.0000000000000000     
  0.62500000000000000       0.93750000000000000        0.0000000000000000     
  0.53749999999999998       0.91249999999999998        0.0000000000000000     
  0.58125000000000004       0.91874999999999996        0.0000000000000000     
  0.58750000000000002       0.96250000000000002        0.0000000000000000     
  0.54374999999999996       0.95625000000000004        0.0000000000000000     
  0.68750000000000000       0.87500000000000000        0.0000000000000000     
  0.75000000000000000       0.87500000000000000        0.0000000000000000     
  0.75000000000000000       0.93750000000000000        0.0000000000000000     
  0.66249999999999998       0.91249999999999998        0.0000000000000000     
  0.70625000000000004       0.91874999999999996        0.0000000000000000     
  0.71250000000000002       0.96250000000000002        0.0000000000000000     
[...]
 CELL_DATA         896
 SCALARS VEGF float
 LOOKUP_TABLE default
    0.92801921689978190680E-06
    0.13571484957769322289E-05
    0.24731880944402577629E-05
    0.33511361413092120313E-05
    0.22614215562860700415E-05
    0.30390527111898657499E-05
    0.17759240242163624124E-05
    0.10917716713399896166E-05
    0.64561367831351947470E-06
    0.57059072431463431423E-06
    0.71442741988889684267E-06
    0.69579280531138955707E-06
    0.10804274850899990800E-05
    0.12594919697300313925E-05
    0.95349383551463167650E-05
    0.16530887252374038221E-04
    0.32477799613631121189E-04
    0.44690412167620252256E-04
    0.29577818694716083566E-04
    0.40339370099034638174E-04
    0.22916325300146698650E-04
    0.13202190910211142284E-04
    0.64243790958203742113E-05
    0.44465799301111753585E-05
    0.68236207025186993770E-05
    0.50941528006812696158E-05
    0.12782444573935313701E-04
    0.15496547104129526130E-04
    0.18036427600723047201E-05
    0.26799711704334974777E-05
    0.49691951440000363841E-05
    0.67622509050291749184E-05
    0.43236237999653101164E-05
    0.54148841499785217043E-05
    0.28089227710021963849E-05
    0.18544382672620245480E-05
    0.10275117214241800875E-05
    0.97447536275550885229E-06
    0.13313974907208047867E-05
    0.13322095090667951206E-05
    0.20555264555905708413E-05
    0.23594323326232944758E-05
    0.19534354014296057450E-04
    0.34027564098924748329E-04
    0.67241225066184455114E-04
    0.92398487003526243058E-04
    0.58186781701004126302E-04
    0.73586335182461223435E-04
    0.37140361165300235730E-04
    0.23174369206759303934E-04
    0.10603196467562287967E-04
    0.79237139382119500862E-05
    0.13410757845498656626E-04
    0.10325870014908638885E-04
    0.25390237114210057579E-04
    0.30142826189361984269E-04
    0.12796023794174726644E-03
    0.22053703082706402512E-03
    0.34887776540122681507E-03
    0.36696738337980901743E-03
    0.28708906321470883298E-03
    0.30135562224625149063E-03
    0.24027091290544435611E-03
    0.17370109197156169650E-03
    0.84967702455507120940E-04
    0.59614187808448530087E-04
    0.94897260695150101534E-04
    0.68743741927333848517E-04
    0.18205945602021728763E-03
    0.20334659308332366412E-03
    0.53831102322928815231E-03
    0.53038555739057778333E-03
    0.60939131095438022617E-03
    0.55887075237195937838E-03
    0.47980448787663738030E-03
    0.43986763666107556604E-03
    0.41853968606241743295E-03
    0.40562301179246503750E-03
    0.35817090490644458434E-03
    0.33736591696742718009E-03
    0.40046272298170561971E-03
    0.41470337918537005049E-03
    0.45405592930214172444E-03
    0.44729298275116512705E-03
    0.26599238466904737187E-03
    0.45885275414050507962E-03
    0.73055152856042401832E-03
    0.76588462730866496177E-03
    0.57058106827123265207E-03
    0.55014630832091887275E-03
    0.39008425817789530972E-03
    0.31012370196787411277E-03
    0.14275227345107867989E-03
    0.10852029623133271506E-03
    0.18974529294129427589E-03
    0.14205918289931170648E-03
    0.36613314664252840118E-03
    0.40033795670308720696E-03
    0.11277742410103382131E-02
    0.11089681553408876121E-02
    0.12808064255230098422E-02
    0.11698721495216972931E-02
    0.95702801487716900822E-03
    0.80386012330338583055E-03
    0.68001317324757300838E-03
    0.72474256592089045248E-03
    0.59895618664659270192E-03
    0.61465894253681803948E-03
    0.80097090184572746104E-03
    0.86501426459494133031E-03
    0.91757288022413984949E-03
    0.88377770325209553323E-03
    0.29698756637516998715E-05
    0.46399166671354209138E-05
    0.85006456060371297196E-05
    0.12107470103560557284E-04
    0.81123020704413273727E-05
    0.10708259131422179550E-04
    0.56003681342528897479E-05
    0.35920289188319724406E-05
    0.19814556270304432924E-05
    0.18339419920856691199E-05
    0.24107028090117089393E-05
    0.22830897276389168531E-05
    0.37523003050968287809E-05
    0.44064604606117697646E-05
    0.33635690095158147681E-04
    0.61301377464393049725E-04
    0.11910034253830216076E-03
    0.17042441655472679468E-03
    0.11241061611667489337E-03
    0.14872695933061167947E-03
    0.76222023271120331123E-04
    0.46645256716157424174E-04
    0.21524194944599748429E-04
    0.15726953357911635772E-04
    0.25505497505792409224E-04
    0.18525836782453979545E-04
    0.48281834440498104012E-04
    0.58434776197267636918E-04
    0.35966473920011853943E-05
    0.59417966259039454625E-05
    0.10621222924617864573E-04
    0.16026608161634830297E-04
    0.11628589596790555214E-04
    0.16709458138601652837E-04
    0.91276060083837188988E-05
    0.55592982564718260424E-05
    0.31254546658898120879E-05
    0.27569671105628016669E-05
    0.33519568231065190743E-05
    0.29341164919429486236E-05
    0.52169630229860116725E-05
    0.63280693910012782320E-05
    0.41937436135479241569E-04
    0.81485379171730807236E-04
    0.15456559431747024557E-03
    0.23672466276659711606E-03
    0.16817821086191373317E-03
    0.24130947800822262050E-03
    0.12895195425471057504E-03
    0.75186511977758238232E-04
    0.35516651543842353144E-04
    0.24678780863581630076E-04
    0.36944603982470174998E-04
    0.24561050494453471346E-04
    0.69917754486029562552E-04
    0.87496802533484034766E-04
    0.47091089211981216256E-03
    0.84155547911302314244E-03
    0.13178646647865124852E-02
    0.14273984664702058563E-02
    0.11131080631362486391E-02
    0.11220467338624267976E-02
    0.81017795478043844615E-03
    0.62925464799363725350E-03
    0.29381708074124873861E-03
    0.21924978704141953210E-03
    0.36736484909393737419E-03
    0.26188233911860310998E-03
    0.70421203989148840018E-03
    0.78394642484394235285E-03
    0.20096247237599024899E-02
    0.20375814876053797986E-02
    0.22867221178208821039E-02
    0.21648093547553134107E-02
    0.18659404874307554401E-02
    0.16395764910523478834E-02
    0.14174012792703303762E-02
    0.14826000635444797245E-02
    0.12444470320799848068E-02
    0.12544123103213171422E-02
    0.15611098244122031953E-02
    0.16100308449025768631E-02
    0.17757036224961221440E-02
    0.17385945610071996698E-02
    0.62083888189643410185E-03
    0.11998712291756198113E-02
    0.18743892290636944044E-02
    0.22069304984201117831E-02
    0.17865143950806852951E-02
    0.18933345574548793386E-02
    0.14142180510229253234E-02
    0.10433834138791244894E-02
    0.50031643552633548074E-03
    0.35757728313895605597E-03
    0.56071028532568524191E-03
    0.36607999924845487094E-03
    0.10705490740656822563E-02
    0.12345483738689217411E-02
    0.29096348633376135570E-02
    0.29436427400041306757E-02
    0.30333326372314144657E-02
    0.30051591957924593708E-02
    0.28228497747535266291E-02
    0.26604077120018837163E-02
    0.24346925113071893158E-02
    0.24622115113689755500E-02
    0.21513077987977886375E-02
    0.21210989395586232580E-02
    0.25169307791218513588E-02
    0.25119669431458843331E-02
    0.27422299128790237829E-02
    0.27138557256204372606E-02
    0.63269960883855706595E-03
    0.53321738593257994848E-03
    0.51787849918776094216E-03
    0.42867435211149028341E-03
    0.39679132597576072380E-03
    0.32576397353752735864E-03
    0.35579469425408628315E-03
    0.40287387018028789640E-03
    0.42089940492538681013E-03
    0.43934927876983340036E-03
    0.48352753618420899178E-03
    0.55972172411107524916E-03
    0.46664365904816211073E-03
    0.43473627411506026016E-03
    0.36202116108678569729E-03
    0.22757014083852694858E-03
    0.12321786624498235721E-03
    0.75598145653387805506E-04
    0.93475100386341297590E-04
    0.54640122568758452181E-04
    0.87018403053660690937E-04
    0.16914733993613373809E-03
    0.24232151673860357981E-03
    0.28925196929405341340E-03
    0.28906345493774437093E-03
    0.38231728596645658856E-03
    0.21209052978684599555E-03
    0.17480250321541971671E-03
    0.13266700623687007615E-02
    0.11143099948707651560E-02
    0.10871868667849512915E-02
    0.89524381548480175003E-03
    0.79016607385316633624E-03
    0.59299708734894562324E-03
    0.57682359596409791234E-03
    0.71956047795306335955E-03
    0.70511814653487583406E-03
    0.80259538271646195182E-03
    0.96804051804980670130E-03
    0.11709107225571647581E-02
    0.94294912017073230677E-03
    0.85851478341590267956E-03
    0.75608541703962904926E-03
    0.47166148396589352041E-03
    0.25614956420164357873E-03
    0.15599492746700945392E-03
    0.18424427886948665936E-03
    0.98147138482496609161E-04
    0.13976491165762540696E-03
    0.30023758893077639835E-03
    0.40446284379259299846E-03
    0.52690908774596229014E-03
    0.57566483512241776229E-03
    0.79784156758877424614E-03
    0.42539235864893294899E-03
    0.34240523735553702505E-03
    0.33596698546172798266E-04
    0.17239925151523869724E-04
    0.91593468158666796757E-05
    0.55852978173591560923E-05
    0.66944447567751240360E-05
    0.40174273294251658530E-05
    0.64420596194687123153E-05
    0.12521069849559281946E-04
    0.22740255211853690668E-04
    0.35648034357338102406E-04
    0.29981741884865690877E-04
    0.50874173253133398538E-04
    0.16162951191295154305E-04
    0.12241909625113532196E-04
    0.25404571516864293205E-05
    0.13955901992019201069E-05
    0.88758262093112736987E-06
    0.69830919102507878048E-06
    0.69624266887693065230E-06
    0.55313451115648381392E-06
    0.63952495183911166567E-06
    0.10321724745382789941E-05
    0.17370307944934709715E-05
    0.26578361937070172258E-05
    0.22734064945693520030E-05
    0.37896709702182912409E-05
    0.13003352419513176361E-05
    0.10275429396194903792E-05
    0.69363147211041689547E-04
    0.35343990265169645940E-04
    0.18774424121325506207E-04
    0.11330314832000245833E-04
    0.13000980277222387699E-04
    0.71093283701813447291E-05
    0.10271680936001288906E-04
    0.21897415773994426970E-04
    0.37888525795659141917E-04
    0.64380242125619823205E-04
    0.59074701331423183843E-04
    0.10506086079100322847E-03
    0.32054149772457743374E-04
    0.23696883845356418567E-04
    0.50976451215646971719E-05
    0.27535854203719629100E-05
    0.17291508018730519360E-05
    0.13407524647575240935E-05
    0.12875701535224435761E-05
    0.93964775547796034583E-06
    0.98735427135912851494E-06
    0.17551099504378472404E-05
    0.28428634283238582046E-05
    0.47153304744429649757E-05
    0.43709692965779803009E-05
    0.76632677958668358683E-05
    0.24890980372729284092E-05
    0.19154968388800734636E-05
    0.23365028037383053609E-02
    0.20454506554300521184E-02
    0.19588686268764135198E-02
    0.16669688302975945761E-02
    0.15449277189056363855E-02
    0.12086382251382202929E-02
    0.12016096334572740154E-02
    0.14727469322343865119E-02
    0.14657203987697630873E-02
    0.16379544289457808638E-02
    0.18817609576574473827E-02
    0.21657504952370407528E-02
    0.18237057211434710112E-02
    0.16893567344848103590E-02
    0.13469387444898855370E-02
    0.86349559818286482620E-03
    0.45761820252660222750E-03
    0.28796703944257320655E-03
    0.35919053222183339917E-03
    0.19819798617986061971E-03
    0.28837631735996460680E-03
    0.61054852476055286505E-03
    0.83784362232637945613E-03
    0.10742356303521322439E-02
    0.11199130976817814418E-02
    0.14866288426150172947E-02
    0.82014833953048817908E-03
    0.66969179098467601467E-03
    0.30361088584920340079E-02
    0.29590551858335481343E-02
    0.29136279257690597330E-02
    0.26250080518678414743E-02
    0.25010938436955936631E-02
    0.20389200523356814168E-02
    0.20967374254296992746E-02
    0.24558753764747603791E-02
    0.24878028184199423890E-02
    0.26603728841012386566E-02
    0.28401369450114367747E-02
    0.30047516896652224500E-02
    0.27895683340195672958E-02
    0.26659292988558819237E-02
    0.18735105695413885492E-02
    0.12303210726695562854E-02
    0.61433738815005968417E-03
    0.40426328793151351327E-03
    0.55386067419363493348E-03
    0.32297186880728275763E-03
    0.49524254759913640452E-03
    0.10112270653211180484E-02
    0.14465675605583260509E-02
    0.18091520248775553800E-02
    0.17985808986663205395E-02
    0.23222744357083986537E-02
    0.12657522819617590421E-02
    0.10443590236293607502E-02
    0.12154515666640866274E-03
    0.63734972386039577671E-04
    0.32780299061414265268E-04
    0.20423958262945150738E-04
    0.24920466021028473834E-04
    0.14099894537568930298E-04
    0.20919701800048014456E-04
    0.44198516772653097836E-04
    0.77563446877417261760E-04
    0.12999740132576262982E-03
    0.11366303203413588184E-03
    0.19410663630944544316E-03
    0.61114226806867230591E-04
    0.45880745010791375022E-04
    0.86480942299305321567E-05
    0.47875575562115357835E-05
    0.28957098550672302066E-05
    0.23138074995708883194E-05
    0.23533268524555626741E-05
    0.17720591969124032930E-05
    0.19134865560870549934E-05
    0.34098917525287602103E-05
    0.56586349569316088487E-05
    0.93088373919243225132E-05
    0.81792181283135420372E-05
    0.13793130196926105987E-04
    0.45803351752529911840E-05
    0.35665644284046793121E-05
    0.15549065760280659002E-03
    0.85043763962636985724E-04
    0.41681322662746859054E-04
    0.27232829621113858326E-04
    0.36606292282625106334E-04
    0.22164747898019170524E-04
    0.35015663928763193237E-04
    0.71565269768213393329E-04
    0.12996697617404632283E-03
    0.21054117840576129007E-03
    0.16903738205699796464E-03
    0.27106897326151929706E-03
    0.89071856258135008195E-04
    0.68538127921537349480E-04
    0.10695782043364294813E-04
    0.61707833145073114268E-05
    0.35815729701166458959E-05
    0.29960815561206412135E-05
    0.33220673025111645858E-05
    0.26779504097306688540E-05
    0.30701942969668549804E-05
    0.53120557407645517314E-05
    0.91542874811256839908E-05
    0.14533918579108571454E-04
    0.11666916017448562419E-04
    0.18366860376723391241E-04
    0.64180739031079961720E-05
    0.51221951180916524919E-05
    0.30718787989384093095E-05
    0.53125225365189219983E-05
    0.91537059720970998146E-05
    0.14533565950979358559E-04
    0.11666739922841596068E-04
    0.18366969798292991659E-04
    0.10695290045551609140E-04
    0.61713209492414113476E-05
    0.35833424727754450823E-05
    0.29984219783834342990E-05
    0.33238876223746806270E-05
    0.26801921570440275116E-05
    0.51229055827346526723E-05
    0.64184682685877147878E-05
    0.35016398845803570639E-04
    0.71565154279870613844E-04
    0.12996599214288814296E-03
    0.21054041633056344877E-03
    0.16903680026005373882E-03
    0.27106867516227245831E-03
    0.15548977596040744822E-03
    0.85043756357638228792E-04
    0.41682151334940894703E-04
    0.27233385706589827618E-04
    0.36606718272520150982E-04
    0.22164839345660401786E-04
    0.68538158040426245534E-04
    0.89071708885427153236E-04
    0.19151532319311612797E-05
    0.34103457433215258763E-05
    0.56580339310713720827E-05
    0.93084697727960567494E-05
    0.81790343793182542539E-05
    0.13793234225058483692E-04
    0.86475996956424595245E-05
    0.47880921732247604409E-05
    0.28974774063087559924E-05
    0.23161451829131467708E-05
    0.23551415350290829962E-05
    0.17742910247400596180E-05
    0.35672682344587474255E-05
    0.45807239723739669136E-05
    0.20920398511779673343E-04
    0.44198361950669190371E-04
    0.77562389967620831255E-04
    0.12999655468202942713E-03
    0.11366240359610873308E-03
    0.19410628411482440110E-03
    0.12154425443015018013E-03
    0.63734949453263782136E-04
    0.32781120177493394241E-04
    0.20424507276945987142E-04
    0.24920877444420224523E-04
    0.14099967435650566437E-04
    0.45880751615675176638E-04
    0.61114054913500231525E-04
    0.49524248989415086634E-03
    0.10112249495242691278E-02
    0.14465633516730074404E-02
    0.18091493899015100803E-02
    0.17985784824719613668E-02
    0.23222728013051075618E-02
    0.18735064568543180908E-02
    0.12303190181133746330E-02
    0.61433753250677138134E-03
    0.40426335086907264895E-03
    0.55386035239554328759E-03
    0.32297145365595977080E-03
    0.10443575110817792089E-02
    0.12657503794547928389E-02
    0.20967390185146991301E-02
    0.24558746596140984021E-02
    0.24877997576193428692E-02
    0.26603713348840661405E-02
    0.28401356648432287896E-02
    0.30047513321765531406E-02
    0.30361059947569351246E-02
    0.29590545033940747130E-02
    0.29136294176471022772E-02
    0.26250081229064916970E-02
    0.25010937856319802840E-02
    0.20389191741389265169E-02
    0.26659287582751290194E-02
    0.27895675289772584385E-02
    0.28837596237456974068E-03
    0.61054610363189354503E-03
    0.83783887801841495577E-03
    0.10742325670616095258E-02
    0.11199105124324836014E-02
    0.14866272447559920802E-02
    0.13469346384442030390E-02
    0.86349350522663560065E-03
    0.45761822471421118247E-03
    0.28796701733844841517E-03
    0.35919009427175263051E-03
    0.19819743929407933011E-03
    0.66969009743140931520E-03
    0.82014629354759292171E-03
    0.12016103495405719252E-02
    0.14727455319418316423E-02
    0.14657164117940805429E-02
    0.16379521391232186155E-02
    0.18817592516737907411E-02
    0.21657498279452585925E-02
    0.23364998207493921888E-02
    0.20454499529561419140E-02
    0.19588703226865828919E-02
    0.16669689832352339084E-02
    0.15449274417728064632E-02
    0.12086368643035195081E-02
    0.16893558571839247754E-02
    0.18237046404147008640E-02
    0.98875376952365447879E-06
    0.17553657103848922778E-05
    0.28419492113717845228E-05
    0.47147489026685263482E-05
    0.43706800611148338665E-05
    0.76633128927139061931E-05
    0.50971202785286349036E-05
    0.27540782329313883705E-05
    0.17308916251552042044E-05
    0.13430507053954870041E-05
    0.12893009335837268070E-05
    0.94173131369571877087E-06
    0.19161007671517905160E-05
    0.24894057496284377119E-05
    0.10271901498939763571E-04
    0.21896902514892323754E-04
    0.37886907150086774764E-04
    0.64378893132839874270E-04
    0.59073806172111755050E-04
    0.10506027624228295495E-03
    0.69362142359511024686E-04
    0.35343869297370866193E-04
    0.18775191697130329667E-04
    0.11330797393174916720E-04
    0.13001246043607969308E-04
    0.71091627485740948138E-05
    0.23696698224191610677E-04
    0.32053805188137301737E-04
    0.63918851708684429153E-06
    0.10310072607024918890E-05
    0.17346255006633238330E-05
    0.26554704645760389802E-05
    0.22717457098382533405E-05
    0.37887001920523306416E-05
    0.25394298328721601748E-05
    0.13954676495647302957E-05
    0.88892390236102552088E-06
    0.70001133204101364693E-06
    0.69674466151937037231E-06
    0.55325758274005240393E-06
    0.10269921587030606458E-05
    0.12995576336292588323E-05
    0.64392241552331226997E-05
    0.12518173885874299663E-04
    0.22736574756272744227E-04
    0.35644255617012026664E-04
    0.29978929331523363882E-04
    0.50871996487421632463E-04
    0.33594872117039417073E-04
    0.17238809723612264033E-04
    0.91593927222682201730E-05
    0.55846634299333848647E-05
    0.66926852438927568839E-05
    0.40150520423845675619E-05
    0.12239773283247909464E-04
    0.16160898873249902007E-04
    0.13976316872575054442E-03
    0.30023334463814588561E-03
    0.40445510276835547380E-03
    0.52690334451827285783E-03
    0.57566057849573869926E-03
    0.79783871417471441661E-03
    0.75608057402390589381E-03
    0.47165864378388830305E-03
    0.25614920816228927553E-03
    0.15599457703867656384E-03
    0.18424318261126525209E-03
    0.98145913944042967162E-04
    0.34240234914565358375E-03
    0.42538912935446136256E-03
    0.57681988266612856369E-03
    0.71955535893448822893E-03
    0.70510964829901038274E-03
    0.80258940748189331639E-03
    0.96803627965297072908E-03
    0.11709083072921292606E-02
    0.13266658654190628935E-02
    0.11143077556791424528E-02
    0.10871874110492715359E-02
    0.89524258659533868712E-03
    0.79016355390017483512E-03
    0.59299275731604231873E-03
    0.85851134075587572612E-03