# vtk DataFile Version 3.0
LAPLACIEN  2D
ASCII
DATASET UNSTRUCTURED_GRID
 POINTS         481  float
   6.2500000000000000E-002  0.87500000000000000        0.0000000000000000     
  0.12500000000000000       0.87500000000000000        0.0000000000000000     
  0.12500000000000000       0.93750000000000000        0.0000000000000000     
   3.7499999999999999E-002  0.91249999999999998        0.0000000000000000     
   8.1250000000000003E-002  0.91874999999999996        0.0000000000000000     
   8.7499999999999994E-002  0.96250000000000002        0.0000000000000000     
   4.3749999999999997E-002  0.95625000000000004        0.0000000000000000     
  0.18750000000000000       0.87500000000000000        0.0000000000000000     
  0.25000000000000000       0.87500000000000000        0.0000000000000000     
  0.25000000000000000       0.93750000000000000        0.0000000000000000     
  0.16250000000000001       0.91249999999999998        0.0000000000000000     
  0.20624999999999999       0.91874999999999996        0.0000000000000000     
  0.21249999999999999       0.96250000000000002        0.0000000000000000     
  0.16875000000000001       0.95625000000000004        0.0000000000000000     
   6.2500000000000000E-002  0.75000000000000000        0.0000000000000000     
  0.12500000000000000       0.75000000000000000        0.0000000000000000     
  0.12500000000000000       0.81250000000000000        0.0000000000000000     
   3.7499999999999999E-002  0.78749999999999998        0.0000000000000000     
   8.1250000000000003E-002  0.79374999999999996        0.0000000000000000     
   8.7499999999999994E-002  0.83750000000000002        0.0000000000000000     
   4.3749999999999997E-002  0.83125000000000004        0.0000000000000000     
  0.18750000000000000       0.75000000000000000        0.0000000000000000     
  0.25000000000000000       0.75000000000000000        0.0000000000000000     
  0.25000000000000000       0.81250000000000000        0.0000000000000000     
  0.16250000000000001       0.78749999999999998        0.0000000000000000     
  0.20624999999999999       0.79374999999999996        0.0000000000000000     
  0.21249999999999999       0.83750000000000002        0.0000000000000000     
  0.16875000000000001       0.83125000000000004        0.0000000000000000     
  0.31250000000000000       0.87500000000000000        0.0000000000000000     
  0.37500000000000000       0.87500000000000000        0.0000000000000000     
  0.37500000000000000       0.93750000000000000        0.0000000000000000     
  0.28749999999999998       0.91249999999999998        0.0000000000000000     
  0.33124999999999999       0.91874999999999996        0.0000000000000000     
  0.33750000000000002       0.96250000000000002        0.0000000000000000     
  0.29375000000000001       0.95625000000000004        0.0000000000000000     
  0.43750000000000000       0.87500000000000000        0.0000000000000000     
  0.50000000000000000       0.87500000000000000        0.0000000000000000     
  0.50000000000000000       0.93750000000000000        0.0000000000000000     
  0.41249999999999998       0.91249999999999998        0.0000000000000000     
  0.45624999999999999       0.91874999999999996        0.0000000000000000     
  0.46250000000000002       0.96250000000000002        0.0000000000000000     
  0.41875000000000001       0.95625000000000004        0.0000000000000000     
  0.31250000000000000       0.75000000000000000        0.0000000000000000     
  0.37500000000000000       0.75000000000000000        0.0000000000000000     
  0.37500000000000000       0.81250000000000000        0.0000000000000000     
  0.28749999999999998       0.78749999999999998        0.0000000000000000     
  0.33124999999999999       0.79374999999999996        0.0000000000000000     
  0.33750000000000002       0.83750000000000002        0.0000000000000000     
  0.29375000000000001       0.83125000000000004        0.0000000000000000     
  0.43750000000000000       0.75000000000000000        0.0000000000000000     
  0.50000000000000000       0.75000000000000000        0.0000000000000000     
  0.50000000000000000       0.81250000000000000        0.0000000000000000     
  0.41249999999999998       0.78749999999999998        0.0000000000000000     
  0.45624999999999999       0.79374999999999996        0.0000000000000000     
  0.46250000000000002       0.83750000000000002        0.0000000000000000     
  0.41875000000000001       0.83125000000000004        0.0000000000000000     
   6.2500000000000000E-002  0.62500000000000000        0.0000000000000000     
  0.12500000000000000       0.62500000000000000        0.0000000000000000     
  0.12500000000000000       0.68750000000000000        0.0000000000000000     
   3.7499999999999999E-002  0.66249999999999998        0.0000000000000000     
   8.1250000000000003E-002  0.66874999999999996        0.0000000000000000     
   8.7499999999999994E-002  0.71250000000000002        0.0000000000000000     
   4.3749999999999997E-002  0.70625000000000004        0.0000000000000000     
  0.18750000000000000       0.62500000000000000        0.0000000000000000     
  0.25000000000000000       0.62500000000000000        0.0000000000000000     
  0.25000000000000000       0.68750000000000000        0.0000000000000000     
  0.16250000000000001       0.66249999999999998        0.0000000000000000     
  0.20624999999999999       0.66874999999999996        0.0000000000000000     
  0.21249999999999999       0.71250000000000002        0.0000000000000000     
  0.16875000000000001       0.70625000000000004        0.0000000000000000     
   6.2500000000000000E-002  0.50000000000000000        0.0000000000000000     
  0.12500000000000000       0.50000000000000000        0.0000000000000000     
  0.12500000000000000       0.56250000000000000        0.0000000000000000     
   3.7499999999999999E-002  0.53749999999999998        0.0000000000000000     
   8.1250000000000003E-002  0.54374999999999996        0.0000000000000000     
   8.7499999999999994E-002  0.58750000000000002        0.0000000000000000     
   4.3749999999999997E-002  0.58125000000000004        0.0000000000000000     
  0.18750000000000000       0.50000000000000000        0.0000000000000000     
  0.25000000000000000       0.50000000000000000        0.0000000000000000     
  0.25000000000000000       0.56250000000000000        0.0000000000000000     
  0.16250000000000001       0.53749999999999998        0.0000000000000000     
  0.20624999999999999       0.54374999999999996        0.0000000000000000     
  0.21249999999999999       0.58750000000000002        0.0000000000000000     
  0.16875000000000001       0.58125000000000004        0.0000000000000000     
  0.31250000000000000       0.62500000000000000        0.0000000000000000     
  0.37500000000000000       0.62500000000000000        0.0000000000000000     
  0.37500000000000000       0.68750000000000000        0.0000000000000000     
  0.28749999999999998       0.66249999999999998        0.0000000000000000     
  0.33124999999999999       0.66874999999999996        0.0000000000000000     
  0.33750000000000002       0.71250000000000002        0.0000000000000000     
  0.29375000000000001       0.70625000000000004        0.0000000000000000     
  0.43750000000000000       0.62500000000000000        0.0000000000000000     
  0.50000000000000000       0.62500000000000000        0.0000000000000000     
  0.50000000000000000       0.68750000000000000        0.0000000000000000     
  0.41249999999999998       0.66249999999999998        0.0000000000000000     
  0.45624999999999999       0.66874999999999996        0.0000000000000000     
  0.46250000000000002       0.71250000000000002        0.0000000000000000     
  0.41875000000000001       0.70625000000000004        0.0000000000000000     
  0.31250000000000000       0.50000000000000000        0.0000000000000000     
  0.37500000000000000       0.50000000000000000        0.0000000000000000     
  0.37500000000000000       0.56250000000000000        0.0000000000000000     
  0.28749999999999998       0.53749999999999998        0.0000000000000000     
  0.33124999999999999       0.54374999999999996        0.0000000000000000     
  0.33750000000000002       0.58750000000000002        0.0000000000000000     
  0.29375000000000001       0.58125000000000004        0.0000000000000000     
  0.43750000000000000       0.50000000000000000        0.0000000000000000     
  0.50000000000000000       0.50000000000000000        0.0000000000000000     
  0.50000000000000000       0.56250000000000000        0.0000000000000000     
  0.41249999999999998       0.53749999999999998        0.0000000000000000     
  0.45624999999999999       0.54374999999999996        0.0000000000000000     
  0.46250000000000002       0.58750000000000002        0.0000000000000000     
  0.41875000000000001       0.58125000000000004        0.0000000000000000     
  0.56250000000000000       0.87500000000000000        0.0000000000000000     
  0.62500000000000000       0.87500000000000000        0.0000000000000000     
  0.62500000000000000       0.93750000000000000        0.0000000000000000     
  0.53749999999999998       0.91249999999999998        0.0000000000000000     
  0.58125000000000004       0.91874999999999996        0.0000000000000000     
  0.58750000000000002       0.96250000000000002        0.0000000000000000     
  0.54374999999999996       0.95625000000000004        0.0000000000000000     
  0.68750000000000000       0.87500000000000000        0.0000000000000000     
  0.75000000000000000       0.87500000000000000        0.0000000000000000     
  0.75000000000000000       0.93750000000000000        0.0000000000000000     
  0.66249999999999998       0.91249999999999998        0.0000000000000000     
  0.70625000000000004       0.91874999999999996        0.0000000000000000     
  0.71250000000000002       0.96250000000000002        0.0000000000000000     
[...]
 CELL_DATA         896
 SCALARS VEGF float
 LOOKUP_TABLE default
    0.83941920045890498298E-05
    0.88045848362290995395E-05
    0.11181161323380352709E-04
    0.12171922802797896361E-04
    0.97180818944873708330E-05
    0.10543053808598238250E-04
    0.84234724613958310513E-05
    0.73494416588502326317E-05
    0.64746438038529541227E-05
    0.64113122188366525458E-05
    0.70131887794732340185E-05
    0.74146391772377056543E-05
    0.77548838734673287385E-05
    0.79263353856749681144E-05
    0.23378805243026929886E-04
    0.33450222123989760783E-04
    0.59752495160737309455E-04
    0.76131154780697719180E-04
    0.50640664208208700553E-04
    0.64106259040645974722E-04
    0.39010691099559335557E-04
    0.25460992966025559160E-04
    0.15486634813031070925E-04
    0.12705815931499784855E-04
    0.16923412154250545017E-04
    0.15066182090323804491E-04
    0.26074334691648149733E-04
    0.29657531734058542193E-04
    0.14411229423973769283E-04
    0.15667642749098293611E-04
    0.21478842697901040043E-04
    0.24228478820180562886E-04
    0.17514158112026779421E-04
    0.18133299273700037048E-04
    0.12386006473373808084E-04
    0.11163102548193950462E-04
    0.90520605159898352205E-05
    0.94485987981162753135E-05
    0.11275655509892012687E-04
    0.12325037494429585047E-04
    0.13041342350739129917E-04
    0.13272929529244497201E-04
    0.53512429791527927323E-04
    0.80958179396121906233E-04
    0.15347763710142633769E-03
    0.19725040852255597691E-03
    0.11936079070632381717E-03
    0.13751019315915170827E-03
    0.70393427129911804465E-04
    0.49206511760489809559E-04
    0.26285594636387391341E-04
    0.22723476978392701756E-04
    0.35301553385798793466E-04
    0.31690688155573902942E-04
    0.58623357221736380684E-04
    0.65902698283904000034E-04
    0.21282490889071564028E-03
    0.34572022495219412348E-03
    0.55189629281270069765E-03
    0.55384518850876683117E-03
    0.41779317663059303486E-03
    0.41865079732731757135E-03
    0.33636577518727703556E-03
    0.25056115318922703898E-03
    0.12578744651203584864E-03
    0.91421679057525559995E-04
    0.14604239629420571198E-03
    0.11315667906532541319E-03
    0.27394556276178947361E-03
    0.29973928314464161468E-03
    0.84148145447435153312E-03
    0.78540051075002810868E-03
    0.92210086516572977236E-03
    0.80759956588104123490E-03
    0.65910931508895303794E-03
    0.58009168778760510782E-03
    0.54704691477067829419E-03
    0.54131708871270095736E-03
    0.48164715195541421252E-03
    0.46324726779684315039E-03
    0.56642766652086604974E-03
    0.62123786554876857854E-03
    0.63655268087978828743E-03
    0.61433738816550642094E-03
    0.58725660287678991579E-03
    0.95733503093534328462E-03
    0.15765559423952103628E-02
    0.15651196780792819754E-02
    0.10785764703904123125E-02
    0.95210311747061530854E-03
    0.64389887108713943914E-03
    0.54413253349223640425E-03
    0.24696675281349756825E-03
    0.19858323508787950780E-03
    0.36802230013462924798E-03
    0.29938004475478751905E-03
    0.70796619639788838096E-03
    0.75141827893676204232E-03
    0.25009469131339265302E-02
    0.23163360346276401676E-02
    0.27965225529628357469E-02
    0.23981502938310349585E-02
    0.17867494915205371815E-02
    0.13644691009847341283E-02
    0.10810354620782699001E-02
    0.12249129411350061745E-02
    0.97756455682462004356E-03
    0.10583680908930965039E-02
    0.15093621121388546124E-02
    0.17740995770665045090E-02
    0.17451681430418820081E-02
    0.16254447700594278764E-02
    0.22459910434650744328E-04
    0.26369904593595370747E-04
    0.37561869148755437121E-04
    0.46012181446127592313E-04
    0.33451703361729240370E-04
    0.37569065097994342904E-04
    0.24035576059496304108E-04
    0.20223207201100430107E-04
    0.15608466421071477502E-04
    0.15985230652426195302E-04
    0.18821902178897538359E-04
    0.19632915647794325692E-04
    0.22597515725338970972E-04
    0.23777722349812597532E-04
    0.10639811534948692706E-03
    0.17800351487797704203E-03
    0.34116115851137821273E-03
    0.47223223577940403152E-03
    0.29627795053833609401E-03
    0.36487510834265360696E-03
    0.18222935172496412880E-03
    0.12059799847105304095E-03
    0.60434455793122379013E-04
    0.49374245246906209924E-04
    0.77230025744962576108E-04
    0.62952395270610028602E-04
    0.13529949750433419063E-03
    0.15789619319412590633E-03
    0.26780827163841017165E-04
    0.33739993393175956443E-04
    0.47793135586096618494E-04
    0.63536404445616940151E-04
    0.49664151386216880330E-04
    0.62967197493636281082E-04
    0.40346934388747368214E-04
    0.30986176472186620085E-04
    0.23535873685817483764E-04
    0.22984892200187335336E-04
    0.25452706099430613392E-04
    0.24623381369353981927E-04
    0.31118825106776837124E-04
    0.34137811360705186316E-04
    0.14090031908007652505E-03
    0.26007233335313250516E-03
    0.48521604893593523041E-03
    0.74017766412054215430E-03
    0.51825683447449875756E-03
    0.72850082943731611987E-03
    0.38037557412256889269E-03
    0.23015653419450503368E-03
    0.11433427597244412259E-03
    0.85557711866925074745E-04
    0.12380178230740835005E-03
    0.88692432616645846015E-04
    0.22186284728038972659E-03
    0.27304174002228099281E-03
    0.13656189722514343928E-02
    0.23971060689385510246E-02
    0.38760723166693742542E-02
    0.40936942196445466266E-02
    0.29570830011166220931E-02
    0.27558014953575618242E-02
    0.18507714588123110305E-02
    0.15221005322733126373E-02
    0.68339794933875862206E-03
    0.53524928932799516711E-03
    0.96639478177210959026E-03
    0.72706478473649738519E-03
    0.18792001796680917435E-02
    0.20437621985533185008E-02
    0.62299090777043980918E-02
    0.61760121435865695388E-02
    0.72642689403515040697E-02
    0.65938448558995766541E-02
    0.51968947547922474464E-02
    0.41441996737536738321E-02
    0.32992956899068645420E-02
    0.36752865226665240410E-02
    0.29165360020721640098E-02
    0.30948512574717110778E-02
    0.42574403895093912431E-02
    0.46750278055673610833E-02
    0.49656436555579903241E-02
    0.47336439225142334583E-02
    0.19572140472506813214E-02
    0.38168003850319221111E-02
    0.59040507161528497926E-02
    0.69423392322430820325E-02
    0.56182513430339557289E-02
    0.59787307852461812549E-02
    0.42859792966029146288E-02
    0.32164886382764221531E-02
    0.14933538647373817421E-02
    0.10818015684423535911E-02
    0.17472077426339152704E-02
    0.11465212031377732677E-02
    0.33940407552914128239E-02
    0.38825436354220925657E-02
    0.95980665373484909397E-02
    0.10271007988548330400E-01
    0.11206763009806577219E-01
    0.11175371302477657420E-01
    0.10143904435052020913E-01
    0.92529908206708151586E-02
    0.80420735342483090635E-02
    0.82543649354926227485E-02
    0.68657810829933618030E-02
    0.67820183105103508392E-02
    0.82706418439506719509E-02
    0.80238498602528320752E-02
    0.94669418780212004350E-02
    0.94455573413243214959E-02
    0.97186422376410600346E-03
    0.78796696820922879859E-03
    0.79505207615200622698E-03
    0.63733139916569115594E-03
    0.55835642202534065039E-03
    0.44881231243040553341E-03
    0.47728908762729690182E-03
    0.53739284874301557378E-03
    0.55030186533824919197E-03
    0.57917745439451219849E-03
    0.66594521022168829110E-03
    0.80908905192428326458E-03
    0.65092261851109483890E-03
    0.59868402606907749567E-03
    0.57781547679971632329E-03
    0.35558799987566016903E-03
    0.20196265788929770174E-03
    0.12291502915899008052E-03
    0.14282937713352048220E-03
    0.84292867040641403491E-04
    0.12837221417891385889E-03
    0.24386883279170625894E-03
    0.33952144746874669823E-03
    0.40333508284363472993E-03
    0.42056667898131424536E-03
    0.57284334216822253849E-03
    0.31600026761095242412E-03
    0.25906339520086213045E-03
    0.29588104098535131931E-02
    0.23219555818261307899E-02
    0.23482533811918678002E-02
    0.18212688669093242931E-02
    0.14721432217227334652E-02
    0.10193906570882538265E-02
    0.92627190337165167620E-03
    0.12119665296352285545E-02
    0.11345237866921108888E-02
    0.13605860648458359494E-02
    0.18157494957516178910E-02
    0.24014318072821398860E-02
    0.17878416482247330883E-02
    0.15747336211281734528E-02
    0.16504960622776400705E-02
    0.97902801599806794745E-03
    0.55330437450263464643E-03
    0.32420023236408605435E-03
    0.35079859967115153280E-03
    0.17914228340262588427E-03
    0.23796844644193029480E-03
    0.52208476821933691003E-03
    0.67165987703381895609E-03
    0.90895663517925342177E-03
    0.10860200691793543432E-02
    0.16186301123130763992E-02
    0.81441451012718014783E-03
    0.63972001246447626321E-03
    0.61925454936636554018E-04
    0.34477188512740074549E-04
    0.22414303628888832210E-04
    0.15914821545860868580E-04
    0.16713761067643586092E-04
    0.12155139159142012013E-04
    0.15571858928051829124E-04
    0.24503712661488499775E-04
    0.38835871253628396062E-04
    0.57446517133634361445E-04
    0.51299194820345665150E-04
    0.85115902464384879736E-04
    0.31108403029673193881E-04
    0.24875278171918792938E-04
    0.11571218715148758128E-04
    0.90071628325011552870E-05
    0.83018838644237307698E-05
    0.75629208012456992794E-05
    0.71135834129924163376E-05
    0.65608559664603512682E-05
    0.66329662750464000575E-05
    0.74101759640043946806E-05
    0.85295724544841664282E-05
    0.10076693459464164425E-04
    0.98998329506658906652E-05
    0.12983124612740100297E-04
    0.82954444222747662774E-05
    0.76713205733799685182E-05
    0.15840468307516423151E-03
    0.82861690081425317007E-04
    0.50709580755893860719E-04
    0.33510904736522207530E-04
    0.34002915990095836628E-04
    0.21181289959880547993E-04
    0.25293089948426003034E-04
    0.46522435803542551566E-04
    0.71885082895043226703E-04
    0.12064210310731728179E-03
    0.12077225241480378200E-03
    0.22047226888111874470E-03
    0.70729769649731580989E-04
    0.53493867362996697274E-04
    0.22010633047387250687E-04
    0.15838292562310067802E-04
    0.14009353710007797019E-04
    0.12394897075136656258E-04
    0.11174839098083208584E-04
    0.94881768088412153124E-05
    0.89421968967096826156E-05
    0.11042104354252095676E-04
    0.12707446441021346810E-04
    0.16844280575774419538E-04
    0.17705676097369954085E-04
    0.25958333962249891116E-04
    0.14006887355232515275E-04
    0.12395682176337376927E-04
    0.75288556716724555976E-02
    0.61925115932341097749E-02
    0.59738108460712134942E-02
    0.48300073276134700834E-02
    0.41667426435462572715E-02
    0.29624445481697550889E-02
    0.27530004628582758174E-02
    0.36316192314733925298E-02
    0.34703222144786168013E-02
    0.41338248671533390707E-02
    0.52600659437536468124E-02
    0.65965268071051311183E-02
    0.51051414965092942883E-02
    0.45642917541144712237E-02
    0.39838500537851331829E-02
    0.24456562867984864805E-02
    0.13087640723819758681E-02
    0.79247083434120580477E-03
    0.92587961825435331504E-03
    0.47959040964336990560E-03
    0.65650071950021111206E-03
    0.14588499188278787090E-02
    0.19282936457910267516E-02
    0.26154629374999130258E-02
    0.29688264246965560648E-02
    0.42554539778921745413E-02
    0.21735184529487333593E-02
    0.17265935860741093901E-02
    0.11206587488105898207E-01
    0.10326730180450459373E-01
    0.95918553251084885669E-02
    0.83998578574798667823E-02
    0.81836338036946447427E-02
    0.64696307221984560715E-02
    0.66027894295047975803E-02
    0.81869515628223213377E-02
    0.83192944673062471650E-02
    0.92458510133107563861E-02
    0.10197369847499866691E-01
    0.11171131637987793614E-01
    0.97526290537859258722E-02
    0.91339805095237026206E-02
    0.59009847279911853066E-02
    0.39067277506051149849E-02
    0.19346165750707194561E-02
    0.12637828934021697047E-02
    0.17155948304384935517E-02
    0.97197590845838081810E-03
    0.14622407913873064489E-02
    0.31072935324283406863E-02
    0.44010510356285448275E-02
    0.56664762014998785664E-02
    0.56359786992399444130E-02
    0.73114628117667366386E-02
    0.39814447398682298318E-02
    0.32787310163784780075E-02
    0.34795648003498150539E-03
    0.18285793727523084475E-03
    0.10250051090246536467E-03
    0.67387254399753389734E-04
    0.74517306290611869807E-04
    0.45161433574207905249E-04
    0.57772211623153728940E-04
    0.11332983674138356336E-03
    0.18520281841833850442E-03
    0.31681564788518259100E-03
    0.29861255951282145681E-03
    0.53270004156417039183E-03
    0.16653386444770397002E-03
    0.12534603215207072171E-03
    0.38064762851620224840E-04
    0.26662868955722427057E-04
    0.21990356543721384071E-04
    0.19696419633866157645E-04
    0.18543360942923693848E-04
    0.15825329451854128671E-04
    0.15202215794706556152E-04
    0.19711527202224860428E-04
    0.24392233609695261002E-04
    0.34040712733194023441E-04
    0.33597550892320629230E-04
    0.50070066682254661607E-04
    0.24671953520006067523E-04
    0.21552196974818742383E-04
    0.48782890527684783432E-03
    0.27020615083150835607E-03
    0.13999660824248269931E-03
    0.96387621529905501789E-04
    0.12199572227403164006E-03
    0.78009873974980742817E-04
    0.11142864677807974723E-03
    0.21819052748169080963E-03
    0.38310923412164190780E-03
    0.63220345030672291803E-03
    0.51995687893170369764E-03
    0.84586762801148855390E-03
    0.27860506858056957461E-03
    0.21536551892739456710E-03
    0.47991069635910341444E-04
    0.34379018970115243737E-04
    0.26725394033471211859E-04
    0.24819079354167711211E-04
    0.25282883087823992762E-04
    0.22701088986459024807E-04
    0.23124800480095115995E-04
    0.30180509422942640739E-04
    0.40529621220506274314E-04
    0.56550949931610428761E-04
    0.49732285600695549715E-04
    0.70288300725802470596E-04
    0.34591978040119603717E-04
    0.30543347414713563120E-04
    0.23126699990867385638E-04
    0.30181044592892568101E-04
    0.40528970130422828778E-04
    0.56550524708002008654E-04
    0.49732090048825612074E-04
    0.70288399522353692196E-04
    0.47990531071812183922E-04
    0.34379624713626536349E-04
    0.26727401917107407347E-04
    0.24821770164825541886E-04
    0.25284931683373680227E-04
    0.22703660759507052186E-04
    0.30544136605774927613E-04
    0.34592433346325657728E-04
    0.11142946844523075964E-03
    0.21819042780518279538E-03
    0.38310818199683731094E-03
    0.63220263282373590722E-03
    0.51995627428235281862E-03
    0.84586732286128353629E-03
    0.48782796440229004523E-03
    0.27020615856988383467E-03
    0.13999754422963875291E-03
    0.96388277559724091690E-04
    0.12199620437694138470E-03
    0.78010003309159864989E-04
    0.21536556102746579901E-03
    0.27860493898076879420E-03
    0.15204100809510677554E-04
    0.19712053516559094324E-04
    0.24391569342233786519E-04
    0.34040279059225461071E-04
    0.33597351642749000850E-04
    0.50070163662130180650E-04
    0.38064223839893669211E-04
    0.26663473395939800756E-04
    0.21992363341671361304E-04
    0.19699108873776282290E-04
    0.18545405933209280409E-04
    0.15827893942068623168E-04
    0.21552982182970184863E-04
    0.24672405906112195782E-04
    0.57773010195609592293E-04
    0.11332972175265610694E-03
    0.18520174214555978703E-03
    0.31681480494569880637E-03
    0.29861194265017374340E-03
    0.53269972180946037737E-03
    0.34795553844273706401E-03
    0.18285794214834363586E-03
    0.10250144430126972546E-03
    0.67387907976996144614E-04
    0.74517782695400318349E-04
    0.45161552899413722308E-04
    0.12534606674342242314E-03
    0.16653372836802275529E-03
    0.14622408712155073561E-02
    0.31072915109017686802E-02
    0.44010468031253115184E-02
    0.56664737544215798906E-02
    0.56359765058796133796E-02
    0.73114615636015725317E-02
    0.59009805684137927109E-02
    0.39067257760622992740E-02
    0.19346168197070939820E-02
    0.12637830641965366353E-02
    0.17155946212032294543E-02
    0.97197556320106480877E-03
    0.32787296156395512488E-02
    0.39814429805931162223E-02
    0.66027917803168348007E-02
    0.81869511980194840939E-02
    0.83192913032857380290E-02
    0.92458494351345139189E-02
    0.10197368630802372200E-01
    0.11171131273005591167E-01
    0.11206584354353723784E-01
    0.10326729868056909109E-01
    0.95918577339341622168E-02
    0.83998586335561151867E-02
    0.81836343207697930663E-02
    0.64696303194068756001E-02
    0.91339803647160575789E-02
    0.97526285673777621255E-02
    0.65650068061183009839E-03
    0.14588478362877839098E-02
    0.19282893015851280960E-02
    0.26154604053492190412E-02
    0.29688242285116597970E-02
    0.42554527925656344955E-02
    0.39838459710987358942E-02
    0.24456543537937068013E-02
    0.13087642666698899672E-02
    0.79247097672463398619E-03
    0.92587937911638954359E-03
    0.47959002037191932836E-03
    0.17265921629899859749E-02
    0.21735166935197198536E-02
    0.27530025115729585272E-02
    0.36316187361677687573E-02
    0.34703189380705995112E-02
    0.41338231855490301450E-02
    0.52600647053957271318E-02
    0.65965264267988810848E-02
    0.75288526670262935145E-02
    0.61925113552062319849E-02
    0.59738133541815119365E-02
    0.48300081783800826243E-02
    0.41667431342904395417E-02
    0.29624440283190934392E-02
    0.45642915718866507169E-02
    0.51051410112644282982E-02
    0.89437993380473726040E-05
    0.11042426611323844846E-04
    0.12706455323932376654E-04
    0.16843633486857075053E-04
    0.17705377076540809559E-04
    0.25958382375793295115E-04
    0.22010070905464714668E-04
    0.15838860383342404656E-04
    0.14011337541085856659E-04
    0.12397550606134360890E-04
    0.11176802263895396547E-04
    0.94905897737871539526E-05
    0.12396369734942774057E-04
    0.14007262898484764161E-04
    0.25293406565279926541E-04
    0.46521998109538918037E-04
    0.71883519506757670003E-04
    0.12064088982022608460E-03
    0.12077145926292810209E-03
    0.22047183490283257606E-03
    0.15840369812546230039E-03
    0.82861634447651375695E-04
    0.50710478138745326501E-04
    0.33511505707412311643E-04
    0.34003265342901709814E-04
    0.21181175091613062245E-04
    0.53493746350676395370E-04
    0.70729507808611722665E-04
    0.66326170186145312293E-05
    0.74088997268896306328E-05
    0.85268614538152923788E-05
    0.10074076384979251106E-04
    0.98979853830631979287E-05
    0.12982065865906587755E-04
    0.11570119385633726225E-04
    0.90070620646829136939E-05
    0.83034374659457739541E-05
    0.75649226256110313563E-05
    0.71141763842160411467E-05
    0.65610258933255547435E-05
    0.76707285436283637498E-05
    0.82946177328365429876E-05
    0.15568741315611206016E-04
    0.24500663348032559449E-04
    0.38832054333610903731E-04
    0.57442798111448982955E-04
    0.51296395040126998677E-04
    0.85113950995993511691E-04
    0.61923703628102407730E-04
    0.34476115266625407022E-04
    0.22414447352632499720E-04
    0.15914211338974881848E-04
    0.16711846311803402903E-04
    0.12152537267219523716E-04
    0.24873049140673657667E-04
    0.31106326884174205374E-04
    0.23796736743836186196E-03
    0.52208152372121871369E-03
    0.67165354465053661408E-03
    0.90895253985142060015E-03
    0.10860170445467023665E-02
    0.16186284383506756301E-02
    0.16504917693164243911E-02
    0.97902578202887537151E-03
    0.55330440616226355798E-03
    0.32420021818377938588E-03
    0.35079799401804411408E-03
    0.17914142199966214138E-03
    0.63971794844660536620E-03
    0.81441217021011199067E-03
    0.92627101896429302197E-03
    0.12119638861426129933E-02
    0.11345177619415682500E-02
    0.13605823965278267870E-02
    0.18157471357968029899E-02
    0.24014308314578539268E-02
    0.29588071622401704470E-02
    0.23219548160858835377E-02
    0.23482554644939290442E-02
    0.18212691719084509422E-02
    0.14721426305969211035E-02
    0.10193884163815912936E-02
    0.15747322138257911859E-02