# vtk DataFile Version 3.0
LAPLACIEN  2D
ASCII
DATASET UNSTRUCTURED_GRID
 POINTS        1857  float
   3.1250000000000000E-002  0.93750000000000000        0.0000000000000000     
   6.2500000000000000E-002  0.93750000000000000        0.0000000000000000     
   6.2500000000000000E-002  0.96875000000000000        0.0000000000000000     
   1.8749999999999999E-002  0.95625000000000004        0.0000000000000000     
   4.0625000000000001E-002  0.95937499999999998        0.0000000000000000     
   4.3749999999999997E-002  0.98124999999999996        0.0000000000000000     
   2.1874999999999999E-002  0.97812500000000002        0.0000000000000000     
   9.3750000000000000E-002  0.93750000000000000        0.0000000000000000     
  0.12500000000000000       0.93750000000000000        0.0000000000000000     
  0.12500000000000000       0.96875000000000000        0.0000000000000000     
   8.1250000000000003E-002  0.95625000000000004        0.0000000000000000     
  0.10312499999999999       0.95937499999999998        0.0000000000000000     
  0.10625000000000000       0.98124999999999996        0.0000000000000000     
   8.4375000000000006E-002  0.97812500000000002        0.0000000000000000     
   3.1250000000000000E-002  0.87500000000000000        0.0000000000000000     
   6.2500000000000000E-002  0.87500000000000000        0.0000000000000000     
   6.2500000000000000E-002  0.90625000000000000        0.0000000000000000     
   1.8749999999999999E-002  0.89375000000000004        0.0000000000000000     
   4.0625000000000001E-002  0.89687499999999998        0.0000000000000000     
   4.3749999999999997E-002  0.91874999999999996        0.0000000000000000     
   2.1874999999999999E-002  0.91562500000000002        0.0000000000000000     
   9.3750000000000000E-002  0.87500000000000000        0.0000000000000000     
  0.12500000000000000       0.87500000000000000        0.0000000000000000     
  0.12500000000000000       0.90625000000000000        0.0000000000000000     
   8.1250000000000003E-002  0.89375000000000004        0.0000000000000000     
  0.10312499999999999       0.89687499999999998        0.0000000000000000     
  0.10625000000000000       0.91874999999999996        0.0000000000000000     
   8.4375000000000006E-002  0.91562500000000002        0.0000000000000000     
  0.15625000000000000       0.93750000000000000        0.0000000000000000     
  0.18750000000000000       0.93750000000000000        0.0000000000000000     
  0.18750000000000000       0.96875000000000000        0.0000000000000000     
  0.14374999999999999       0.95625000000000004        0.0000000000000000     
  0.16562499999999999       0.95937499999999998        0.0000000000000000     
  0.16875000000000001       0.98124999999999996        0.0000000000000000     
  0.14687500000000001       0.97812500000000002        0.0000000000000000     
  0.21875000000000000       0.93750000000000000        0.0000000000000000     
  0.25000000000000000       0.93750000000000000        0.0000000000000000     
  0.25000000000000000       0.96875000000000000        0.0000000000000000     
  0.20624999999999999       0.95625000000000004        0.0000000000000000     
  0.22812499999999999       0.95937499999999998        0.0000000000000000     
  0.23125000000000001       0.98124999999999996        0.0000000000000000     
  0.20937500000000001       0.97812500000000002        0.0000000000000000     
  0.15625000000000000       0.87500000000000000        0.0000000000000000     
  0.18750000000000000       0.87500000000000000        0.0000000000000000     
  0.18750000000000000       0.90625000000000000        0.0000000000000000     
  0.14374999999999999       0.89375000000000004        0.0000000000000000     
  0.16562499999999999       0.89687499999999998        0.0000000000000000     
  0.16875000000000001       0.91874999999999996        0.0000000000000000     
  0.14687500000000001       0.91562500000000002        0.0000000000000000     
  0.21875000000000000       0.87500000000000000        0.0000000000000000     
  0.25000000000000000       0.87500000000000000        0.0000000000000000     
  0.25000000000000000       0.90625000000000000        0.0000000000000000     
  0.20624999999999999       0.89375000000000004        0.0000000000000000     
  0.22812499999999999       0.89687499999999998        0.0000000000000000     
  0.23125000000000001       0.91874999999999996        0.0000000000000000     
  0.20937500000000001       0.91562500000000002        0.0000000000000000     
   3.1250000000000000E-002  0.81250000000000000        0.0000000000000000     
   6.2500000000000000E-002  0.81250000000000000        0.0000000000000000     
   6.2500000000000000E-002  0.84375000000000000        0.0000000000000000     
   1.8749999999999999E-002  0.83125000000000004        0.0000000000000000     
   4.0625000000000001E-002  0.83437499999999998        0.0000000000000000     
   4.3749999999999997E-002  0.85624999999999996        0.0000000000000000     
   2.1874999999999999E-002  0.85312500000000002        0.0000000000000000     
   9.3750000000000000E-002  0.81250000000000000        0.0000000000000000     
  0.12500000000000000       0.81250000000000000        0.0000000000000000     
  0.12500000000000000       0.84375000000000000        0.0000000000000000     
   8.1250000000000003E-002  0.83125000000000004        0.0000000000000000     
  0.10312499999999999       0.83437499999999998        0.0000000000000000     
  0.10625000000000000       0.85624999999999996        0.0000000000000000     
   8.4375000000000006E-002  0.85312500000000002        0.0000000000000000     
   3.1250000000000000E-002  0.75000000000000000        0.0000000000000000     
   6.2500000000000000E-002  0.75000000000000000        0.0000000000000000     
   6.2500000000000000E-002  0.78125000000000000        0.0000000000000000     
   1.8749999999999999E-002  0.76875000000000004        0.0000000000000000     
   4.0625000000000001E-002  0.77187499999999998        0.0000000000000000     
   4.3749999999999997E-002  0.79374999999999996        0.0000000000000000     
   2.1874999999999999E-002  0.79062500000000002        0.0000000000000000     
   9.3750000000000000E-002  0.75000000000000000        0.0000000000000000     
  0.12500000000000000       0.75000000000000000        0.0000000000000000     
  0.12500000000000000       0.78125000000000000        0.0000000000000000     
   8.1250000000000003E-002  0.76875000000000004        0.0000000000000000     
  0.10312499999999999       0.77187499999999998        0.0000000000000000     
  0.10625000000000000       0.79374999999999996        0.0000000000000000     
   8.4375000000000006E-002  0.79062500000000002        0.0000000000000000     
  0.15625000000000000       0.81250000000000000        0.0000000000000000     
  0.18750000000000000       0.81250000000000000        0.0000000000000000     
  0.18750000000000000       0.84375000000000000        0.0000000000000000     
  0.14374999999999999       0.83125000000000004        0.0000000000000000     
  0.16562499999999999       0.83437499999999998        0.0000000000000000     
  0.16875000000000001       0.85624999999999996        0.0000000000000000     
  0.14687500000000001       0.85312500000000002        0.0000000000000000     
  0.21875000000000000       0.81250000000000000        0.0000000000000000     
  0.25000000000000000       0.81250000000000000        0.0000000000000000     
  0.25000000000000000       0.84375000000000000        0.0000000000000000     
  0.20624999999999999       0.83125000000000004        0.0000000000000000     
  0.22812499999999999       0.83437499999999998        0.0000000000000000     
  0.23125000000000001       0.85624999999999996        0.0000000000000000     
  0.20937500000000001       0.85312500000000002        0.0000000000000000     
  0.15625000000000000       0.75000000000000000        0.0000000000000000     
  0.18750000000000000       0.75000000000000000        0.0000000000000000     
  0.18750000000000000       0.78125000000000000        0.0000000000000000     
  0.14374999999999999       0.76875000000000004        0.0000000000000000     
  0.16562499999999999       0.77187499999999998        0.0000000000000000     
  0.16875000000000001       0.79374999999999996        0.0000000000000000     
  0.14687500000000001       0.79062500000000002        0.0000000000000000     
  0.21875000000000000       0.75000000000000000        0.0000000000000000     
  0.25000000000000000       0.75000000000000000        0.0000000000000000     
  0.25000000000000000       0.78125000000000000        0.0000000000000000     
  0.20624999999999999       0.76875000000000004        0.0000000000000000     
  0.22812499999999999       0.77187499999999998        0.0000000000000000     
  0.23125000000000001       0.79374999999999996        0.0000000000000000     
  0.20937500000000001       0.79062500000000002        0.0000000000000000     
  0.28125000000000000       0.93750000000000000        0.0000000000000000     
  0.31250000000000000       0.93750000000000000        0.0000000000000000     
  0.31250000000000000       0.96875000000000000        0.0000000000000000     
  0.26874999999999999       0.95625000000000004        0.0000000000000000     
  0.29062500000000002       0.95937499999999998        0.0000000000000000     
  0.29375000000000001       0.98124999999999996        0.0000000000000000     
  0.27187499999999998       0.97812500000000002        0.0000000000000000     
  0.34375000000000000       0.93750000000000000        0.0000000000000000     
  0.37500000000000000       0.93750000000000000        0.0000000000000000     
  0.37500000000000000       0.96875000000000000        0.0000000000000000     
  0.33124999999999999       0.95625000000000004        0.0000000000000000     
  0.35312500000000002       0.95937499999999998        0.0000000000000000     
  0.35625000000000001       0.98124999999999996        0.0000000000000000     
[...]
 CELL_DATA        3584
 SCALARS Cells_density float
 LOOKUP_TABLE default
    0.99996067628817053574E+00
    0.99999934243912225185E+00
    0.99998533541467560237E+00
    0.99999365378491844591E+00
    0.99999885247861752813E+00
    0.99995015463963643487E+00
    0.99997117933901602527E+00
    0.99997063477445724544E+00
    0.99996707460387190824E+00
    0.99996964463001647427E+00
    0.99997219151647387392E+00
    0.99997497834434123654E+00
    0.99999531854713863410E+00
    0.99999614136650771812E+00
    0.10000013824496141179E+01
    0.10000087967310338222E+01
    0.99998904121217357943E+00
    0.99999550376068224722E+00
    0.99999891874582447215E+00
    0.99995111798783531398E+00
    0.99997122072793509506E+00
    0.99996680348639133129E+00
    0.99997409021966310316E+00
    0.99995884289521763666E+00
    0.99999800718045750436E+00
    0.99999038931820594112E+00
    0.99999352318462841893E+00
    0.99999347385881565131E+00
    0.99996163097423940158E+00
    0.99999966478250301716E+00
    0.99998726930515213773E+00
    0.99999679053070900103E+00
    0.10000058233767368243E+01
    0.99998530509499228280E+00
    0.99999223668374281893E+00
    0.99999629059023475985E+00
    0.99994889729593705585E+00
    0.99997044645149102404E+00
    0.99996690881226224512E+00
    0.99997463583403201071E+00
    0.99999358886763012322E+00
    0.99999544528395789555E+00
    0.10000010495304096914E+01
    0.10000101516770321108E+01
    0.99999101637032361545E+00
    0.99999873415684470412E+00
    0.10000073808531235731E+01
    0.99998723626028795941E+00
    0.99999655893854999533E+00
    0.10000094151195721981E+01
    0.99999335562952751388E+00
    0.99999852213832773895E+00
    0.10000091582753058983E+01
    0.99999254651791069648E+00
    0.99999716569247165676E+00
    0.99999806653416190017E+00
    0.10000023887387636812E+01
    0.10000094066610218935E+01
    0.99998936916149638865E+00
    0.99999572405225012339E+00
    0.99999921325127871796E+00
    0.99995131365308931315E+00
    0.99997153622674450624E+00
    0.99996734589183022823E+00
    0.99997495939589731151E+00
    0.99995991429676345241E+00
    0.99999901799359092180E+00
    0.99999184623071935007E+00
    0.99999414576998402193E+00
    0.99999398296011210441E+00
    0.10000024692212792221E+01
    0.10000094479107781709E+01
    0.99998938602118525587E+00
    0.99999573386872209202E+00
    0.99999922893151282910E+00
    0.99995132244172779679E+00
    0.99997155370056889367E+00
    0.99996738541215246521E+00
    0.99997504016741334265E+00
    0.99996004226229950884E+00
    0.99999911294314935972E+00
    0.99999199423996776304E+00
    0.99999419149267076978E+00
    0.99999401727964842834E+00
    0.10000020216355196556E+01
    0.10000107456609594880E+01
    0.99999133443995502635E+00
    0.99999894942883260640E+00
    0.10000076788738441191E+01
    0.99998743382167909477E+00
    0.99999688985959589438E+00
    0.10000100088525787356E+01
    0.99999434451323221396E+00
    0.99999929661844388917E+00
    0.10000092566213376610E+01
    0.99999394622383674935E+00
    0.99999776551485042297E+00
    0.99999858882816905492E+00
    0.10000020992437816947E+01
    0.10000107852255941676E+01
    0.99999135059835031480E+00
    0.99999895880271749693E+00
    0.10000076938446884611E+01
    0.99998744223091373673E+00
    0.99999690669171159563E+00
    0.10000100471760884346E+01
    0.99999442398105764518E+00
    0.99999942322196078148E+00
    0.10000093486695629252E+01
    0.99999408990371296824E+00
    0.99999780942522575877E+00
    0.99999862174607478948E+00
    0.99996181938189843130E+00
    0.99999994918767998175E+00
    0.99998747632487372528E+00
    0.99999709249318213811E+00
    0.10000064032536359893E+01
    0.99998620502068380489E+00
    0.99999378510273728704E+00
    0.99999734596301526057E+00
    0.99994999508376702924E+00
    0.99997133219513312241E+00
    0.99996745085891314275E+00
    0.99997494518669605146E+00
    0.99999409216942714007E+00
    0.99999606588536915641E+00
    0.10000012266353930368E+01
    0.10000104215034661959E+01
    0.99999121207579022563E+00
    0.99999902561586118122E+00
    0.10000079399891499410E+01
    0.99998813931286734125E+00
    0.99999803172621803959E+00
    0.10000103023700597227E+01
    0.99999385847536104155E+00
    0.99999868885643405925E+00
    0.10000087235626777815E+01
    0.99999282166761527257E+00
    0.99999761368083872615E+00
    0.99999864231172796991E+00
    0.99996182748729123269E+00
    0.99999996359318121808E+00
    0.99998748515087865218E+00
    0.99999710763913784994E+00
    0.10000064410089322120E+01
    0.99998627886806290554E+00
    0.99999392391008201653E+00
    0.99999743519450001727E+00
    0.99995011706282321828E+00
    0.99997140864365496871E+00
    0.99996748790162048870E+00
    0.99997496145367248399E+00
    0.99999412400018616864E+00
    0.99999610832868368604E+00
    0.10000012339865249622E+01
    0.10000104345604761136E+01
    0.99999122010850183262E+00
    0.99999903957911528973E+00
    0.10000079748326962115E+01
    0.99998820839849988928E+00
    0.99999816147481046524E+00
    0.10000103849332819816E+01
    0.99999397238810705524E+00
    0.99999876080506400200E+00
    0.10000087578329508453E+01
    0.99999283665217941763E+00
    0.99999764276772928895E+00
    0.99999868122176671648E+00
    0.10000021942294117228E+01
    0.10000110124128209765E+01
    0.99999152754923570363E+00
    0.99999923833008474983E+00
    0.10000082330260773311E+01
    0.99998833103988027382E+00
    0.99999835242505696886E+00
    0.10000108834820868875E+01
    0.99999484620259060375E+00
    0.10000000642658606331E+01
    0.10000097628092265989E+01
    0.99999423471583437362E+00
    0.99999823863873293917E+00
    0.99999916046807812986E+00
    0.10000022708501357105E+01
    0.10000110508007897803E+01
    0.99999154043992977137E+00
    0.99999924516213500869E+00
    0.10000082471568649822E+01
    0.99998833910863982322E+00
    0.99999836862440749652E+00
    0.10000109205023621772E+01
    0.99999492289924929445E+00
    0.10000001868984620401E+01
    0.10000098526959126932E+01
    0.99999437654410550103E+00
    0.99999828165729631735E+00
    0.99999919259615521749E+00
    0.10000022010702873665E+01
    0.10000110244608284571E+01
    0.99999153293475073756E+00
    0.99999924892489588935E+00
    0.10000082665654552727E+01
    0.99998839902676117664E+00
    0.99999848010799874398E+00
    0.10000109636822152037E+01
    0.99999495601664678546E+00
    0.10000001324083940268E+01
    0.10000097952400770485E+01
    0.99999424868405784039E+00
    0.99999826667408897585E+00
    0.99999919827964767194E+00
    0.10000022229972467258E+01
    0.10000109463062218929E+01
    0.99999097324520325181E+00
    0.99999866110564072930E+00
    0.10000081636394531071E+01
    0.99998835257933649245E+00
    0.99999848621427855910E+00
    0.10000109922518085614E+01
    0.99999503160280134306E+00
    0.10000002538871020086E+01
    0.10000098766433771491E+01
    0.99999438031835430341E+00
    0.99999828392805190092E+00
    0.99999920462188984782E+00
    0.10000024716915323353E+01
    0.10000094489585611424E+01
    0.99998938635381229290E+00
    0.99999573399466357149E+00
    0.99999922923129114238E+00
    0.99995132259201524594E+00
    0.99997155404936455270E+00
    0.99996738640114279928E+00
    0.99997504264120462558E+00
    0.99996004700372476126E+00
    0.99999911606493607774E+00
    0.99999199992545262372E+00
    0.99999419269394951293E+00
    0.99999401809219568005E+00
    0.10000024717218991555E+01
    0.10000094489704207668E+01
    0.99998938634942358128E+00
    0.99999573399398555829E+00
    0.99999922923430573096E+00
    0.99995132259404484465E+00
    0.99997155405357496250E+00
    0.99996738641378057899E+00
    0.99997504267452130833E+00
    0.99996004707564867253E+00
    0.99999911610699243614E+00
    0.99999199999839127884E+00
    0.99999419270860956388E+00
    0.99999401810151999914E+00
    0.10000021015517250866E+01
    0.10000107861455849179E+01
    0.99999135047233400631E+00
    0.99999895869997368347E+00
    0.10000076940907263179E+01
    0.99998744237199610474E+00
    0.99999690702959975752E+00
    0.10000100481320630674E+01
    0.99999442638960100993E+00
    0.99999942776156336421E+00
    0.10000093516476324940E+01
    0.99999409532786953658E+00
    0.99999781058040704274E+00
    0.99999862252340276925E+00
    0.10000020986998869876E+01
    0.10000107842133119096E+01
    0.99999134386802335239E+00
    0.99999895591846410525E+00
    0.10000076934617665447E+01
    0.99998744222186275454E+00
    0.99999690700351206996E+00
    0.10000100480862201824E+01
    0.99999442641437175094E+00
    0.99999942781543915693E+00
    0.10000093515167514102E+01
    0.99999409488621882058E+00
    0.99999781021187839070E+00
    0.99999862228213276527E+00
    0.10000024716910902445E+01
    0.10000094489573769785E+01
    0.99998938630781986081E+00
    0.99999573398147623138E+00
    0.99999922923153949927E+00
    0.99995132259361096949E+00
    0.99997155405354098967E+00
    0.99996738641379034895E+00
    0.99997504267494785601E+00
    0.99996004707640995246E+00
    0.99999911610599812040E+00
    0.99999199999455257171E+00
    0.99999419270608735921E+00
    0.99999401810051957717E+00
    0.10000024716207520648E+01
    0.10000094489352822080E+01
    0.99998938626150535303E+00
    0.99999573396968144401E+00
    0.99999922922870754238E+00
    0.99995132259281394038E+00
    0.99997155405320070631E+00
    0.99996738641322024943E+00
    0.99997504267475434414E+00
    0.99996004707590424587E+00
    0.99999911610239111681E+00
    0.99999199997973975407E+00
    0.99999419270204581434E+00
    0.99999401809834043142E+00
    0.10000020787686054735E+01
    0.10000107743389221593E+01
    0.99999131728707180145E+00
    0.99999894639748565517E+00
    0.10000076911437230098E+01
    0.99998744170879205750E+00
    0.99999690687319409133E+00
    0.10000100477812503552E+01
    0.99999442632665247466E+00
    0.99999942759921944813E+00
    0.10000093501911979654E+01
    0.99999409055546273351E+00
    0.99999780797140525035E+00
    0.99999862101657455149E+00
    0.10000020340121944518E+01
    0.10000107582363346737E+01
    0.99999128661399994122E+00
    0.99999893748689472339E+00
    0.10000076887983735396E+01
    0.99998744127814120919E+00
    0.99999690673105534611E+00
    0.10000100473118966882E+01
    0.99999442613346656294E+00
    0.99999942703487731954E+00
    0.10000093471372908382E+01
    0.99999407941967133340E+00
    0.99999780416191852428E+00
    0.99999861911205101261E+00
    0.10000022357075333268E+01
    0.10000110106030613011E+01
    0.99999138816107935313E+00
    0.99999915265075722814E+00
    0.10000082247142032532E+01
    0.99998833168299960938E+00
    0.99999836746629955364E+00
    0.10000109194534856361E+01
    0.99999492502996334409E+00
    0.10000001910445404096E+01
    0.10000098522643952048E+01
    0.99999437515187650227E+00
    0.99999827414550424010E+00
    0.99999918621901973115E+00
    0.10000018882055061731E+01
    0.10000103954666168526E+01
    0.99998987593399069063E+00
    0.99999843008054889459E+00
    0.10000079720624348578E+01
    0.99998825551123504685E+00
    0.99999834866282011347E+00
    0.10000108892871746313E+01
    0.99999491775099969004E+00
    0.10000001781799556788E+01
    0.10000097779078946925E+01
    0.99999419537068157116E+00
    0.99999811656180448427E+00
    0.99999907618015593247E+00
    0.99998239977330460881E+00
    0.99998755181967480254E+00
    0.99980240915076457053E+00
    0.99995253583187171387E+00
    0.10000027633734174248E+01
    0.99998670022326940909E+00
    0.99999828243906230263E+00
    0.10000105332094235688E+01
    0.99999494661462084988E+00
    0.10000001403067113603E+01
    0.10000090272785437939E+01
    0.99999210800731996862E+00
    0.99999508638971357222E+00
    0.99999747784640546922E+00
    0.99896017634949840769E+00
    0.99970590584883889385E+00
    0.99880850830107326122E+00
    0.99970462916364122297E+00
    0.99994909943199250524E+00
    0.99997088047526772048E+00
    0.99999477773094669342E+00
    0.10000067691225955624E+01
    0.99999354568986920100E+00
    0.99999688698530542208E+00
    0.99999057016245962437E+00
    0.99987307192564911507E+00
    0.99995198669732865415E+00
    0.99997570585852435521E+00
    0.99999881151877811902E+00
    0.10000104174972705984E+01
    0.99998452180772789966E+00
    0.99999745080014634802E+00
    0.10000082125536000621E+01
    0.99998802521346152883E+00
    0.99999827560936904725E+00
    0.10000107403901321579E+01
    0.99999486849548580025E+00
    0.10000000738261913824E+01
    0.10000092617101143944E+01
    0.99999287808393833021E+00
    0.99999755762233721867E+00
    0.99999879032145544411E+00
    0.99998670834806246965E+00
    0.10000065908757591604E+01
    0.99997565170917002142E+00
    0.99999432425576162409E+00
    0.10000076292201367512E+01
    0.99998783282673542328E+00
    0.99999819373382481391E+00
    0.10000105110361372507E+01
    0.99999475897921996648E+00
    0.99999980859139336875E+00
    0.10000092827346260815E+01
    0.99999076364499039915E+00
    0.99999633371814600213E+00
    0.99999813071930854225E+00
    0.99797880546969963689E+00
    0.99919394634171943004E+00
    0.99772692838064325205E+00
    0.99915367476816296932E+00
    0.99976926515835518039E+00
    0.99991281616511418218E+00
    0.99997627225052065914E+00
    0.99997380944622726862E+00
    0.99998296372340422788E+00
    0.99997501243136799332E+00
    0.99989616647672441285E+00
    0.99961861245797611897E+00
    0.99979703426350408080E+00
    0.99986972998801570967E+00
    0.99612136994790190236E+00
    0.99829204381016678482E+00
    0.99631481956409495560E+00
    0.99858678406026002428E+00
    0.99956278862383141082E+00
    0.99985976427836298353E+00
    0.99995332911077494664E+00
    0.99991416504257557563E+00
    0.99995413226385831962E+00
    0.99991058801219401264E+00
    0.99965047251900596148E+00
    0.99897348306834321541E+00
    0.99949969574989971921E+00
    0.99968750940822181938E+00
    0.99996182761513019432E+00
    0.99999996385767719875E+00
    0.99998748529151004760E+00
    0.99999710792284834948E+00
    0.10000064419183256614E+01
    0.99998628102305120446E+00
    0.99999392898642758265E+00
    0.99999743800317786313E+00
    0.99995012143986428121E+00
    0.99997141090205743374E+00
    0.99996748878769869950E+00
    0.99997496175995914669E+00
    0.99999412471684878678E+00
    0.99999610939030403323E+00
    0.10000012340959241186E+01
    0.10000104347531395543E+01
    0.99999122000326212678E+00
    0.99999903937584877500E+00
    0.10000079755632886869E+01
    0.99998821029371787183E+00
    0.99999816607050895367E+00
    0.10000103874577463969E+01
    0.99999397634408460078E+00
    0.99999876288224531784E+00
    0.10000087586371153581E+01
    0.99999283693229235048E+00
    0.99999764340541863472E+00
    0.99999868217824072758E+00
    0.99996182761559426755E+00
    0.99999996385897960138E+00
    0.99998748528921421741E+00
    0.99999710791576201796E+00
    0.10000064419247680636E+01
    0.99998628104429676533E+00
    0.99999392905660644537E+00
    0.99999743803673879494E+00
    0.99995012149807527280E+00
    0.99997141092718611066E+00
    0.99996748879557606493E+00
    0.99997496176202715912E+00
    0.99999412472288873310E+00
    0.99999610940064365128E+00
    0.10000012339430264241E+01
    0.10000104341183349010E+01
    0.99999121721221750914E+00
    0.99999903274899726302E+00
    0.10000079736116584961E+01
    0.99998820740668203921E+00
    0.99999816561179855068E+00
    0.10000103873104835284E+01
    0.99999397637861364707E+00
    0.99999876289610478697E+00
    0.10000087585845629512E+01
    0.99999283690284423987E+00
    0.99999764315594530384E+00
    0.99999868179807938073E+00
    0.10000021935424856512E+01
    0.10000110018223418162E+01
    0.99999144019798613670E+00
    0.99999909748746951266E+00
    0.10000082259845590738E+01
    0.99998836330305052034E+00
    0.99999847778072448179E+00
    0.10000109626984774458E+01
    0.99999495946633953913E+00
    0.10000001341249982190E+01
    0.10000097939727659035E+01
    0.99999424742728959536E+00
    0.99999826005612324487E+00
    0.99999919045206187018E+00
    0.10000009330087229475E+01
    0.10000061713811292385E+01
    0.99994251900899688845E+00
    0.99981040158485279257E+00
    0.99998393275458208329E+00
    0.99996750907953402265E+00
    0.99999681029298193025E+00
    0.10000101562451637616E+01
    0.99999491722799072058E+00
    0.10000001682451558072E+01
    0.10000094181982994712E+01
    0.99999397369631692900E+00
    0.99999644672796439426E+00
    0.99999586692287811829E+00
    0.10000021173630133653E+01
    0.10000107541660363530E+01
    0.99999058735863166625E+00
    0.99999875502128998672E+00
    0.10000081316439741741E+01
    0.99998756096279606265E+00
    0.99999829903545589538E+00
    0.10000108881130802541E+01
    0.99999494650807940754E+00
    0.10000001267906895031E+01
    0.10000097637245928262E+01
    0.99999422858559483540E+00
    0.99999814977828049845E+00
    0.99999903317456639851E+00
    0.99998601182999480308E+00
    0.99995323700071536699E+00
    0.99969302186216579820E+00
    0.99881526684648092029E+00
    0.99970094772081496970E+00
    0.99894468678343395496E+00
    0.99987577642438130177E+00
    0.99999102261193428820E+00
    0.99999216039820970625E+00
    0.99999836589423463096E+00
    0.10000055841326405126E+01
    0.99999084937675775109E+00
    0.99997432714206069271E+00
    0.99995203004003463398E+00
    0.99996182761551122287E+00
    0.99999996385658396214E+00
    0.99998748527672953745E+00
    0.99999710787446038918E+00
    0.10000064419113039449E+01
    0.99998628101300801596E+00
    0.99999392905138362320E+00
    0.99999743803566587541E+00
    0.99995012149819761937E+00
    0.99997141092721952838E+00
    0.99996748879544183897E+00
    0.99997496176210587393E+00
    0.99999412472176751887E+00
    0.99999610939790639641E+00
    0.10000012334297123662E+01
    0.10000104317989026992E+01
    0.99999120768871641030E+00
    0.99999900615634840229E+00
    0.10000079637302439206E+01
    0.99998818746093631749E+00
    0.99999816127064566906E+00
    0.10000103859813194163E+01
    0.99999397616027230207E+00
    0.99999876280738986267E+00
    0.10000087582785435192E+01
    0.99999283677280248472E+00
    0.99999764188914974650E+00
    0.99999867955396681829E+00
    0.99996182762179008918E+00
    0.99999996385903777707E+00
    0.99998748527078396009E+00
    0.99999710783237882872E+00
    0.10000064418915162179E+01
    0.99998628094358743557E+00
    0.99999392903724526604E+00
    0.99999743803315577217E+00
    0.99995012149812090296E+00
    0.99997141092800490014E+00
    0.99996748879745589456E+00
    0.99997496176595723760E+00
    0.99999412472234128213E+00
    0.99999610939555827471E+00
    0.10000012330046523790E+01
    0.10000104294575169472E+01
    0.99999119878092057601E+00
    0.99999897544537563743E+00
    0.10000079476286043434E+01
    0.99998814275868208590E+00
    0.99999815013575621414E+00
    0.10000103829278923495E+01
    0.99999397559618130593E+00
    0.99999876261524300869E+00
    0.10000087578121688026E+01
    0.99999283663465354799E+00
    0.99999763998674384702E+00
    0.99999867574653844571E+00
    0.10000018761154150226E+01
    0.10000109938810481935E+01
    0.99998831951951083763E+00
    0.99999256229809341256E+00
    0.10000068526077086073E+01
    0.99998359313101947698E+00
    0.99999800173811248527E+00
    0.10000106982721641558E+01
    0.99999484289032924966E+00
    0.10000000775258397478E+01
    0.10000096118670860346E+01
    0.99999415521954759800E+00
    0.99999762541807002414E+00
    0.99999824220981792244E+00
    0.99992841190244285965E+00
    0.99977361825444854837E+00
    0.99914153958082729812E+00
    0.99773341244122848437E+00
    0.99919015844572700580E+00
    0.99796444789146609988E+00
    0.99961977229452858573E+00
    0.99989577302493559685E+00
    0.99997333929588727575E+00
    0.99998827959014602307E+00
    0.99997265949939384555E+00
    0.99997301376812175455E+00