# vtk DataFile Version 3.0
LAPLACIEN  2D
ASCII
DATASET UNSTRUCTURED_GRID
 POINTS        1857  float
   3.1250000000000000E-002  0.93750000000000000        0.0000000000000000     
   6.2500000000000000E-002  0.93750000000000000        0.0000000000000000     
   6.2500000000000000E-002  0.96875000000000000        0.0000000000000000     
   1.8749999999999999E-002  0.95625000000000004        0.0000000000000000     
   4.0625000000000001E-002  0.95937499999999998        0.0000000000000000     
   4.3749999999999997E-002  0.98124999999999996        0.0000000000000000     
   2.1874999999999999E-002  0.97812500000000002        0.0000000000000000     
   9.3750000000000000E-002  0.93750000000000000        0.0000000000000000     
  0.12500000000000000       0.93750000000000000        0.0000000000000000     
  0.12500000000000000       0.96875000000000000        0.0000000000000000     
   8.1250000000000003E-002  0.95625000000000004        0.0000000000000000     
  0.10312499999999999       0.95937499999999998        0.0000000000000000     
  0.10625000000000000       0.98124999999999996        0.0000000000000000     
   8.4375000000000006E-002  0.97812500000000002        0.0000000000000000     
   3.1250000000000000E-002  0.87500000000000000        0.0000000000000000     
   6.2500000000000000E-002  0.87500000000000000        0.0000000000000000     
   6.2500000000000000E-002  0.90625000000000000        0.0000000000000000     
   1.8749999999999999E-002  0.89375000000000004        0.0000000000000000     
   4.0625000000000001E-002  0.89687499999999998        0.0000000000000000     
   4.3749999999999997E-002  0.91874999999999996        0.0000000000000000     
   2.1874999999999999E-002  0.91562500000000002        0.0000000000000000     
   9.3750000000000000E-002  0.87500000000000000        0.0000000000000000     
  0.12500000000000000       0.87500000000000000        0.0000000000000000     
  0.12500000000000000       0.90625000000000000        0.0000000000000000     
   8.1250000000000003E-002  0.89375000000000004        0.0000000000000000     
  0.10312499999999999       0.89687499999999998        0.0000000000000000     
  0.10625000000000000       0.91874999999999996        0.0000000000000000     
   8.4375000000000006E-002  0.91562500000000002        0.0000000000000000     
  0.15625000000000000       0.93750000000000000        0.0000000000000000     
  0.18750000000000000       0.93750000000000000        0.0000000000000000     
  0.18750000000000000       0.96875000000000000        0.0000000000000000     
  0.14374999999999999       0.95625000000000004        0.0000000000000000     
  0.16562499999999999       0.95937499999999998        0.0000000000000000     
  0.16875000000000001       0.98124999999999996        0.0000000000000000     
  0.14687500000000001       0.97812500000000002        0.0000000000000000     
  0.21875000000000000       0.93750000000000000        0.0000000000000000     
  0.25000000000000000       0.93750000000000000        0.0000000000000000     
  0.25000000000000000       0.96875000000000000        0.0000000000000000     
  0.20624999999999999       0.95625000000000004        0.0000000000000000     
  0.22812499999999999       0.95937499999999998        0.0000000000000000     
  0.23125000000000001       0.98124999999999996        0.0000000000000000     
  0.20937500000000001       0.97812500000000002        0.0000000000000000     
  0.15625000000000000       0.87500000000000000        0.0000000000000000     
  0.18750000000000000       0.87500000000000000        0.0000000000000000     
  0.18750000000000000       0.90625000000000000        0.0000000000000000     
  0.14374999999999999       0.89375000000000004        0.0000000000000000     
  0.16562499999999999       0.89687499999999998        0.0000000000000000     
  0.16875000000000001       0.91874999999999996        0.0000000000000000     
  0.14687500000000001       0.91562500000000002        0.0000000000000000     
  0.21875000000000000       0.87500000000000000        0.0000000000000000     
  0.25000000000000000       0.87500000000000000        0.0000000000000000     
  0.25000000000000000       0.90625000000000000        0.0000000000000000     
  0.20624999999999999       0.89375000000000004        0.0000000000000000     
  0.22812499999999999       0.89687499999999998        0.0000000000000000     
  0.23125000000000001       0.91874999999999996        0.0000000000000000     
  0.20937500000000001       0.91562500000000002        0.0000000000000000     
   3.1250000000000000E-002  0.81250000000000000        0.0000000000000000     
   6.2500000000000000E-002  0.81250000000000000        0.0000000000000000     
   6.2500000000000000E-002  0.84375000000000000        0.0000000000000000     
   1.8749999999999999E-002  0.83125000000000004        0.0000000000000000     
   4.0625000000000001E-002  0.83437499999999998        0.0000000000000000     
   4.3749999999999997E-002  0.85624999999999996        0.0000000000000000     
   2.1874999999999999E-002  0.85312500000000002        0.0000000000000000     
   9.3750000000000000E-002  0.81250000000000000        0.0000000000000000     
  0.12500000000000000       0.81250000000000000        0.0000000000000000     
  0.12500000000000000       0.84375000000000000        0.0000000000000000     
   8.1250000000000003E-002  0.83125000000000004        0.0000000000000000     
  0.10312499999999999       0.83437499999999998        0.0000000000000000     
  0.10625000000000000       0.85624999999999996        0.0000000000000000     
   8.4375000000000006E-002  0.85312500000000002        0.0000000000000000     
   3.1250000000000000E-002  0.75000000000000000        0.0000000000000000     
   6.2500000000000000E-002  0.75000000000000000        0.0000000000000000     
   6.2500000000000000E-002  0.78125000000000000        0.0000000000000000     
   1.8749999999999999E-002  0.76875000000000004        0.0000000000000000     
   4.0625000000000001E-002  0.77187499999999998        0.0000000000000000     
   4.3749999999999997E-002  0.79374999999999996        0.0000000000000000     
   2.1874999999999999E-002  0.79062500000000002        0.0000000000000000     
   9.3750000000000000E-002  0.75000000000000000        0.0000000000000000     
  0.12500000000000000       0.75000000000000000        0.0000000000000000     
  0.12500000000000000       0.78125000000000000        0.0000000000000000     
   8.1250000000000003E-002  0.76875000000000004        0.0000000000000000     
  0.10312499999999999       0.77187499999999998        0.0000000000000000     
  0.10625000000000000       0.79374999999999996        0.0000000000000000     
   8.4375000000000006E-002  0.79062500000000002        0.0000000000000000     
  0.15625000000000000       0.81250000000000000        0.0000000000000000     
  0.18750000000000000       0.81250000000000000        0.0000000000000000     
  0.18750000000000000       0.84375000000000000        0.0000000000000000     
  0.14374999999999999       0.83125000000000004        0.0000000000000000     
  0.16562499999999999       0.83437499999999998        0.0000000000000000     
  0.16875000000000001       0.85624999999999996        0.0000000000000000     
  0.14687500000000001       0.85312500000000002        0.0000000000000000     
  0.21875000000000000       0.81250000000000000        0.0000000000000000     
  0.25000000000000000       0.81250000000000000        0.0000000000000000     
  0.25000000000000000       0.84375000000000000        0.0000000000000000     
  0.20624999999999999       0.83125000000000004        0.0000000000000000     
  0.22812499999999999       0.83437499999999998        0.0000000000000000     
  0.23125000000000001       0.85624999999999996        0.0000000000000000     
  0.20937500000000001       0.85312500000000002        0.0000000000000000     
  0.15625000000000000       0.75000000000000000        0.0000000000000000     
  0.18750000000000000       0.75000000000000000        0.0000000000000000     
  0.18750000000000000       0.78125000000000000        0.0000000000000000     
  0.14374999999999999       0.76875000000000004        0.0000000000000000     
  0.16562499999999999       0.77187499999999998        0.0000000000000000     
  0.16875000000000001       0.79374999999999996        0.0000000000000000     
  0.14687500000000001       0.79062500000000002        0.0000000000000000     
  0.21875000000000000       0.75000000000000000        0.0000000000000000     
  0.25000000000000000       0.75000000000000000        0.0000000000000000     
  0.25000000000000000       0.78125000000000000        0.0000000000000000     
  0.20624999999999999       0.76875000000000004        0.0000000000000000     
  0.22812499999999999       0.77187499999999998        0.0000000000000000     
  0.23125000000000001       0.79374999999999996        0.0000000000000000     
  0.20937500000000001       0.79062500000000002        0.0000000000000000     
  0.28125000000000000       0.93750000000000000        0.0000000000000000     
  0.31250000000000000       0.93750000000000000        0.0000000000000000     
  0.31250000000000000       0.96875000000000000        0.0000000000000000     
  0.26874999999999999       0.95625000000000004        0.0000000000000000     
  0.29062500000000002       0.95937499999999998        0.0000000000000000     
  0.29375000000000001       0.98124999999999996        0.0000000000000000     
  0.27187499999999998       0.97812500000000002        0.0000000000000000     
  0.34375000000000000       0.93750000000000000        0.0000000000000000     
  0.37500000000000000       0.93750000000000000        0.0000000000000000     
  0.37500000000000000       0.96875000000000000        0.0000000000000000     
  0.33124999999999999       0.95625000000000004        0.0000000000000000     
  0.35312500000000002       0.95937499999999998        0.0000000000000000     
  0.35625000000000001       0.98124999999999996        0.0000000000000000     
[...]
 CELL_DATA        3584
 SCALARS Cells_density float
 LOOKUP_TABLE default
    0.99994162128171992787E+00
    0.99998083869489295950E+00
    0.99997314786604452053E+00
    0.99998239551280021509E+00
    0.99998176220381029822E+00
    0.99993265254644914108E+00
    0.99996017291124239534E+00
    0.99995378861114503355E+00
    0.99995765197932096058E+00
    0.99996170202177470099E+00
    0.99995786556301180514E+00
    0.99996397774913270418E+00
    0.99997370965075038640E+00
    0.99997382760448294547E+00
    0.99999269866284001829E+00
    0.99999852254682319863E+00
    0.99998069016542889820E+00
    0.99998593822780845741E+00
    0.99998372413062341924E+00
    0.99993377855256315723E+00
    0.99996028401660319584E+00
    0.99995269258361696441E+00
    0.99996012234038855748E+00
    0.99994098977089584945E+00
    0.99998294679769272886E+00
    0.99998007433082125583E+00
    0.99997820756609179238E+00
    0.99997711457648896793E+00
    0.99994254870703191962E+00
    0.99998267550083863586E+00
    0.99997634204735930119E+00
    0.99998921545564911639E+00
    0.99999661148662355448E+00
    0.99997803624426873093E+00
    0.99998014575579119434E+00
    0.99997954570141955877E+00
    0.99993048881587076604E+00
    0.99995703305207950251E+00
    0.99995306069987444086E+00
    0.99996301391385222779E+00
    0.99997680417102863260E+00
    0.99997971331314161603E+00
    0.99999547186485948647E+00
    0.10000038849265246998E+01
    0.99998464161421807272E+00
    0.99999273735629312654E+00
    0.10000018471148328647E+01
    0.99998095951399956771E+00
    0.99998859932412631490E+00
    0.10000024785807666294E+01
    0.99998636887601544121E+00
    0.99999310800908547403E+00
    0.10000063745875718002E+01
    0.99998803020394200214E+00
    0.99999148031793361202E+00
    0.99999182086732663066E+00
    0.99999416405768137839E+00
    0.99999959597636101094E+00
    0.99998137509037088311E+00
    0.99998644766509781068E+00
    0.99998434225428378674E+00
    0.99993422621256322635E+00
    0.99996091687835708672E+00
    0.99995363765277389678E+00
    0.99996138592744066020E+00
    0.99994231279523182465E+00
    0.99998451628015772030E+00
    0.99998251525864456646E+00
    0.99997930585292760242E+00
    0.99997805303706277513E+00
    0.99999441501362451579E+00
    0.99999974986500850260E+00
    0.99998145266867621839E+00
    0.99998650226253094075E+00
    0.99998442092985906360E+00
    0.99993428040618170805E+00
    0.99996100280647348679E+00
    0.99995378532046907960E+00
    0.99996162848897307551E+00
    0.99994264450862579974E+00
    0.99998478989072747680E+00
    0.99998289677606178039E+00
    0.99997947085960614544E+00
    0.99997818909548552568E+00
    0.99999495900365376055E+00
    0.10000043897142325555E+01
    0.99998526017001920785E+00
    0.99999323121942540471E+00
    0.10000024366257922459E+01
    0.99998141421163988518E+00
    0.99998927860949626822E+00
    0.10000033911928731811E+01
    0.99998741420369952060E+00
    0.99999334540429363205E+00
    0.10000047365447082282E+01
    0.99998808107892511732E+00
    0.99999174166838200595E+00
    0.99999245927284352575E+00
    0.99999505450536974038E+00
    0.10000043685376089897E+01
    0.99998490756819291558E+00
    0.99999292437984321769E+00
    0.10000023909698292357E+01
    0.99998140450027106496E+00
    0.99998934621214530249E+00
    0.10000035228659798214E+01
    0.99998765304374981344E+00
    0.99999320862715701530E+00
    0.10000042560267066172E+01
    0.99998841985701769630E+00
    0.99999183256435453249E+00
    0.99999254170990625745E+00
    0.99994297820131261556E+00
    0.99998324162820428906E+00
    0.99997662486734895104E+00
    0.99998883647637781813E+00
    0.99999723452147659675E+00
    0.99997831437447881608E+00
    0.99998224762462051274E+00
    0.99998103349972988774E+00
    0.99993174476664348216E+00
    0.99995827325900521476E+00
    0.99995398541229763012E+00
    0.99996362977018116158E+00
    0.99997769945805625724E+00
    0.99998071994740789226E+00
    0.99999353093845722018E+00
    0.10000039086323047055E+01
    0.99998505308484797460E+00
    0.99999337364964779873E+00
    0.10000029494152069542E+01
    0.99998250047958814335E+00
    0.99999122614055646618E+00
    0.10000039830512137407E+01
    0.99998734890657037244E+00
    0.99999157905008750902E+00
    0.10000030086833759935E+01
    0.99998573327800188704E+00
    0.99999216466136520154E+00
    0.99999325935978433666E+00
    0.99994302946853774738E+00
    0.99998331608926338543E+00
    0.99997667682034441228E+00
    0.99998891498735331673E+00
    0.99999737659028786751E+00
    0.99997851323755215791E+00
    0.99998255468489294362E+00
    0.99998128806959141190E+00
    0.99993206246965482542E+00
    0.99995850522532203630E+00
    0.99995412603941991048E+00
    0.99996371135712136535E+00
    0.99997782847928951000E+00
    0.99998087576442873381E+00
    0.99999354314582389325E+00
    0.10000039952163655155E+01
    0.99998476520031320813E+00
    0.99999300449562078530E+00
    0.10000030530324615086E+01
    0.99998260227910673592E+00
    0.99999154703762982432E+00
    0.10000042151126693479E+01
    0.99998688295284465788E+00
    0.99999167952455714214E+00
    0.10000032463140693384E+01
    0.99998581921022966501E+00
    0.99999257652402484542E+00
    0.99999367947751582886E+00
    0.99999522114365912984E+00
    0.10000047312954933876E+01
    0.99998505107322288588E+00
    0.99999308858578150883E+00
    0.10000032306565624918E+01
    0.99998278487223202227E+00
    0.99999186090471803290E+00
    0.10000048772749132731E+01
    0.99998842365033102642E+00
    0.99999414602696767851E+00
    0.10000049404195268110E+01
    0.99998868059518264406E+00
    0.99999257983417555451E+00
    0.99999345848813769866E+00
    0.99999389481190692486E+00
    0.10000041397495438300E+01
    0.99997692513719971252E+00
    0.99998822809027843039E+00
    0.10000021317132625764E+01
    0.99998114603550103396E+00
    0.99999179195460352609E+00
    0.10000041881886645445E+01
    0.99998839715935383676E+00
    0.99999418412347540475E+00
    0.10000041839258770882E+01
    0.99998779184627306638E+00
    0.99999105591338199872E+00
    0.99999198185555215890E+00
    0.99999427549001562721E+00
    0.10000046560698654385E+01
    0.99997751435564008471E+00
    0.99998545546215256152E+00
    0.10000013937467728820E+01
    0.99998007869331573261E+00
    0.99999199019549789291E+00
    0.10000041699628856584E+01
    0.99998844375748296986E+00
    0.99999410891939466417E+00
    0.10000042214733373402E+01
    0.99998791188629576610E+00
    0.99999102829399255654E+00
    0.99999177065174815748E+00
    0.99992986151109131132E+00
    0.99990936786888018339E+00
    0.99972844385749115581E+00
    0.99973856563894270000E+00
    0.99990506587642935532E+00
    0.99991377572787309980E+00
    0.99997209442552059677E+00
    0.99999119352784471282E+00
    0.99998432952973903554E+00
    0.99998806564053466239E+00
    0.99999136276074263030E+00
    0.99997074707276911720E+00
    0.99995199652254063150E+00
    0.99995255965933049769E+00
    0.99999440484510204730E+00
    0.99999973473011982694E+00
    0.99998138640145139977E+00
    0.99998646173225458345E+00
    0.99998441261802983870E+00
    0.99993427817080726694E+00
    0.99996100729675174712E+00
    0.99995379650994997700E+00
    0.99996165293974725863E+00
    0.99994268089958693313E+00
    0.99998481386839366269E+00
    0.99998292935331489772E+00
    0.99997947685469434909E+00
    0.99997819403029308827E+00
    0.99999420736273814114E+00
    0.99999959674472738147E+00
    0.99998108333366697575E+00
    0.99998619450056536184E+00
    0.99998435013686470807E+00
    0.99993425531147572816E+00
    0.99996099637599444865E+00
    0.99995378379486588027E+00
    0.99996164804296094886E+00
    0.99994267507562883956E+00
    0.99998478593806439108E+00
    0.99998286894012033965E+00
    0.99997943027043190156E+00
    0.99997815978344706256E+00
    0.99999463446244529763E+00
    0.10000043065104085027E+01
    0.99998313097067337285E+00
    0.99999274202022159219E+00
    0.10000025066396149853E+01
    0.99998098329853446486E+00
    0.99998920210558406296E+00
    0.10000033437481872234E+01
    0.99998761098305188888E+00
    0.99999315250172837732E+00
    0.10000039496121182481E+01
    0.99998791264200770357E+00
    0.99999126511635527681E+00
    0.99999207465132400330E+00
    0.99998833725927149807E+00
    0.10000019291891666384E+01
    0.99997124836413098237E+00
    0.99998763017460434721E+00
    0.10000008498875576635E+01
    0.99997959931107649467E+00
    0.99998860949158052680E+00
    0.10000024856570148835E+01
    0.99998724207456846091E+00
    0.99999258472613461457E+00
    0.10000027928541250777E+01
    0.99998640766835822369E+00
    0.99998925311038555641E+00
    0.99999050615611162485E+00
    0.99999282436701586452E+00
    0.99999919942041404219E+00
    0.99998050074932243181E+00
    0.99998578991688891193E+00
    0.99998422811291642898E+00
    0.99993421440994878502E+00
    0.99996097392718841235E+00
    0.99995375193680902104E+00
    0.99996162959806955683E+00
    0.99994264670408961049E+00
    0.99998463899633471819E+00
    0.99998186688973667025E+00
    0.99997930621079345048E+00
    0.99997807761468204824E+00
    0.99999219353159107815E+00
    0.99999877039435181025E+00
    0.99998003184608652560E+00
    0.99998557108309249486E+00
    0.99998414314397965352E+00
    0.99993418970393888046E+00
    0.99996095620961489292E+00
    0.99995371873036076327E+00
    0.99996160460444094564E+00
    0.99994260248818345183E+00
    0.99998445552507331247E+00
    0.99998121106254600488E+00
    0.99997916220004567922E+00
    0.99997799277252208405E+00
    0.99995887055952326072E+00
    0.99998488610213986938E+00
    0.99993740046474499650E+00
    0.99997023737977286384E+00
    0.99999423031187573141E+00
    0.99997771667363699599E+00
    0.99998822838598644402E+00
    0.10000027185328501655E+01
    0.99998608387096699079E+00
    0.99999094425566381616E+00
    0.10000021402795089553E+01
    0.99997895507916689795E+00
    0.99998452790402825308E+00
    0.99998759603920195360E+00
    0.99991304950383341765E+00
    0.99996269002158033601E+00
    0.99990706559894082517E+00
    0.99995449433571226283E+00
    0.99998846208083602694E+00
    0.99997616848105896903E+00
    0.99998752267332513544E+00
    0.10000013457528713623E+01
    0.99998501181702181828E+00
    0.99998827427377867672E+00
    0.99999523373121579350E+00
    0.99996060927430152621E+00
    0.99997650853195463316E+00
    0.99998272005082899927E+00
    0.99994336003665973411E+00
    0.99995320693623979125E+00
    0.99985716467298613175E+00
    0.99989930499271462150E+00
    0.99996792743312234997E+00
    0.99996344845360585207E+00
    0.99998622788663793504E+00
    0.10000005059146934716E+01
    0.99998667595753298887E+00
    0.99999082696493923894E+00
    0.10000001763277450717E+01
    0.99997634247500344351E+00
    0.99997434781126171011E+00
    0.99997771622833309113E+00
    0.99959812209746412570E+00
    0.99966601254530451648E+00
    0.99928119786889135767E+00
    0.99951017418685683680E+00
    0.99980855370874877064E+00
    0.99988784000111019523E+00
    0.99995713147840525892E+00
    0.99996059226375944018E+00
    0.99997131982715992127E+00
    0.99996695452855099973E+00
    0.99992767641286128821E+00
    0.99984980588192629014E+00
    0.99985521584990411093E+00
    0.99988045995103225216E+00
    0.99855798066111789435E+00
    0.99834752657630532191E+00
    0.99535065309026771185E+00
    0.99689213926615216632E+00
    0.99886879218577218076E+00
    0.99933872200349627146E+00
    0.99975340705399695640E+00
    0.99975838814230821860E+00
    0.99989931262341769092E+00
    0.99988966167334947244E+00
    0.99969491238693508617E+00
    0.99954708804131275901E+00
    0.99935674926099715698E+00
    0.99942880665200539703E+00
    0.98490968281484392310E+00
    0.98947147168826821151E+00
    0.97818717109371411400E+00
    0.98642421703211646822E+00
    0.99442256793651861990E+00
    0.99703218660019488073E+00
    0.99874968518168283360E+00
    0.99847886318533629613E+00
    0.99932942880202513258E+00
    0.99913278181313724957E+00
    0.99744567552974927604E+00
    0.99531392261372386709E+00
    0.99582016245500326601E+00
    0.99658043363296333617E+00
    0.99845880127406139160E+00
    0.99887637909778692613E+00
    0.99796640995556384901E+00
    0.99872183684864601627E+00
    0.99946458618936551144E+00
    0.99974225159984242417E+00
    0.99989102414999775359E+00
    0.99985097557069435581E+00
    0.99991643927913897993E+00
    0.99987880166918352565E+00
    0.99967596225463728477E+00
    0.99937316986494773019E+00
    0.99951702803507680439E+00
    0.99962308520020726199E+00
    0.99675219452124308450E+00
    0.99794945972612569829E+00
    0.99681230044118984690E+00
    0.99815827858767414149E+00
    0.99918899439089969849E+00
    0.99965118466789326668E+00
    0.99983490545986941633E+00
    0.99972732683903620110E+00
    0.99983488341546455924E+00
    0.99973069039815565251E+00
    0.99928873285592823006E+00
    0.99854843535952120259E+00
    0.99910708943807458038E+00
    0.99933959488897528001E+00
    0.95992576929433026667E+00
    0.97135457643534195427E+00
    0.95131950494882544511E+00
    0.96788103751483689496E+00
    0.98525566454160873331E+00
    0.99257104480883384667E+00
    0.99649957155000234987E+00
    0.99509107228474502627E+00
    0.99748481147904555222E+00
    0.99646295330535084034E+00
    0.99069120697435819611E+00
    0.98349457093135439489E+00
    0.98696806342287368707E+00
    0.98947347327321200083E+00
    0.92734291793842937857E+00
    0.95093503226500386560E+00
    0.92858405797717968877E+00
    0.95476821103540221447E+00
    0.97779696395022996924E+00
    0.98963285390734079261E+00
    0.99455443788461816990E+00
    0.99120254208889280179E+00
    0.99472043928500142318E+00
    0.99190868415763366883E+00
    0.98041870429930411124E+00
    0.96427151663203880538E+00
    0.97624994569101142261E+00
    0.98157074528580712247E+00
    0.99994302692720993253E+00
    0.99998330732184748104E+00
    0.99997663598764785498E+00
    0.99998884831582368626E+00
    0.99999736053041787809E+00
    0.99997850173760682857E+00
    0.99998258489350344558E+00
    0.99998131032202630664E+00
    0.99993209680551864427E+00
    0.99995852821293540469E+00
    0.99995413635595165047E+00
    0.99996371535682737619E+00
    0.99997783259166594938E+00
    0.99998088074145408122E+00
    0.99999310314244249653E+00
    0.10000033494290054836E+01
    0.99998293933084514418E+00
    0.99999264328664838608E+00
    0.10000032487185552821E+01
    0.99998119090709092216E+00
    0.99999129110555773359E+00
    0.10000038845775554019E+01
    0.99998683061789583881E+00
    0.99999163632167475946E+00
    0.10000030390318097595E+01
    0.99998567374981783829E+00
    0.99999164122484018868E+00
    0.99999272498729918635E+00
    0.99994300433781391213E+00
    0.99998325010311839289E+00
    0.99997647053898230940E+00
    0.99998854826880567703E+00
    0.99999722219973741222E+00
    0.99997830149168931424E+00
    0.99998252405349552507E+00
    0.99998128221522231129E+00
    0.99993209077544664698E+00
    0.99995852317982836244E+00
    0.99995412357183621754E+00
    0.99996370440661086487E+00
    0.99997779847145218390E+00
    0.99998083405193260997E+00
    0.99999174618626973654E+00
    0.10000031957647621539E+01
    0.99997645057416228997E+00
    0.99997901429456115263E+00
    0.99999840860256150599E+00
    0.99997401640314265148E+00
    0.99999008769861241763E+00
    0.10000032478162377281E+01
    0.99998629028626651039E+00
    0.99999125527553534010E+00
    0.10000020416375010601E+01
    0.99998506619505789228E+00
    0.99998928295616262840E+00
    0.99998971289483551406E+00
    0.99997828978297453872E+00
    0.99997110570439240451E+00
    0.99988625850880374912E+00
    0.99986382226361447678E+00
    0.99994849657517714814E+00
    0.99992856668859264602E+00
    0.99997743201210553821E+00
    0.99999925338650541562E+00
    0.99998624978484362824E+00
    0.99999127432043921626E+00
    0.10000003892442521636E+01
    0.99998398455862813616E+00
    0.99997620995942437805E+00
    0.99997399005866216548E+00
    0.99935646370769748437E+00
    0.99887256335183949307E+00
    0.99687762216677611171E+00
    0.99535668150018441480E+00
    0.99834118736240806680E+00
    0.99854097734024949151E+00
    0.99954601249840335786E+00
    0.99969292976477774904E+00
    0.99989010522143872972E+00
    0.99990489469866805639E+00
    0.99975841480990146337E+00
    0.99975212622722287037E+00
    0.99942695594112285207E+00
    0.99935539768184411535E+00
    0.99990393640704855471E+00
    0.99981189987457863566E+00
    0.99949623724762104438E+00
    0.99928736029492426507E+00
    0.99966272601873651382E+00
    0.99958483764425776208E+00
    0.99984877410729366964E+00
    0.99992571755140935430E+00
    0.99996625463448085558E+00
    0.99997692027105800072E+00
    0.99996053846132915144E+00
    0.99995555777468958514E+00
    0.99987872680047129581E+00
    0.99985446164308744432E+00
    0.99705061379932902188E+00
    0.99442640179041352777E+00
    0.98640930015836914002E+00
    0.97819244166866492485E+00
    0.98946782158959933895E+00
    0.98489655983215806945E+00
    0.99531124707042895050E+00
    0.99744362494869531766E+00
    0.99913516740407370964E+00
    0.99933640096051690183E+00
    0.99847925853733066059E+00
    0.99874840088315763875E+00
    0.99657861471751252314E+00
    0.99581904601700865776E+00
    0.99994296442031460614E+00
    0.99998313825144047318E+00
    0.99997616330330962864E+00
    0.99998792144780757063E+00
    0.99999688192824232047E+00
    0.99997771090028764185E+00
    0.99998232033197897994E+00
    0.99998119461168677446E+00
    0.99993206438807247238E+00
    0.99995850482043835417E+00
    0.99995409176734129097E+00
    0.99996368200371155144E+00
    0.99997771748102359801E+00
    0.99998071580650083057E+00
    0.99998909039363592655E+00
    0.99999691291178183228E+00
    0.99995865815966777923E+00
    0.99994470217749564789E+00
    0.99998227802221983929E+00
    0.99994571852421654246E+00
    0.99998038330558935982E+00
    0.10000010984540268488E+01
    0.99998461837923657836E+00
    0.99999016579305688435E+00
    0.10000020555244049092E+01
    0.99998381834529925793E+00
    0.99998593924997392079E+00
    0.99998444838957400993E+00
    0.99994293993424665512E+00
    0.99998305497908801520E+00
    0.99997595191810395576E+00
    0.99998787273231515282E+00
    0.99999650613424295731E+00
    0.99997692170579977056E+00
    0.99998200124042557757E+00
    0.99998107070798503138E+00
    0.99993202409512083051E+00
    0.99995848016039179385E+00
    0.99995405869464559778E+00
    0.99996366431030381250E+00
    0.99997763454545851580E+00
    0.99998058278658374931E+00
    0.99998741042756722486E+00
    0.99999151147965270603E+00
    0.99994558480423745284E+00
    0.99991443719506856169E+00
    0.99996040198904689866E+00
    0.99990024457015713732E+00
    0.99996146568064980809E+00
    0.99999366470615447255E+00
    0.99998286521317747422E+00
    0.99998976627837521391E+00
    0.10000006633869280570E+01
    0.99998342051256894347E+00
    0.99998103709182351029E+00
    0.99997631201020609204E+00
    0.99975871721970199779E+00
    0.99946798495348043723E+00
    0.99870764685369917135E+00
    0.99797246861003729990E+00
    0.99887333507860509574E+00
    0.99844589254417326352E+00
    0.99937129945349656435E+00
    0.99967387301198840088E+00
    0.99987956532215249705E+00
    0.99992278988238725290E+00
    0.99985108774386877162E+00
    0.99988950449159674783E+00
    0.99962131245238117216E+00
    0.99951619663345525613E+00
    0.99258963494727570076E+00
    0.98525963911865899192E+00
    0.96786637808989439691E+00
    0.95132434038296243006E+00
    0.97135125133241007056E+00
    0.95991334965409547131E+00
    0.98349150688754061189E+00
    0.99068931281975791681E+00
    0.99646621438519811242E+00
    0.99749242758047473867E+00
    0.99509175303521713030E+00
    0.99649835952141174733E+00