# vtk DataFile Version 3.0
LAPLACIEN  2D
ASCII
DATASET UNSTRUCTURED_GRID
 POINTS        1857  float
   3.1250000000000000E-002  0.93750000000000000        0.0000000000000000     
   6.2500000000000000E-002  0.93750000000000000        0.0000000000000000     
   6.2500000000000000E-002  0.96875000000000000        0.0000000000000000     
   1.8749999999999999E-002  0.95625000000000004        0.0000000000000000     
   4.0625000000000001E-002  0.95937499999999998        0.0000000000000000     
   4.3749999999999997E-002  0.98124999999999996        0.0000000000000000     
   2.1874999999999999E-002  0.97812500000000002        0.0000000000000000     
   9.3750000000000000E-002  0.93750000000000000        0.0000000000000000     
  0.12500000000000000       0.93750000000000000        0.0000000000000000     
  0.12500000000000000       0.96875000000000000        0.0000000000000000     
   8.1250000000000003E-002  0.95625000000000004        0.0000000000000000     
  0.10312499999999999       0.95937499999999998        0.0000000000000000     
  0.10625000000000000       0.98124999999999996        0.0000000000000000     
   8.4375000000000006E-002  0.97812500000000002        0.0000000000000000     
   3.1250000000000000E-002  0.87500000000000000        0.0000000000000000     
   6.2500000000000000E-002  0.87500000000000000        0.0000000000000000     
   6.2500000000000000E-002  0.90625000000000000        0.0000000000000000     
   1.8749999999999999E-002  0.89375000000000004        0.0000000000000000     
   4.0625000000000001E-002  0.89687499999999998        0.0000000000000000     
   4.3749999999999997E-002  0.91874999999999996        0.0000000000000000     
   2.1874999999999999E-002  0.91562500000000002        0.0000000000000000     
   9.3750000000000000E-002  0.87500000000000000        0.0000000000000000     
  0.12500000000000000       0.87500000000000000        0.0000000000000000     
  0.12500000000000000       0.90625000000000000        0.0000000000000000     
   8.1250000000000003E-002  0.89375000000000004        0.0000000000000000     
  0.10312499999999999       0.89687499999999998        0.0000000000000000     
  0.10625000000000000       0.91874999999999996        0.0000000000000000     
   8.4375000000000006E-002  0.91562500000000002        0.0000000000000000     
  0.15625000000000000       0.93750000000000000        0.0000000000000000     
  0.18750000000000000       0.93750000000000000        0.0000000000000000     
  0.18750000000000000       0.96875000000000000        0.0000000000000000     
  0.14374999999999999       0.95625000000000004        0.0000000000000000     
  0.16562499999999999       0.95937499999999998        0.0000000000000000     
  0.16875000000000001       0.98124999999999996        0.0000000000000000     
  0.14687500000000001       0.97812500000000002        0.0000000000000000     
  0.21875000000000000       0.93750000000000000        0.0000000000000000     
  0.25000000000000000       0.93750000000000000        0.0000000000000000     
  0.25000000000000000       0.96875000000000000        0.0000000000000000     
  0.20624999999999999       0.95625000000000004        0.0000000000000000     
  0.22812499999999999       0.95937499999999998        0.0000000000000000     
  0.23125000000000001       0.98124999999999996        0.0000000000000000     
  0.20937500000000001       0.97812500000000002        0.0000000000000000     
  0.15625000000000000       0.87500000000000000        0.0000000000000000     
  0.18750000000000000       0.87500000000000000        0.0000000000000000     
  0.18750000000000000       0.90625000000000000        0.0000000000000000     
  0.14374999999999999       0.89375000000000004        0.0000000000000000     
  0.16562499999999999       0.89687499999999998        0.0000000000000000     
  0.16875000000000001       0.91874999999999996        0.0000000000000000     
  0.14687500000000001       0.91562500000000002        0.0000000000000000     
  0.21875000000000000       0.87500000000000000        0.0000000000000000     
  0.25000000000000000       0.87500000000000000        0.0000000000000000     
  0.25000000000000000       0.90625000000000000        0.0000000000000000     
  0.20624999999999999       0.89375000000000004        0.0000000000000000     
  0.22812499999999999       0.89687499999999998        0.0000000000000000     
  0.23125000000000001       0.91874999999999996        0.0000000000000000     
  0.20937500000000001       0.91562500000000002        0.0000000000000000     
   3.1250000000000000E-002  0.81250000000000000        0.0000000000000000     
   6.2500000000000000E-002  0.81250000000000000        0.0000000000000000     
   6.2500000000000000E-002  0.84375000000000000        0.0000000000000000     
   1.8749999999999999E-002  0.83125000000000004        0.0000000000000000     
   4.0625000000000001E-002  0.83437499999999998        0.0000000000000000     
   4.3749999999999997E-002  0.85624999999999996        0.0000000000000000     
   2.1874999999999999E-002  0.85312500000000002        0.0000000000000000     
   9.3750000000000000E-002  0.81250000000000000        0.0000000000000000     
  0.12500000000000000       0.81250000000000000        0.0000000000000000     
  0.12500000000000000       0.84375000000000000        0.0000000000000000     
   8.1250000000000003E-002  0.83125000000000004        0.0000000000000000     
  0.10312499999999999       0.83437499999999998        0.0000000000000000     
  0.10625000000000000       0.85624999999999996        0.0000000000000000     
   8.4375000000000006E-002  0.85312500000000002        0.0000000000000000     
   3.1250000000000000E-002  0.75000000000000000        0.0000000000000000     
   6.2500000000000000E-002  0.75000000000000000        0.0000000000000000     
   6.2500000000000000E-002  0.78125000000000000        0.0000000000000000     
   1.8749999999999999E-002  0.76875000000000004        0.0000000000000000     
   4.0625000000000001E-002  0.77187499999999998        0.0000000000000000     
   4.3749999999999997E-002  0.79374999999999996        0.0000000000000000     
   2.1874999999999999E-002  0.79062500000000002        0.0000000000000000     
   9.3750000000000000E-002  0.75000000000000000        0.0000000000000000     
  0.12500000000000000       0.75000000000000000        0.0000000000000000     
  0.12500000000000000       0.78125000000000000        0.0000000000000000     
   8.1250000000000003E-002  0.76875000000000004        0.0000000000000000     
  0.10312499999999999       0.77187499999999998        0.0000000000000000     
  0.10625000000000000       0.79374999999999996        0.0000000000000000     
   8.4375000000000006E-002  0.79062500000000002        0.0000000000000000     
  0.15625000000000000       0.81250000000000000        0.0000000000000000     
  0.18750000000000000       0.81250000000000000        0.0000000000000000     
  0.18750000000000000       0.84375000000000000        0.0000000000000000     
  0.14374999999999999       0.83125000000000004        0.0000000000000000     
  0.16562499999999999       0.83437499999999998        0.0000000000000000     
  0.16875000000000001       0.85624999999999996        0.0000000000000000     
  0.14687500000000001       0.85312500000000002        0.0000000000000000     
  0.21875000000000000       0.81250000000000000        0.0000000000000000     
  0.25000000000000000       0.81250000000000000        0.0000000000000000     
  0.25000000000000000       0.84375000000000000        0.0000000000000000     
  0.20624999999999999       0.83125000000000004        0.0000000000000000     
  0.22812499999999999       0.83437499999999998        0.0000000000000000     
  0.23125000000000001       0.85624999999999996        0.0000000000000000     
  0.20937500000000001       0.85312500000000002        0.0000000000000000     
  0.15625000000000000       0.75000000000000000        0.0000000000000000     
  0.18750000000000000       0.75000000000000000        0.0000000000000000     
  0.18750000000000000       0.78125000000000000        0.0000000000000000     
  0.14374999999999999       0.76875000000000004        0.0000000000000000     
  0.16562499999999999       0.77187499999999998        0.0000000000000000     
  0.16875000000000001       0.79374999999999996        0.0000000000000000     
  0.14687500000000001       0.79062500000000002        0.0000000000000000     
  0.21875000000000000       0.75000000000000000        0.0000000000000000     
  0.25000000000000000       0.75000000000000000        0.0000000000000000     
  0.25000000000000000       0.78125000000000000        0.0000000000000000     
  0.20624999999999999       0.76875000000000004        0.0000000000000000     
  0.22812499999999999       0.77187499999999998        0.0000000000000000     
  0.23125000000000001       0.79374999999999996        0.0000000000000000     
  0.20937500000000001       0.79062500000000002        0.0000000000000000     
  0.28125000000000000       0.93750000000000000        0.0000000000000000     
  0.31250000000000000       0.93750000000000000        0.0000000000000000     
  0.31250000000000000       0.96875000000000000        0.0000000000000000     
  0.26874999999999999       0.95625000000000004        0.0000000000000000     
  0.29062500000000002       0.95937499999999998        0.0000000000000000     
  0.29375000000000001       0.98124999999999996        0.0000000000000000     
  0.27187499999999998       0.97812500000000002        0.0000000000000000     
  0.34375000000000000       0.93750000000000000        0.0000000000000000     
  0.37500000000000000       0.93750000000000000        0.0000000000000000     
  0.37500000000000000       0.96875000000000000        0.0000000000000000     
  0.33124999999999999       0.95625000000000004        0.0000000000000000     
  0.35312500000000002       0.95937499999999998        0.0000000000000000     
  0.35625000000000001       0.98124999999999996        0.0000000000000000     
[...]
 CELL_DATA        3584
 SCALARS Cells_density float
 LOOKUP_TABLE default
    0.99993884079070194382E+00
    0.99997770765452975716E+00
    0.99997083596456382004E+00
    0.99998011301142042395E+00
    0.99997873540964254957E+00
    0.99993000901865380925E+00
    0.99995754545125470347E+00
    0.99995059423181043012E+00
    0.99995549272824824083E+00
    0.99995956918457595819E+00
    0.99995458657417735093E+00
    0.99996137915707405952E+00
    0.99996984921180498418E+00
    0.99997005209836664630E+00
    0.99999106261305337195E+00
    0.99999659338692969968E+00
    0.99997900975511899713E+00
    0.99998401058807773190E+00
    0.99998127294665806186E+00
    0.99993127163644990318E+00
    0.99995790699403552804E+00
    0.99995031613767604295E+00
    0.99995749560253344157E+00
    0.99993833653073294077E+00
    0.99998044937450492053E+00
    0.99997799073854720664E+00
    0.99997600041861911535E+00
    0.99997483704892897727E+00
    0.99993984735972152311E+00
    0.99998008041033237259E+00
    0.99997434867216661303E+00
    0.99998764646164628456E+00
    0.99999473895270640789E+00
    0.99997646343661727997E+00
    0.99997793530448464416E+00
    0.99997693235877638251E+00
    0.99992779866527836674E+00
    0.99995437457550973015E+00
    0.99995062947548296606E+00
    0.99996054803308709324E+00
    0.99997444720429495835E+00
    0.99997743497774704835E+00
    0.99999431250923154213E+00
    0.10000026892489470853E+01
    0.99998336937230070109E+00
    0.99999144979843124226E+00
    0.10000005940695100293E+01
    0.99997973906342130235E+00
    0.99998705186001224376E+00
    0.10000011173064926595E+01
    0.99998498742258157268E+00
    0.99999174005732405224E+00
    0.10000052712376708008E+01
    0.99998680079758073269E+00
    0.99999056109977857432E+00
    0.99999083988609693829E+00
    0.99999259497840875532E+00
    0.99999772842755563218E+00
    0.99997974258385613489E+00
    0.99998456159792814546E+00
    0.99998193880836527825E+00
    0.99993175701109493492E+00
    0.99995858663557757318E+00
    0.99995131813723880931E+00
    0.99995881587887680553E+00
    0.99993972858183910457E+00
    0.99998211225404232128E+00
    0.99998062700050172058E+00
    0.99997716763839794574E+00
    0.99997583759812147530E+00
    0.99999285817371308394E+00
    0.99999789407814387854E+00
    0.99997981516527856272E+00
    0.99998461329212195992E+00
    0.99998202466424168655E+00
    0.99993181765319394394E+00
    0.99995868355598194199E+00
    0.99995148251722576482E+00
    0.99995908309086045662E+00
    0.99994009096437364015E+00
    0.99998241223462813743E+00
    0.99998104159544443092E+00
    0.99997734957333084260E+00
    0.99997598843384138956E+00
    0.99999367271839567639E+00
    0.10000031189994855740E+01
    0.99998396479071949283E+00
    0.99999192890336219275E+00
    0.10000011882268209362E+01
    0.99998010863274844340E+00
    0.99998776716181958513E+00
    0.10000020511650371535E+01
    0.99998611582730545511E+00
    0.99999252882470635040E+00
    0.10000042944538560796E+01
    0.99998688113686373669E+00
    0.99999083399093047220E+00
    0.99999146191293875052E+00
    0.99999355562535074959E+00
    0.10000028661454836154E+01
    0.99998315565190376564E+00
    0.99999116929358511374E+00
    0.10000009713140185497E+01
    0.99998000764744454649E+00
    0.99998781312094986440E+00
    0.10000021599576465192E+01
    0.99998630116002262813E+00
    0.99999187921610255270E+00
    0.10000029884709809025E+01
    0.99998711416319363554E+00
    0.99999075568984086004E+00
    0.99999145860633920080E+00
    0.99994031091674651091E+00
    0.99998067405250379291E+00
    0.99997459713070424581E+00
    0.99998709483043135560E+00
    0.99999530818666149123E+00
    0.99997667137498458256E+00
    0.99998016185338534090E+00
    0.99997847980592924344E+00
    0.99992909641143656874E+00
    0.99995566128233470682E+00
    0.99995160495207557894E+00
    0.99996120822109346715E+00
    0.99997538757636927897E+00
    0.99997847679409768151E+00
    0.99999213545910670131E+00
    0.10000026384677709324E+01
    0.99998375726201915725E+00
    0.99999208022326091516E+00
    0.10000017673670704710E+01
    0.99998126376448703834E+00
    0.99998990481799032715E+00
    0.10000027662867705391E+01
    0.99998615509997057504E+00
    0.99999012993603075827E+00
    0.10000017043460645016E+01
    0.99998422203394610186E+00
    0.99999127469960258363E+00
    0.99999238710336824099E+00
    0.99994036825836940530E+00
    0.99998075526521046363E+00
    0.99997464629815435710E+00
    0.99998716968011380768E+00
    0.99999545840832715360E+00
    0.99997686578194933116E+00
    0.99998046990293276703E+00
    0.99997875460158391903E+00
    0.99992944269091033060E+00
    0.99995591677899897665E+00
    0.99995176152695230964E+00
    0.99996130028539587098E+00
    0.99997553042712672422E+00
    0.99997864773932776394E+00
    0.99999206025756037786E+00
    0.10000025535612944161E+01
    0.99998308221538667606E+00
    0.99999156883642237315E+00
    0.10000016262014297386E+01
    0.99998115653768238076E+00
    0.99999017316185290216E+00
    0.10000029193362547364E+01
    0.99998553757747155046E+00
    0.99999018979130493978E+00
    0.10000019076585207056E+01
    0.99998428900538705033E+00
    0.99999156277472711629E+00
    0.99999266881161275045E+00
    0.99999368892895712513E+00
    0.10000031203005117497E+01
    0.99998298648340977479E+00
    0.99999252066274968431E+00
    0.10000024700615719464E+01
    0.99998130473380564265E+00
    0.99999048194866146932E+00
    0.10000035732444234604E+01
    0.99998718420027554732E+00
    0.99999286942532328304E+00
    0.10000036838885528745E+01
    0.99998737520720815120E+00
    0.99999147620286565896E+00
    0.99999235931250640697E+00
    0.99998908225278992923E+00
    0.99999860601452428277E+00
    0.99996416324984616075E+00
    0.99997712151427620153E+00
    0.99999697661723752073E+00
    0.99997764770255548328E+00
    0.99999001316235291981E+00
    0.10000034025630915036E+01
    0.99998678160421627936E+00
    0.99999248602839097000E+00
    0.10000031923570795733E+01
    0.99998635767345489533E+00
    0.99998936179133757207E+00
    0.99999034867976210883E+00
    0.99999133067593504176E+00
    0.99999991236627927549E+00
    0.99996554052283981306E+00
    0.99997204440973819217E+00
    0.99999516540740962522E+00
    0.99997477399525880326E+00
    0.99998976037263354044E+00
    0.10000035068674093530E+01
    0.99998679619724506473E+00
    0.99999244650286167602E+00
    0.10000033384005453385E+01
    0.99998617234064890447E+00
    0.99998918993038088399E+00
    0.99998974344947566539E+00
    0.99987082852166164759E+00
    0.99982825769912697655E+00
    0.99954318743581604956E+00
    0.99955341391234020509E+00
    0.99982367466516774979E+00
    0.99985401277225527394E+00
    0.99994955859201195558E+00
    0.99997156070886916712E+00
    0.99997695899253946639E+00
    0.99998011974934808421E+00
    0.99997235438482112713E+00
    0.99994896033162417037E+00
    0.99991220316383400135E+00
    0.99991264395348411487E+00
    0.99999279500877691351E+00
    0.99999783338355807683E+00
    0.99997963799517619599E+00
    0.99998444023487231824E+00
    0.99998198972661611617E+00
    0.99993180425782712817E+00
    0.99995868395113896021E+00
    0.99995149080825018739E+00
    0.99995910979224789106E+00
    0.99994013086221311681E+00
    0.99998243145447507363E+00
    0.99998106274103082391E+00
    0.99997734109185987261E+00
    0.99997598186247160790E+00
    0.99999170568643369617E+00
    0.99999746342489703732E+00
    0.99997897534130664177E+00
    0.99998385887662355476E+00
    0.99998182586536221716E+00
    0.99993174173414045569E+00
    0.99995865249247750661E+00
    0.99995145446364297470E+00
    0.99995909286400563865E+00
    0.99994010940565170031E+00
    0.99998231960217576209E+00
    0.99998029106212793504E+00
    0.99997721817383211640E+00
    0.99997589068199976836E+00
    0.99999255640586615090E+00
    0.10000031432971356882E+01
    0.99997982835440601956E+00
    0.99999107160490108281E+00
    0.10000012260346251569E+01
    0.99997912189613247236E+00
    0.99998746389377624055E+00
    0.10000017266140279748E+01
    0.99998616164150710972E+00
    0.99999169223542649920E+00
    0.10000022660083920378E+01
    0.99998603210382286388E+00
    0.99998970709736356710E+00
    0.99999055858161589594E+00
    0.99997693895009132081E+00
    0.99999341785341666622E+00
    0.99995282481526803764E+00
    0.99997605478413820190E+00
    0.99999555816163254729E+00
    0.99997688507094772969E+00
    0.99998694533010734631E+00
    0.10000015823533041637E+01
    0.99998524018143253311E+00
    0.99999048619657393555E+00
    0.10000025746205227772E+01
    0.99998363637612530663E+00
    0.99998656863717094723E+00
    0.99998829060971305971E+00
    0.99999043943463405970E+00
    0.99999659090709269726E+00
    0.99997776328703635862E+00
    0.99998306263175518183E+00
    0.99998148203266667977E+00
    0.99993163554414521421E+00
    0.99995855018412005411E+00
    0.99995085418780227382E+00
    0.99995900309197160993E+00
    0.99994003143552978585E+00
    0.99998199008851196279E+00
    0.99997916627561533875E+00
    0.99997678392433697603E+00
    0.99997523143352962105E+00
    0.99998983486124104481E+00
    0.99999594193344110149E+00
    0.99997707349281561573E+00
    0.99998292464446392191E+00
    0.99998118099356503308E+00
    0.99993156658287729588E+00
    0.99995842489598751879E+00
    0.99995010830070396590E+00
    0.99995886462706906617E+00
    0.99993991732338627365E+00
    0.99998161577504429687E+00
    0.99997825401397844036E+00
    0.99997624286743347355E+00
    0.99997446008455526112E+00
    0.99992072082719685167E+00
    0.99995850422387599910E+00
    0.99989042679697393012E+00
    0.99994195186707846013E+00
    0.99998194229178216652E+00
    0.99997193780737259061E+00
    0.99998517674810927236E+00
    0.99999926385643977955E+00
    0.99998349306816258775E+00
    0.99998713685755569180E+00
    0.99999561609336118373E+00
    0.99996460986475255162E+00
    0.99997463251942653173E+00
    0.99997986259431981271E+00
    0.99984001085821061494E+00
    0.99991774789944909418E+00
    0.99983734032984739049E+00
    0.99991547451268802948E+00
    0.99997074054465628912E+00
    0.99996854331802709215E+00
    0.99998338527014496435E+00
    0.99999540662419716952E+00
    0.99998150673253216603E+00
    0.99998174642734127815E+00
    0.99998070819752526983E+00
    0.99992915149733996305E+00
    0.99995850620206572223E+00
    0.99996933237665119876E+00
    0.99989454006177158618E+00
    0.99990322734796788229E+00
    0.99975245215232477758E+00
    0.99981568701410283850E+00
    0.99993207119317462084E+00
    0.99994227836116122976E+00
    0.99997774694284535801E+00
    0.99999145828779234524E+00
    0.99998313300379504387E+00
    0.99998581683120679742E+00
    0.99998856664832425079E+00
    0.99995891508454581853E+00
    0.99995263597149608437E+00
    0.99995824394933918722E+00
    0.99932663444341340853E+00
    0.99942714312765279505E+00
    0.99883882190067696527E+00
    0.99918471322940793922E+00
    0.99966236530209373612E+00
    0.99980944917272940309E+00
    0.99992324536904675369E+00
    0.99991709255230254438E+00
    0.99995150796495169132E+00
    0.99994016032238641767E+00
    0.99985619807182624097E+00
    0.99973718675785960830E+00
    0.99974486349340263569E+00
    0.99978680250355622672E+00
    0.99780599189983232300E+00
    0.99749804997597335543E+00
    0.99347846637447334572E+00
    0.99540251632797627224E+00
    0.99822160162895612334E+00
    0.99893299219171272085E+00
    0.99958165210973703996E+00
    0.99957989611346986791E+00
    0.99982442944908334059E+00
    0.99980601707204441730E+00
    0.99947599792939156860E+00
    0.99926040317621545039E+00
    0.99896224444835590717E+00
    0.99906658287142025010E+00
    0.98009701292489614932E+00
    0.98540083265235578480E+00
    0.97116768206947201580E+00
    0.98114704917530770611E+00
    0.99188014977177474396E+00
    0.99553226401943417656E+00
    0.99803836080881458415E+00
    0.99762809477116276557E+00
    0.99891458856714865355E+00
    0.99861611528995974929E+00
    0.99614220927102692382E+00
    0.99329499109222008091E+00
    0.99384814585391134667E+00
    0.99488287154742649498E+00
    0.99759605597772083030E+00
    0.99821124588696286128E+00
    0.99688062173328084725E+00
    0.99797954694236812312E+00
    0.99911492908754506725E+00
    0.99956832170137066562E+00
    0.99980824389718225831E+00
    0.99973054168613684212E+00
    0.99985323539204173926E+00
    0.99978726654896965531E+00
    0.99944257134514391527E+00
    0.99897759258375640190E+00
    0.99920084547042886669E+00
    0.99936688362914605221E+00
    0.99512475008684020406E+00
    0.99684004485615784752E+00
    0.99521928006920279408E+00
    0.99714459886820538959E+00
    0.99868956860398705455E+00
    0.99942142189443217148E+00
    0.99971410402455473942E+00
    0.99952854628679965732E+00
    0.99971488229490368393E+00
    0.99954347292896106314E+00
    0.99883721919770274145E+00
    0.99772789635019831778E+00
    0.99856830758462011843E+00
    0.99892216529392463542E+00
    0.94821884646410270481E+00
    0.96186160573667600637E+00
    0.93755603082808014470E+00
    0.95729107266986812608E+00
    0.97958202031574870272E+00
    0.98932779017482475048E+00
    0.99478461591570244149E+00
    0.99280163317384850785E+00
    0.99618088150623751442E+00
    0.99472458372049876729E+00
    0.98677252758320599391E+00
    0.97734748842492114029E+00
    0.98181658985023811947E+00
    0.98511543438538329287E+00
    0.90919276854348540784E+00
    0.93675217075265115874E+00
    0.91055511240631692438E+00
    0.94112087147899903261E+00
    0.96994309780234155838E+00
    0.98536821688186582158E+00
    0.99206482667748219217E+00
    0.98748855138581415058E+00
    0.99227512747667889759E+00
    0.98843166493535938866E+00
    0.97328950940993641527E+00
    0.95289183204550165218E+00
    0.96794541237080511387E+00
    0.97473029434247693281E+00
    0.99994035459046826109E+00
    0.99998072223661937930E+00
    0.99997453517529621969E+00
    0.99998699412771530071E+00
    0.99999539669956738486E+00
    0.99997680083164119935E+00
    0.99998048852274912246E+00
    0.99997877186820327555E+00
    0.99992948023912120448E+00
    0.99995594178641422634E+00
    0.99995176879285485594E+00
    0.99996130009118477933E+00
    0.99997552296234482050E+00
    0.99997863808276599151E+00
    0.99999114845811309937E+00
    0.10000030283642873385E+01
    0.99998046157195885630E+00
    0.99998844190249103203E+00
    0.10000010749188246173E+01
    0.99997869544339890169E+00
    0.99998999455310533246E+00
    0.10000021814091204497E+01
    0.99998535498429141910E+00
    0.99999004621370302104E+00
    0.10000014024816803460E+01
    0.99998393274839925127E+00
    0.99998995778649546473E+00
    0.99999095136483295843E+00
    0.99994029398625694505E+00
    0.99998057761526082388E+00
    0.99997413869937190611E+00
    0.99998630085252171451E+00
    0.99999506175558650067E+00
    0.99997632267812641693E+00
    0.99998033204781355821E+00
    0.99997869582742626715E+00
    0.99992945944584799012E+00
    0.99995592471831851178E+00
    0.99995173243747026426E+00
    0.99996126868407164690E+00
    0.99997543318848158833E+00
    0.99997851791922010012E+00
    0.99998876043174356187E+00
    0.99999815936207747669E+00
    0.99996411837444565407E+00
    0.99996007811094400619E+00
    0.99999012912200613279E+00
    0.99996313969699668345E+00
    0.99998572307297817208E+00
    0.10000021695699909952E+01
    0.99998419115323844419E+00
    0.99998916213204280812E+00
    0.10000009963462950235E+01
    0.99998257545745150576E+00
    0.99998685209136228824E+00
    0.99998671429842100888E+00
    0.99995793142323941005E+00
    0.99993535934326949199E+00
    0.99980209360468952351E+00
    0.99975870737821204148E+00
    0.99989805236818030121E+00
    0.99987954619383556665E+00
    0.99995895956683111816E+00
    0.99998703341145533940E+00
    0.99998294450597680072E+00
    0.99998775712415588490E+00
    0.99999134749996809735E+00
    0.99997613689740605381E+00
    0.99995662354632863789E+00
    0.99995193737206633511E+00
    0.99895116418416896042E+00
    0.99822538354167766883E+00
    0.99538773599546637172E+00
    0.99348427219759960494E+00
    0.99749138003923265572E+00
    0.99778867581981045554E+00
    0.99925890836057940092E+00
    0.99947391168955690421E+00
    0.99980724666113196530E+00
    0.99983023465599385471E+00
    0.99958002233774811973E+00
    0.99958044233675280577E+00
    0.99906462091531378356E+00
    0.99896066769215530190E+00
    0.99982622479898775048E+00
    0.99966577794606081842E+00
    0.99917038118378842526E+00
    0.99884475304864517309E+00
    0.99942383050057681526E+00
    0.99931344336916227977E+00
    0.99973550878435935019E+00
    0.99985408324306246364E+00
    0.99994043868602444647E+00
    0.99995733903385586316E+00
    0.99991715830456573411E+00
    0.99992190138827774515E+00
    0.99978500907601419723E+00
    0.99974396567279155690E+00
    0.99555099237782618271E+00
    0.99188401232905043514E+00
    0.98113203633050682928E+00
    0.97117273617851707090E+00
    0.98539718949139276649E+00
    0.98008404378496105647E+00
    0.99329197288872028704E+00
    0.99614015601458372196E+00
    0.99861903270075436101E+00
    0.99892179088625066008E+00
    0.99762863338825347181E+00
    0.99803716198838832163E+00
    0.99488105526231929154E+00
    0.99384699080678862160E+00
    0.99994019217027541035E+00
    0.99998030936725945672E+00
    0.99997346284263000094E+00
    0.99998597814008072238E+00
    0.99999430584873927330E+00
    0.99997502834034246444E+00
    0.99997985276421796907E+00
    0.99997848038842696017E+00
    0.99992938967631583846E+00
    0.99995587444597588966E+00
    0.99995164934494507047E+00
    0.99996120845791680587E+00
    0.99997523337837201929E+00
    0.99997823344002034762E+00
    0.99998350046910178257E+00
    0.99998464469689363199E+00
    0.99992964139030193760E+00
    0.99989738156002339053E+00
    0.99995585159507416328E+00
    0.99990773005978295096E+00
    0.99996494009050995722E+00
    0.99999385277845820319E+00
    0.99998202157705651238E+00
    0.99998781358540589359E+00
    0.99999850598265682677E+00
    0.99998130353649039570E+00
    0.99997811277811010644E+00
    0.99997426180875159663E+00
    0.99994012923663733172E+00
    0.99998004503292237111E+00
    0.99997306601876567722E+00
    0.99998561320311407652E+00
    0.99999376244669302416E+00
    0.99997385601203403471E+00
    0.99997946316388464094E+00
    0.99997818522103854022E+00
    0.99992928632133826206E+00
    0.99995576041518596799E+00
    0.99995107957255968678E+00
    0.99996110919686076457E+00
    0.99997461370181539575E+00
    0.99997776310937525057E+00
    0.99997944366548341399E+00
    0.99997395699757096743E+00
    0.99990567600793334169E+00
    0.99984447135425924547E+00
    0.99991535045058876907E+00
    0.99982728954178556879E+00
    0.99992902760130863982E+00
    0.99997860883631417561E+00
    0.99997755377580532787E+00
    0.99998596619381907580E+00
    0.99999470935364043189E+00
    0.99997998713371183399E+00
    0.99996758982980360475E+00
    0.99995805146000160679E+00
    0.99958541880243412248E+00
    0.99911838577597766875E+00
    0.99796501716772945123E+00
    0.99688646297507532701E+00
    0.99820812252459167890E+00
    0.99758319818147911384E+00
    0.99897523176407554413E+00
    0.99944042589660353482E+00
    0.99978879002141674004E+00
    0.99985987818557175988E+00
    0.99973080367057320927E+00
    0.99980690939237792936E+00
    0.99936507686813480511E+00
    0.99919990953949455736E+00
    0.98934659745368691564E+00
    0.97958605943227161639E+00
    0.95727647124012338331E+00
    0.93756053758127277931E+00
    0.96185827036827176162E+00
    0.94820661941344097645E+00
    0.97734417649591909250E+00
    0.98677067284619235377E+00
    0.99472827142335451533E+00
    0.99618864225753367414E+00
    0.99280246202760980001E+00
    0.99478349626197715150E+00