# vtk DataFile Version 3.0
LAPLACIEN  2D
ASCII
DATASET UNSTRUCTURED_GRID
 POINTS        1857  float
   3.1250000000000000E-002  0.93750000000000000        0.0000000000000000     
   6.2500000000000000E-002  0.93750000000000000        0.0000000000000000     
   6.2500000000000000E-002  0.96875000000000000        0.0000000000000000     
   1.8749999999999999E-002  0.95625000000000004        0.0000000000000000     
   4.0625000000000001E-002  0.95937499999999998        0.0000000000000000     
   4.3749999999999997E-002  0.98124999999999996        0.0000000000000000     
   2.1874999999999999E-002  0.97812500000000002        0.0000000000000000     
   9.3750000000000000E-002  0.93750000000000000        0.0000000000000000     
  0.12500000000000000       0.93750000000000000        0.0000000000000000     
  0.12500000000000000       0.96875000000000000        0.0000000000000000     
   8.1250000000000003E-002  0.95625000000000004        0.0000000000000000     
  0.10312499999999999       0.95937499999999998        0.0000000000000000     
  0.10625000000000000       0.98124999999999996        0.0000000000000000     
   8.4375000000000006E-002  0.97812500000000002        0.0000000000000000     
   3.1250000000000000E-002  0.87500000000000000        0.0000000000000000     
   6.2500000000000000E-002  0.87500000000000000        0.0000000000000000     
   6.2500000000000000E-002  0.90625000000000000        0.0000000000000000     
   1.8749999999999999E-002  0.89375000000000004        0.0000000000000000     
   4.0625000000000001E-002  0.89687499999999998        0.0000000000000000     
   4.3749999999999997E-002  0.91874999999999996        0.0000000000000000     
   2.1874999999999999E-002  0.91562500000000002        0.0000000000000000     
   9.3750000000000000E-002  0.87500000000000000        0.0000000000000000     
  0.12500000000000000       0.87500000000000000        0.0000000000000000     
  0.12500000000000000       0.90625000000000000        0.0000000000000000     
   8.1250000000000003E-002  0.89375000000000004        0.0000000000000000     
  0.10312499999999999       0.89687499999999998        0.0000000000000000     
  0.10625000000000000       0.91874999999999996        0.0000000000000000     
   8.4375000000000006E-002  0.91562500000000002        0.0000000000000000     
  0.15625000000000000       0.93750000000000000        0.0000000000000000     
  0.18750000000000000       0.93750000000000000        0.0000000000000000     
  0.18750000000000000       0.96875000000000000        0.0000000000000000     
  0.14374999999999999       0.95625000000000004        0.0000000000000000     
  0.16562499999999999       0.95937499999999998        0.0000000000000000     
  0.16875000000000001       0.98124999999999996        0.0000000000000000     
  0.14687500000000001       0.97812500000000002        0.0000000000000000     
  0.21875000000000000       0.93750000000000000        0.0000000000000000     
  0.25000000000000000       0.93750000000000000        0.0000000000000000     
  0.25000000000000000       0.96875000000000000        0.0000000000000000     
  0.20624999999999999       0.95625000000000004        0.0000000000000000     
  0.22812499999999999       0.95937499999999998        0.0000000000000000     
  0.23125000000000001       0.98124999999999996        0.0000000000000000     
  0.20937500000000001       0.97812500000000002        0.0000000000000000     
  0.15625000000000000       0.87500000000000000        0.0000000000000000     
  0.18750000000000000       0.87500000000000000        0.0000000000000000     
  0.18750000000000000       0.90625000000000000        0.0000000000000000     
  0.14374999999999999       0.89375000000000004        0.0000000000000000     
  0.16562499999999999       0.89687499999999998        0.0000000000000000     
  0.16875000000000001       0.91874999999999996        0.0000000000000000     
  0.14687500000000001       0.91562500000000002        0.0000000000000000     
  0.21875000000000000       0.87500000000000000        0.0000000000000000     
  0.25000000000000000       0.87500000000000000        0.0000000000000000     
  0.25000000000000000       0.90625000000000000        0.0000000000000000     
  0.20624999999999999       0.89375000000000004        0.0000000000000000     
  0.22812499999999999       0.89687499999999998        0.0000000000000000     
  0.23125000000000001       0.91874999999999996        0.0000000000000000     
  0.20937500000000001       0.91562500000000002        0.0000000000000000     
   3.1250000000000000E-002  0.81250000000000000        0.0000000000000000     
   6.2500000000000000E-002  0.81250000000000000        0.0000000000000000     
   6.2500000000000000E-002  0.84375000000000000        0.0000000000000000     
   1.8749999999999999E-002  0.83125000000000004        0.0000000000000000     
   4.0625000000000001E-002  0.83437499999999998        0.0000000000000000     
   4.3749999999999997E-002  0.85624999999999996        0.0000000000000000     
   2.1874999999999999E-002  0.85312500000000002        0.0000000000000000     
   9.3750000000000000E-002  0.81250000000000000        0.0000000000000000     
  0.12500000000000000       0.81250000000000000        0.0000000000000000     
  0.12500000000000000       0.84375000000000000        0.0000000000000000     
   8.1250000000000003E-002  0.83125000000000004        0.0000000000000000     
  0.10312499999999999       0.83437499999999998        0.0000000000000000     
  0.10625000000000000       0.85624999999999996        0.0000000000000000     
   8.4375000000000006E-002  0.85312500000000002        0.0000000000000000     
   3.1250000000000000E-002  0.75000000000000000        0.0000000000000000     
   6.2500000000000000E-002  0.75000000000000000        0.0000000000000000     
   6.2500000000000000E-002  0.78125000000000000        0.0000000000000000     
   1.8749999999999999E-002  0.76875000000000004        0.0000000000000000     
   4.0625000000000001E-002  0.77187499999999998        0.0000000000000000     
   4.3749999999999997E-002  0.79374999999999996        0.0000000000000000     
   2.1874999999999999E-002  0.79062500000000002        0.0000000000000000     
   9.3750000000000000E-002  0.75000000000000000        0.0000000000000000     
  0.12500000000000000       0.75000000000000000        0.0000000000000000     
  0.12500000000000000       0.78125000000000000        0.0000000000000000     
   8.1250000000000003E-002  0.76875000000000004        0.0000000000000000     
  0.10312499999999999       0.77187499999999998        0.0000000000000000     
  0.10625000000000000       0.79374999999999996        0.0000000000000000     
   8.4375000000000006E-002  0.79062500000000002        0.0000000000000000     
  0.15625000000000000       0.81250000000000000        0.0000000000000000     
  0.18750000000000000       0.81250000000000000        0.0000000000000000     
  0.18750000000000000       0.84375000000000000        0.0000000000000000     
  0.14374999999999999       0.83125000000000004        0.0000000000000000     
  0.16562499999999999       0.83437499999999998        0.0000000000000000     
  0.16875000000000001       0.85624999999999996        0.0000000000000000     
  0.14687500000000001       0.85312500000000002        0.0000000000000000     
  0.21875000000000000       0.81250000000000000        0.0000000000000000     
  0.25000000000000000       0.81250000000000000        0.0000000000000000     
  0.25000000000000000       0.84375000000000000        0.0000000000000000     
  0.20624999999999999       0.83125000000000004        0.0000000000000000     
  0.22812499999999999       0.83437499999999998        0.0000000000000000     
  0.23125000000000001       0.85624999999999996        0.0000000000000000     
  0.20937500000000001       0.85312500000000002        0.0000000000000000     
  0.15625000000000000       0.75000000000000000        0.0000000000000000     
  0.18750000000000000       0.75000000000000000        0.0000000000000000     
  0.18750000000000000       0.78125000000000000        0.0000000000000000     
  0.14374999999999999       0.76875000000000004        0.0000000000000000     
  0.16562499999999999       0.77187499999999998        0.0000000000000000     
  0.16875000000000001       0.79374999999999996        0.0000000000000000     
  0.14687500000000001       0.79062500000000002        0.0000000000000000     
  0.21875000000000000       0.75000000000000000        0.0000000000000000     
  0.25000000000000000       0.75000000000000000        0.0000000000000000     
  0.25000000000000000       0.78125000000000000        0.0000000000000000     
  0.20624999999999999       0.76875000000000004        0.0000000000000000     
  0.22812499999999999       0.77187499999999998        0.0000000000000000     
  0.23125000000000001       0.79374999999999996        0.0000000000000000     
  0.20937500000000001       0.79062500000000002        0.0000000000000000     
  0.28125000000000000       0.93750000000000000        0.0000000000000000     
  0.31250000000000000       0.93750000000000000        0.0000000000000000     
  0.31250000000000000       0.96875000000000000        0.0000000000000000     
  0.26874999999999999       0.95625000000000004        0.0000000000000000     
  0.29062500000000002       0.95937499999999998        0.0000000000000000     
  0.29375000000000001       0.98124999999999996        0.0000000000000000     
  0.27187499999999998       0.97812500000000002        0.0000000000000000     
  0.34375000000000000       0.93750000000000000        0.0000000000000000     
  0.37500000000000000       0.93750000000000000        0.0000000000000000     
  0.37500000000000000       0.96875000000000000        0.0000000000000000     
  0.33124999999999999       0.95625000000000004        0.0000000000000000     
  0.35312500000000002       0.95937499999999998        0.0000000000000000     
  0.35625000000000001       0.98124999999999996        0.0000000000000000     
[...]
 CELL_DATA        3584
 SCALARS Cells_density float
 LOOKUP_TABLE default
    0.99991174530786586239E+00
    0.99994874210297723938E+00
    0.99994661972108678238E+00
    0.99995605098619178008E+00
    0.99995022376871345315E+00
    0.99990360949041467986E+00
    0.99993050000958783041E+00
    0.99992185226592877889E+00
    0.99993130991559986409E+00
    0.99993523178537946361E+00
    0.99992545927381948356E+00
    0.99993419167912533929E+00
    0.99993803742715714478E+00
    0.99993842212238714939E+00
    0.99997276108438026831E+00
    0.99997663490743082804E+00
    0.99996052227251952527E+00
    0.99996364179824615004E+00
    0.99995798885144271395E+00
    0.99990695843609334048E+00
    0.99993373625078574296E+00
    0.99992627338770945222E+00
    0.99993193505494903928E+00
    0.99991258945040639716E+00
    0.99995636259020903580E+00
    0.99995560953695827866E+00
    0.99995381682518913458E+00
    0.99995212792942134161E+00
    0.99991440685197041649E+00
    0.99995598522490702909E+00
    0.99995360812045941401E+00
    0.99996934730344233522E+00
    0.99997483688220722975E+00
    0.99995819431349441953E+00
    0.99995502559391802322E+00
    0.99995224684723782449E+00
    0.99990163841030232916E+00
    0.99992825814131958140E+00
    0.99992591176745082571E+00
    0.99993558687720829337E+00
    0.99995109697333106613E+00
    0.99995471888860387732E+00
    0.99997810975214795892E+00
    0.99998805553740066632E+00
    0.99996767329275160208E+00
    0.99997591543022135152E+00
    0.99998575772630260428E+00
    0.99996441099058719360E+00
    0.99996997146874710971E+00
    0.99998569191892849872E+00
    0.99996855019257901986E+00
    0.99997523514275554746E+00
    0.99999056189419943674E+00
    0.99996951027586178373E+00
    0.99997757390352692841E+00
    0.99997762731643813350E+00
    0.99997456772950055193E+00
    0.99997774300443087458E+00
    0.99996038820315780171E+00
    0.99996278041752650889E+00
    0.99995808302685007529E+00
    0.99990733088067185186E+00
    0.99993430701145913364E+00
    0.99992534001312594061E+00
    0.99993359787860580656E+00
    0.99991509367123854179E+00
    0.99995895268857670768E+00
    0.99996006389549407789E+00
    0.99995457475940130454E+00
    0.99995143089019256077E+00
    0.99997158431548616164E+00
    0.99997741942041584728E+00
    0.99995725094398135724E+00
    0.99996114996981200207E+00
    0.99995630845757965677E+00
    0.99990548012600355410E+00
    0.99993274041262070195E+00
    0.99992259482623524480E+00
    0.99993294733928606011E+00
    0.99991505924536716599E+00
    0.99995772546287275961E+00
    0.99995750775412450828E+00
    0.99995208007451508170E+00
    0.99994832470005745595E+00
    0.99997774881860146401E+00
    0.99998875470894466044E+00
    0.99996189321392359162E+00
    0.99997249120115150323E+00
    0.99998506023850852742E+00
    0.99996195902886630957E+00
    0.99997023181064625952E+00
    0.99998540316121464766E+00
    0.99996996059876830376E+00
    0.99997634442348248829E+00
    0.99998763595569517548E+00
    0.99997107835490328664E+00
    0.99997571519592420852E+00
    0.99997584678101525402E+00
    0.99993934253962724057E+00
    0.99994883782335708400E+00
    0.99988072434693797685E+00
    0.99990605797658538290E+00
    0.99995447156790551180E+00
    0.99994235287266053369E+00
    0.99996265644194815003E+00
    0.99998112088648716256E+00
    0.99996638408031113254E+00
    0.99997139844234894657E+00
    0.99998472508239322210E+00
    0.99996264740159657158E+00
    0.99996143765594192043E+00
    0.99996300552959982433E+00
    0.99991475322405254378E+00
    0.99995611259156436113E+00
    0.99995243769015607072E+00
    0.99996682399991176915E+00
    0.99997448726819337939E+00
    0.99995803272687155960E+00
    0.99995891364415767644E+00
    0.99995441670169948889E+00
    0.99990375939403763894E+00
    0.99992994995402073588E+00
    0.99992655969505950253E+00
    0.99993634628483030191E+00
    0.99995154304650191168E+00
    0.99995553136540238359E+00
    0.99997535568876794176E+00
    0.99998802030070965685E+00
    0.99996176678700343654E+00
    0.99997075396519552459E+00
    0.99998542069103701913E+00
    0.99996324263771452223E+00
    0.99997467112670623823E+00
    0.99998719855203632711E+00
    0.99997069234719571096E+00
    0.99997305747596043624E+00
    0.99998452960805983558E+00
    0.99996527249818434324E+00
    0.99997493536369808087E+00
    0.99997639450426034635E+00
    0.99991299749002493513E+00
    0.99995368950079921433E+00
    0.99994891289307585858E+00
    0.99996596087472411352E+00
    0.99997431787741797304E+00
    0.99995548234755116113E+00
    0.99995810851822664045E+00
    0.99995355528105145382E+00
    0.99990375963612943000E+00
    0.99992932796926259353E+00
    0.99992336894431177452E+00
    0.99993485211013677372E+00
    0.99994809534909989690E+00
    0.99995313402259589086E+00
    0.99995803095328827936E+00
    0.99995776103937550339E+00
    0.99989173962775390603E+00
    0.99988615155368265608E+00
    0.99994317424088041690E+00
    0.99992370256738949408E+00
    0.99996236356142376156E+00
    0.99998307574331246617E+00
    0.99996724273561421459E+00
    0.99996856479531093242E+00
    0.99998025460403927589E+00
    0.99996063292897463537E+00
    0.99996132259914771723E+00
    0.99996065439892600768E+00
    0.99993372818423797987E+00
    0.99992924515535153152E+00
    0.99983163771015282073E+00
    0.99984198153126357944E+00
    0.99992440940761473378E+00
    0.99991648683804024156E+00
    0.99995975140401738290E+00
    0.99997944203461419654E+00
    0.99996864966913379114E+00
    0.99997133602636578686E+00
    0.99997963514647014716E+00
    0.99995949982188403471E+00
    0.99994957206211243506E+00
    0.99995004131135190040E+00
    0.99951589065298540593E+00
    0.99945801771529463320E+00
    0.99893875943663068551E+00
    0.99903085288653015184E+00
    0.99951824103648689857E+00
    0.99962922466118586673E+00
    0.99982979050415288214E+00
    0.99984840656890971999E+00
    0.99991029967327071937E+00
    0.99990752304087782143E+00
    0.99983111090983733948E+00
    0.99977526272314121147E+00
    0.99969579015233056563E+00
    0.99970768981907276451E+00
    0.99964789002756571090E+00
    0.99952190675154473087E+00
    0.99901524229298821478E+00
    0.99894410750464157633E+00
    0.99945062957709429607E+00
    0.99949783947718973121E+00
    0.99977303763156788463E+00
    0.99982867127746144487E+00
    0.99990908689176905000E+00
    0.99991517847945876607E+00
    0.99984708766456398266E+00
    0.99982794282506692873E+00
    0.99970510286892799723E+00
    0.99969366658799696523E+00
    0.99685069490335387332E+00
    0.99602929389196848131E+00
    0.99237817762734847893E+00
    0.99238855020342298108E+00
    0.99602291762286132570E+00
    0.99683012101653656334E+00
    0.99848560738762059952E+00
    0.99863038120118530205E+00
    0.99933576868966866869E+00
    0.99933696109761638304E+00
    0.99863255386186233764E+00
    0.99848641226228218581E+00
    0.99765215626302350405E+00
    0.99765199713564167716E+00
    0.99996112783397794743E+00
    0.99996974500430224619E+00
    0.99994070508974630673E+00
    0.99995205333503867084E+00
    0.99995155734291651939E+00
    0.99990113175246830846E+00
    0.99992930622086784176E+00
    0.99991807176656033462E+00
    0.99993034492813537284E+00
    0.99991273823509385643E+00
    0.99995480273184622622E+00
    0.99995407826836224530E+00
    0.99994755444576000070E+00
    0.99994260149282154782E+00
    0.99992123129410381832E+00
    0.99994107556913991441E+00
    0.99988757833913999296E+00
    0.99991719404734580312E+00
    0.99993462182600356680E+00
    0.99989481594296480971E+00
    0.99992646493778924999E+00
    0.99991307882622171288E+00
    0.99992666960977583113E+00
    0.99990720165684709997E+00
    0.99995148449386639378E+00
    0.99994151798750963156E+00
    0.99993584125747769775E+00
    0.99993061043623610029E+00
    0.99973209064699886106E+00
    0.99975914540142996056E+00
    0.99953471878515309790E+00
    0.99963664278933117568E+00
    0.99982469624979053435E+00
    0.99986536910742263018E+00
    0.99992852618377492391E+00
    0.99993954113330318911E+00
    0.99994758514190629217E+00
    0.99994632519383208624E+00
    0.99992389550205063031E+00
    0.99987262780260410810E+00
    0.99986635229509790435E+00
    0.99987901762170150466E+00
    0.99906411199620559493E+00
    0.99921583326499541222E+00
    0.99866916402724015267E+00
    0.99901156350849351639E+00
    0.99950938476353201612E+00
    0.99969217501756701960E+00
    0.99984056696079393056E+00
    0.99982009299029583893E+00
    0.99988200707994190353E+00
    0.99985660365232587043E+00
    0.99971668661881218920E+00
    0.99954699346317488207E+00
    0.99958737563169330897E+00
    0.99964451559991240881E+00
    0.99983826706792255923E+00
    0.99988569808077709666E+00
    0.99980678880846429735E+00
    0.99986712777962993837E+00
    0.99990932657411590867E+00
    0.99988346021106244699E+00
    0.99991792598273099291E+00
    0.99990204259249104712E+00
    0.99992096417438924849E+00
    0.99989945229848586905E+00
    0.99993085913711909907E+00
    0.99990273740223445387E+00
    0.99990950912345288870E+00
    0.99990945108515782991E+00
    0.99974922401510235570E+00
    0.99983589196734190541E+00
    0.99975031199519315273E+00
    0.99983474121092541509E+00
    0.99989176965791748408E+00
    0.99987658033394888335E+00
    0.99991503813553239688E+00
    0.99989659804508890240E+00
    0.99991498693995017888E+00
    0.99988961912674489962E+00
    0.99990601370324971864E+00
    0.99985324672024644688E+00
    0.99988432567408658258E+00
    0.99989107580061920011E+00
    0.99776516910817558692E+00
    0.99829305281085822799E+00
    0.99738444990548480451E+00
    0.99816461653744859017E+00
    0.99905978343593138113E+00
    0.99946657969692698220E+00
    0.99971135441418523815E+00
    0.99962042369385673002E+00
    0.99975394346983326166E+00
    0.99966986389746426145E+00
    0.99930870699953300296E+00
    0.99885552634935115268E+00
    0.99910491647954824401E+00
    0.99925856189907713567E+00
    0.99637060038283720154E+00
    0.99747670868210713824E+00
    0.99649849127131939763E+00
    0.99767768500484332872E+00
    0.99877095178539221365E+00
    0.99935437353588707499E+00
    0.99962451441388266993E+00
    0.99944923907472338342E+00
    0.99961752345775489736E+00
    0.99944974228844030151E+00
    0.99886107292047476847E+00
    0.99801758351167757510E+00
    0.99866701997288798154E+00
    0.99893468645510175019E+00
    0.99728868958731509142E+00
    0.99725596225222690183E+00
    0.99511906761864643567E+00
    0.99586593491080876994E+00
    0.99788618332435485847E+00
    0.99857364767027700925E+00
    0.99930026396014393075E+00
    0.99924965282154631918E+00
    0.99960414549630693948E+00
    0.99954704665890281579E+00
    0.99903015890202273575E+00
    0.99870491000552297223E+00
    0.99849160261788094672E+00
    0.99861289649723927742E+00
    0.98988516471337728575E+00
    0.99090130176734547707E+00
    0.98527694595503301223E+00
    0.98834084505770480877E+00
    0.99384452998879024843E+00
    0.99616593531424424413E+00
    0.99798932030545817184E+00
    0.99758190701743876261E+00
    0.99863425163024766018E+00
    0.99831535538867710589E+00
    0.99640982346681195025E+00
    0.99487741882015012784E+00
    0.99497797033591472982E+00
    0.99556544295183868609E+00
    0.97805196538221028657E+00
    0.97593006335389964612E+00
    0.95582823261893967715E+00
    0.96199921575293700915E+00
    0.98024022247468778346E+00
    0.98610458760788222143E+00
    0.99294464256509917810E+00
    0.99273822138497314072E+00
    0.99625675900300647569E+00
    0.99593887714041073878E+00
    0.99146801995352384917E+00
    0.98954532935153516338E+00
    0.98650949096940887539E+00
    0.98729336818379298535E+00
    0.90809501621627308765E+00
    0.91843648801203070509E+00
    0.87551482469419950050E+00
    0.89852311673597495822E+00
    0.94272351679095378607E+00
    0.96179037618029028511E+00
    0.97882034190001387941E+00
    0.97558588668065704397E+00
    0.98592668165589547602E+00
    0.98332946934554799068E+00
    0.96591209822119439288E+00
    0.95266215125612729864E+00
    0.95280058708745873908E+00
    0.95774331577651805603E+00
    0.97536284729246869318E+00
    0.97998593596196836852E+00
    0.97067272323732345374E+00
    0.97804703668049619569E+00
    0.98798309399842243472E+00
    0.99297836249218340843E+00
    0.99605318558620992153E+00
    0.99475676295405135452E+00
    0.99674434242769871517E+00
    0.99571271793272497774E+00
    0.99116328615039561711E+00
    0.98656950253998010325E+00
    0.98879891511811568439E+00
    0.99046491789508905867E+00
    0.95993836248061648053E+00
    0.97034153847117565750E+00
    0.96067203708124826456E+00
    0.97212324348454581813E+00
    0.98416616082889996076E+00
    0.99128428964713066751E+00
    0.99473162860546116004E+00
    0.99230078965664225699E+00
    0.99470692492724699374E+00
    0.99259274258342189423E+00
    0.98533974662789514110E+00
    0.97639705746981408918E+00
    0.98313629961335613494E+00
    0.98613640966208326866E+00
    0.81781150516045419963E+00
    0.84514915798334788732E+00
    0.79344474028559519585E+00
    0.83000698068040112965E+00
    0.89508955603148043778E+00
    0.93131808279917083215E+00
    0.95835328159578436757E+00
    0.94778367642392113979E+00
    0.96588552264014904125E+00
    0.95725843763138107612E+00
    0.92042548927548284432E+00
    0.88676038289006431370E+00
    0.90159277442815388692E+00
    0.91343274891057990583E+00
    0.74765977493081325900E+00
    0.79245976227224701471E+00
    0.74715657019004244610E+00
    0.79559679481386635924E+00
    0.86664379377602163146E+00
    0.91561936783454411781E+00
    0.94463705886137083745E+00
    0.92466277372942939916E+00
    0.94481584709671762035E+00
    0.92754905508779650347E+00
    0.87598433608498571523E+00
    0.82112299265614552279E+00
    0.85987780145494507877E+00
    0.87916262109616716280E+00
    0.99991326346750097898E+00
    0.99995076257526782637E+00
    0.99993743169413373817E+00
    0.99994651810016388360E+00
    0.99996363395298137888E+00
    0.99994409941770567851E+00
    0.99995417305666745023E+00
    0.99995177596066153747E+00
    0.99990158033374243463E+00
    0.99992677629893589319E+00
    0.99991891486574646652E+00
    0.99993393928050822161E+00
    0.99994190241078606540E+00
    0.99994794975844381035E+00
    0.99988268477410646717E+00
    0.99982791149990013491E+00
    0.99962137964015351788E+00
    0.99953986276222306362E+00
    0.99975474725728508130E+00
    0.99971805936938806791E+00
    0.99986969251713808671E+00
    0.99992100780900139423E+00
    0.99994649560965453983E+00
    0.99995162334012488436E+00
    0.99993880161950887686E+00
    0.99992693317140279863E+00
    0.99987665895460642318E+00
    0.99986468579683107638E+00
    0.99990563401793453036E+00
    0.99993403486358967136E+00
    0.99990154151742727251E+00
    0.99989267593591213412E+00
    0.99993681426071068241E+00
    0.99990642074291724573E+00
    0.99993853241369068385E+00
    0.99994516517827392033E+00
    0.99989825348689431728E+00
    0.99992287183006467455E+00
    0.99991327404094354492E+00
    0.99992812948715847909E+00
    0.99992870222823748705E+00
    0.99993444043071988414E+00
    0.99971014969225735491E+00
    0.99951266718925280141E+00
    0.99899602095179429462E+00
    0.99867432381714493772E+00
    0.99921209820983625249E+00
    0.99905091309738036642E+00
    0.99954339550527115943E+00
    0.99971400574471858125E+00
    0.99985858973289187812E+00
    0.99988741688765581106E+00
    0.99981971724924045830E+00
    0.99983883572260889849E+00
    0.99964220353363586469E+00
    0.99958583397123468295E+00
    0.99859319732438356354E+00
    0.99788985575969180175E+00
    0.99584990131366690758E+00
    0.99512304023631414918E+00
    0.99724818658273595151E+00
    0.99727225528360252671E+00
    0.99870032435004174598E+00
    0.99902754278885286254E+00
    0.99955061870331562979E+00
    0.99961086272363386396E+00
    0.99924998238062645584E+00
    0.99929911673491822466E+00
    0.99861041073254741551E+00
    0.99848915749827293897E+00
    0.98612436809285841655E+00
    0.98024414644647350769E+00
    0.96198394515133966998E+00
    0.95583239894802496384E+00
    0.97592165065155023207E+00
    0.97803333812302351014E+00
    0.98954247929248306814E+00
    0.99146619088385101737E+00
    0.99594369658191383987E+00
    0.99626316045289420309E+00
    0.99273851408152125053E+00
    0.99294307863441644280E+00
    0.98729087773011403595E+00
    0.98650697206246684701E+00
    0.99618580304193693475E+00
    0.99384853671104445016E+00
    0.98832515739423498768E+00
    0.98528161463617014437E+00
    0.99089747695595875587E+00
    0.98987215803025907501E+00
    0.99487322573070269272E+00
    0.99640792263343991308E+00
    0.99831998223459439412E+00
    0.99864202197221363377E+00
    0.99758282670067199849E+00
    0.99798832850228835767E+00
    0.99556367769479536811E+00
    0.99497674979231343073E+00
    0.96180981202102566741E+00
    0.94272805210484811322E+00
    0.89850933510180452934E+00
    0.87551819341707204369E+00
    0.91843289736238920007E+00
    0.90808319667854697776E+00
    0.95265807998762885855E+00
    0.96591072278242429139E+00
    0.98333482794652904424E+00
    0.98593470247874293033E+00
    0.97558717502882430495E+00
    0.97881932759193646110E+00
    0.95774197254762738485E+00
    0.95279966218513889586E+00
    0.99989235784865737600E+00
    0.99990830354682991299E+00
    0.99985128075455942387E+00
    0.99981183828669084601E+00
    0.99988177012862344828E+00
    0.99982400112099389933E+00
    0.99989856265193910456E+00
    0.99992343383860882167E+00
    0.99988899344463377794E+00
    0.99991500555037737819E+00
    0.99990312234819311854E+00
    0.99991832798617708011E+00
    0.99990706216865499201E+00
    0.99990748386645111889E+00
    0.99948466596363660930E+00
    0.99906303449042510589E+00
    0.99814899227352216204E+00
    0.99738956272415646431E+00
    0.99828935395404128084E+00
    0.99775213875681512121E+00
    0.99885166387553159240E+00
    0.99930615286159196753E+00
    0.99967267646564961225E+00
    0.99976015463476208822E+00
    0.99962029581364875153E+00
    0.99970962519865369522E+00
    0.99925623959545017971E+00
    0.99910335518575188463E+00
    0.99988228014268043520E+00
    0.99989139587853792523E+00
    0.99982214328251017843E+00
    0.99975573593278777018E+00
    0.99983218916836658074E+00
    0.99973518254028337360E+00
    0.99984883422338233228E+00
    0.99989792814263200871E+00
    0.99988201465883908003E+00
    0.99991266403972334231E+00
    0.99989659941739061910E+00
    0.99991444918378002971E+00
    0.99988875149984901558E+00
    0.99988217239877363873E+00
    0.99935753839292695844E+00
    0.99877141849117367922E+00
    0.99766146850602410723E+00
    0.99650138034943147591E+00
    0.99747255697722114753E+00
    0.99635748121165323976E+00
    0.99801363419634347984E+00
    0.99885852770380945120E+00
    0.99945274068861444938E+00
    0.99962396006049503150E+00
    0.99944875274287203748E+00
    0.99962052394688094559E+00
    0.99893190723842384404E+00
    0.99866528170223611838E+00
    0.99299822423288786055E+00
    0.98798720827014085977E+00
    0.97803151454040904156E+00
    0.97067716609506682346E+00
    0.97998223528766736923E+00
    0.97535018095748016176E+00
    0.98656541612286807741E+00
    0.99116160967512001445E+00
    0.99571776161674796501E+00
    0.99675240983556312457E+00
    0.99475788377207929880E+00
    0.99605223932341180326E+00
    0.99046329476832373206E+00
    0.98879782553762540775E+00
    0.93133657434723582380E+00
    0.89509456704546719319E+00
    0.82999483407985230610E+00
    0.79344683485786071664E+00
    0.84514594098667639166E+00
    0.81780079039683073461E+00
    0.88675678170087501861E+00
    0.92042463795831985784E+00
    0.95726397100698201736E+00
    0.96589336629407041013E+00
    0.94778516207109253511E+00
    0.95835227810559242556E+00