# vtk DataFile Version 3.0
LAPLACIEN  2D
ASCII
DATASET UNSTRUCTURED_GRID
 POINTS        1857  float
   3.1250000000000000E-002  0.93750000000000000        0.0000000000000000     
   6.2500000000000000E-002  0.93750000000000000        0.0000000000000000     
   6.2500000000000000E-002  0.96875000000000000        0.0000000000000000     
   1.8749999999999999E-002  0.95625000000000004        0.0000000000000000     
   4.0625000000000001E-002  0.95937499999999998        0.0000000000000000     
   4.3749999999999997E-002  0.98124999999999996        0.0000000000000000     
   2.1874999999999999E-002  0.97812500000000002        0.0000000000000000     
   9.3750000000000000E-002  0.93750000000000000        0.0000000000000000     
  0.12500000000000000       0.93750000000000000        0.0000000000000000     
  0.12500000000000000       0.96875000000000000        0.0000000000000000     
   8.1250000000000003E-002  0.95625000000000004        0.0000000000000000     
  0.10312499999999999       0.95937499999999998        0.0000000000000000     
  0.10625000000000000       0.98124999999999996        0.0000000000000000     
   8.4375000000000006E-002  0.97812500000000002        0.0000000000000000     
   3.1250000000000000E-002  0.87500000000000000        0.0000000000000000     
   6.2500000000000000E-002  0.87500000000000000        0.0000000000000000     
   6.2500000000000000E-002  0.90625000000000000        0.0000000000000000     
   1.8749999999999999E-002  0.89375000000000004        0.0000000000000000     
   4.0625000000000001E-002  0.89687499999999998        0.0000000000000000     
   4.3749999999999997E-002  0.91874999999999996        0.0000000000000000     
   2.1874999999999999E-002  0.91562500000000002        0.0000000000000000     
   9.3750000000000000E-002  0.87500000000000000        0.0000000000000000     
  0.12500000000000000       0.87500000000000000        0.0000000000000000     
  0.12500000000000000       0.90625000000000000        0.0000000000000000     
   8.1250000000000003E-002  0.89375000000000004        0.0000000000000000     
  0.10312499999999999       0.89687499999999998        0.0000000000000000     
  0.10625000000000000       0.91874999999999996        0.0000000000000000     
   8.4375000000000006E-002  0.91562500000000002        0.0000000000000000     
  0.15625000000000000       0.93750000000000000        0.0000000000000000     
  0.18750000000000000       0.93750000000000000        0.0000000000000000     
  0.18750000000000000       0.96875000000000000        0.0000000000000000     
  0.14374999999999999       0.95625000000000004        0.0000000000000000     
  0.16562499999999999       0.95937499999999998        0.0000000000000000     
  0.16875000000000001       0.98124999999999996        0.0000000000000000     
  0.14687500000000001       0.97812500000000002        0.0000000000000000     
  0.21875000000000000       0.93750000000000000        0.0000000000000000     
  0.25000000000000000       0.93750000000000000        0.0000000000000000     
  0.25000000000000000       0.96875000000000000        0.0000000000000000     
  0.20624999999999999       0.95625000000000004        0.0000000000000000     
  0.22812499999999999       0.95937499999999998        0.0000000000000000     
  0.23125000000000001       0.98124999999999996        0.0000000000000000     
  0.20937500000000001       0.97812500000000002        0.0000000000000000     
  0.15625000000000000       0.87500000000000000        0.0000000000000000     
  0.18750000000000000       0.87500000000000000        0.0000000000000000     
  0.18750000000000000       0.90625000000000000        0.0000000000000000     
  0.14374999999999999       0.89375000000000004        0.0000000000000000     
  0.16562499999999999       0.89687499999999998        0.0000000000000000     
  0.16875000000000001       0.91874999999999996        0.0000000000000000     
  0.14687500000000001       0.91562500000000002        0.0000000000000000     
  0.21875000000000000       0.87500000000000000        0.0000000000000000     
  0.25000000000000000       0.87500000000000000        0.0000000000000000     
  0.25000000000000000       0.90625000000000000        0.0000000000000000     
  0.20624999999999999       0.89375000000000004        0.0000000000000000     
  0.22812499999999999       0.89687499999999998        0.0000000000000000     
  0.23125000000000001       0.91874999999999996        0.0000000000000000     
  0.20937500000000001       0.91562500000000002        0.0000000000000000     
   3.1250000000000000E-002  0.81250000000000000        0.0000000000000000     
   6.2500000000000000E-002  0.81250000000000000        0.0000000000000000     
   6.2500000000000000E-002  0.84375000000000000        0.0000000000000000     
   1.8749999999999999E-002  0.83125000000000004        0.0000000000000000     
   4.0625000000000001E-002  0.83437499999999998        0.0000000000000000     
   4.3749999999999997E-002  0.85624999999999996        0.0000000000000000     
   2.1874999999999999E-002  0.85312500000000002        0.0000000000000000     
   9.3750000000000000E-002  0.81250000000000000        0.0000000000000000     
  0.12500000000000000       0.81250000000000000        0.0000000000000000     
  0.12500000000000000       0.84375000000000000        0.0000000000000000     
   8.1250000000000003E-002  0.83125000000000004        0.0000000000000000     
  0.10312499999999999       0.83437499999999998        0.0000000000000000     
  0.10625000000000000       0.85624999999999996        0.0000000000000000     
   8.4375000000000006E-002  0.85312500000000002        0.0000000000000000     
   3.1250000000000000E-002  0.75000000000000000        0.0000000000000000     
   6.2500000000000000E-002  0.75000000000000000        0.0000000000000000     
   6.2500000000000000E-002  0.78125000000000000        0.0000000000000000     
   1.8749999999999999E-002  0.76875000000000004        0.0000000000000000     
   4.0625000000000001E-002  0.77187499999999998        0.0000000000000000     
   4.3749999999999997E-002  0.79374999999999996        0.0000000000000000     
   2.1874999999999999E-002  0.79062500000000002        0.0000000000000000     
   9.3750000000000000E-002  0.75000000000000000        0.0000000000000000     
  0.12500000000000000       0.75000000000000000        0.0000000000000000     
  0.12500000000000000       0.78125000000000000        0.0000000000000000     
   8.1250000000000003E-002  0.76875000000000004        0.0000000000000000     
  0.10312499999999999       0.77187499999999998        0.0000000000000000     
  0.10625000000000000       0.79374999999999996        0.0000000000000000     
   8.4375000000000006E-002  0.79062500000000002        0.0000000000000000     
  0.15625000000000000       0.81250000000000000        0.0000000000000000     
  0.18750000000000000       0.81250000000000000        0.0000000000000000     
  0.18750000000000000       0.84375000000000000        0.0000000000000000     
  0.14374999999999999       0.83125000000000004        0.0000000000000000     
  0.16562499999999999       0.83437499999999998        0.0000000000000000     
  0.16875000000000001       0.85624999999999996        0.0000000000000000     
  0.14687500000000001       0.85312500000000002        0.0000000000000000     
  0.21875000000000000       0.81250000000000000        0.0000000000000000     
  0.25000000000000000       0.81250000000000000        0.0000000000000000     
  0.25000000000000000       0.84375000000000000        0.0000000000000000     
  0.20624999999999999       0.83125000000000004        0.0000000000000000     
  0.22812499999999999       0.83437499999999998        0.0000000000000000     
  0.23125000000000001       0.85624999999999996        0.0000000000000000     
  0.20937500000000001       0.85312500000000002        0.0000000000000000     
  0.15625000000000000       0.75000000000000000        0.0000000000000000     
  0.18750000000000000       0.75000000000000000        0.0000000000000000     
  0.18750000000000000       0.78125000000000000        0.0000000000000000     
  0.14374999999999999       0.76875000000000004        0.0000000000000000     
  0.16562499999999999       0.77187499999999998        0.0000000000000000     
  0.16875000000000001       0.79374999999999996        0.0000000000000000     
  0.14687500000000001       0.79062500000000002        0.0000000000000000     
  0.21875000000000000       0.75000000000000000        0.0000000000000000     
  0.25000000000000000       0.75000000000000000        0.0000000000000000     
  0.25000000000000000       0.78125000000000000        0.0000000000000000     
  0.20624999999999999       0.76875000000000004        0.0000000000000000     
  0.22812499999999999       0.77187499999999998        0.0000000000000000     
  0.23125000000000001       0.79374999999999996        0.0000000000000000     
  0.20937500000000001       0.79062500000000002        0.0000000000000000     
  0.28125000000000000       0.93750000000000000        0.0000000000000000     
  0.31250000000000000       0.93750000000000000        0.0000000000000000     
  0.31250000000000000       0.96875000000000000        0.0000000000000000     
  0.26874999999999999       0.95625000000000004        0.0000000000000000     
  0.29062500000000002       0.95937499999999998        0.0000000000000000     
  0.29375000000000001       0.98124999999999996        0.0000000000000000     
  0.27187499999999998       0.97812500000000002        0.0000000000000000     
  0.34375000000000000       0.93750000000000000        0.0000000000000000     
  0.37500000000000000       0.93750000000000000        0.0000000000000000     
  0.37500000000000000       0.96875000000000000        0.0000000000000000     
  0.33124999999999999       0.95625000000000004        0.0000000000000000     
  0.35312500000000002       0.95937499999999998        0.0000000000000000     
  0.35625000000000001       0.98124999999999996        0.0000000000000000     
[...]
 CELL_DATA        3584
 SCALARS Cells_density float
 LOOKUP_TABLE default
    0.99996320252545312091E+00
    0.10000010190978345648E+01
    0.99998632454777480749E+00
    0.99999432792038545070E+00
    0.10000001490038012975E+01
    0.99995254813703204899E+00
    0.99997131727215815555E+00
    0.99997224565573195054E+00
    0.99996760826786446064E+00
    0.99996971828538938620E+00
    0.99997353408159161958E+00
    0.99997519912447896395E+00
    0.99999821654163245643E+00
    0.99999901181111816584E+00
    0.10000021506891101364E+01
    0.10000093422185798442E+01
    0.99998968207048366530E+00
    0.99999606418850062184E+00
    0.10000001642331945995E+01
    0.99995355278485709150E+00
    0.99997146043938456295E+00
    0.99996832625069564937E+00
    0.99997487938892481996E+00
    0.99996113419715015880E+00
    0.99999920368583916641E+00
    0.99999108553869553440E+00
    0.99999563401176561062E+00
    0.99999589769713737031E+00
    0.99996420858491963379E+00
    0.10000012731262146737E+01
    0.99998820257894760477E+00
    0.99999728295641798770E+00
    0.10000061113475078312E+01
    0.99998587555547802097E+00
    0.99999323291521047263E+00
    0.99999785273075358916E+00
    0.99995140371357993381E+00
    0.99997100719713138961E+00
    0.99996827436908541920E+00
    0.99997500127496530276E+00
    0.99999603506322831681E+00
    0.99999756248268623082E+00
    0.10000018202917773102E+01
    0.10000104566032530506E+01
    0.99999152421534509561E+00
    0.99999902689901776220E+00
    0.10000073796765533984E+01
    0.99998768670353122001E+00
    0.99999716528088666845E+00
    0.10000097165040511271E+01
    0.99999405105638361491E+00
    0.99999853328539578534E+00
    0.10000085029744416598E+01
    0.99999302843187809486E+00
    0.99999820951856732698E+00
    0.99999913101226967083E+00
    0.10000030787217200068E+01
    0.10000098925135361139E+01
    0.99998996724663036240E+00
    0.99999625101031919261E+00
    0.10000004203827528304E+01
    0.99995371910828634299E+00
    0.99997173733791866468E+00
    0.99996881727166275766E+00
    0.99997569226859739366E+00
    0.99996218130424197046E+00
    0.10000001453243911875E+01
    0.99999245903949629533E+00
    0.99999619755018265277E+00
    0.99999635422610644309E+00
    0.10000031417553842950E+01
    0.10000099233250479003E+01
    0.99998997896295493959E+00
    0.99999625751754794845E+00
    0.10000004312571275644E+01
    0.99995372492226952676E+00
    0.99997174955253553819E+00
    0.99996884682325481997E+00
    0.99997575601205956897E+00
    0.99996228651275953503E+00
    0.10000002212591292405E+01
    0.99999258105617772063E+00
    0.99999623206775611894E+00
    0.99999637947898256662E+00
    0.10000027001116866820E+01
    0.10000109840225515079E+01
    0.99999179742373034419E+00
    0.99999920734775438191E+00
    0.10000076357133607097E+01
    0.99998785248954813465E+00
    0.99999745286363872498E+00
    0.10000102478516625926E+01
    0.99999497552303218129E+00
    0.99999965400568124885E+00
    0.10000091975534504130E+01
    0.99999431747671518877E+00
    0.99999876767827666768E+00
    0.99999959403937122016E+00
    0.10000027604172538886E+01
    0.10000110133386581612E+01
    0.99999180859455472081E+00
    0.99999921352618725834E+00
    0.10000076460068652029E+01
    0.99998785801068856838E+00
    0.99999746454180071797E+00
    0.10000102762222053965E+01
    0.99999503753460539102E+00
    0.99999975666738594171E+00
    0.10000092702596212746E+01
    0.99999443460043380139E+00
    0.99999880048156464252E+00
    0.99999961801951831042E+00
    0.99996436849550163206E+00
    0.10000015199015770406E+01
    0.99998837747230051587E+00
    0.99999754447607447361E+00
    0.10000066338912350083E+01
    0.99998674352029492951E+00
    0.99999471502720393978E+00
    0.99999884293310925543E+00
    0.99995248590058405380E+00
    0.99997183931049338224E+00
    0.99996876636134413019E+00
    0.99997527305620159677E+00
    0.99999648633127713460E+00
    0.99999812456961612028E+00
    0.10000019673476985282E+01
    0.10000106866051521326E+01
    0.99999168636715907166E+00
    0.99999927491094209309E+00
    0.10000078750975431863E+01
    0.99998850960456031611E+00
    0.99999852975971748048E+00
    0.10000105331230699779E+01
    0.99999456978772838234E+00
    0.99999910597529317879E+00
    0.10000087123505307929E+01
    0.99999328258725106444E+00
    0.99999862878597267635E+00
    0.99999964416161279956E+00
    0.99996437381965086466E+00
    0.10000015298057687296E+01
    0.99998838324435479485E+00
    0.99999755485346264461E+00
    0.10000066617903982102E+01
    0.99998680077732260418E+00
    0.99999482890410384961E+00
    0.99999891391173345578E+00
    0.99995258591350366650E+00
    0.99997189942875430724E+00
    0.99996879392691617738E+00
    0.99997528436534588447E+00
    0.99999650957965824372E+00
    0.99999815637190159201E+00
    0.10000019720813477786E+01
    0.10000106954021164007E+01
    0.99999169154168665585E+00
    0.99999928435939078319E+00
    0.10000079004426694063E+01
    0.99998856241440670090E+00
    0.99999863411552925019E+00
    0.10000105973816910687E+01
    0.99999466094414901640E+00
    0.99999916139299338536E+00
    0.10000087373277484204E+01
    0.99999329281481252885E+00
    0.99999864959379058948E+00
    0.99999967272865897261E+00
    0.10000028421284337110E+01
    0.10000112100419786820E+01
    0.99999195725065070928E+00
    0.99999945312248006424E+00
    0.10000081260285604845E+01
    0.99998866946100639641E+00
    0.99999880559856746398E+00
    0.10000110484640647446E+01
    0.99999546394358973522E+00
    0.10000003619127613153E+01
    0.10000096442708090727E+01
    0.99999456258111918405E+00
    0.99999918183528946347E+00
    0.10000001003531027166E+01
    0.10000029021160092846E+01
    0.10000112391346234197E+01
    0.99999196862541306352E+00
    0.99999945946986978917E+00
    0.10000081361901773658E+01
    0.99998867492426768422E+00
    0.99999881682164404317E+00
    0.10000110757947207052E+01
    0.99999552344932651771E+00
    0.10000004608171826348E+01
    0.10000097151290279207E+01
    0.99999467823051579884E+00
    0.99999921404520331070E+00
    0.10000001238302680395E+01
    0.10000028466825072737E+01
    0.10000112185845917434E+01
    0.99999196252025013276E+00
    0.99999946270315753782E+00
    0.10000081510567808696E+01
    0.99998872185627296627E+00
    0.99999890825715720410E+00
    0.10000111107394527021E+01
    0.99999555125593664329E+00
    0.10000004139197504749E+01
    0.10000096677680054835E+01
    0.99999457205465325238E+00
    0.99999920194161340259E+00
    0.10000001281789090424E+01
    0.10000028971054586435E+01
    0.10000112191848822274E+01
    0.99999177901255598133E+00
    0.99999927417779610472E+00
    0.10000081325977143720E+01
    0.99998871791474264192E+00
    0.99999891876903657106E+00
    0.10000111370952577960E+01
    0.99999561091241173649E+00
    0.10000005129392406378E+01
    0.10000097376305205898E+01
    0.99999468691693027544E+00
    0.99999923185333428055E+00
    0.10000001493323875668E+01
    0.10000031432050653368E+01
    0.10000099239016477792E+01
    0.99998997913006548721E+00
    0.99999625755863508214E+00
    0.10000004314056141208E+01
    0.99995372499520984721E+00
    0.99997174973015301447E+00
    0.99996884736536451044E+00
    0.99997575746295075394E+00
    0.99996228946896492662E+00
    0.10000002231334645941E+01
    0.99999258465268614504E+00
    0.99999623273780169352E+00
    0.99999637991558765204E+00
    0.10000031432216893723E+01
    0.10000099239087694158E+01
    0.99998997913217047007E+00
    0.99999625756011456534E+00
    0.10000004314075283673E+01
    0.99995372499656631771E+00
    0.99997174973230718020E+00
    0.99996884737115665498E+00
    0.99997575747878952868E+00
    0.99996228950278076564E+00
    0.10000002231533795527E+01
    0.99999258468103779940E+00
    0.99999623274517135396E+00
    0.99999637992039669410E+00
    0.10000027618529345741E+01
    0.10000110139149087640E+01
    0.99999180877433624381E+00
    0.99999921357546073253E+00
    0.10000076461561901997E+01
    0.99998785808694901078E+00
    0.99999746471467687581E+00
    0.10000102767472140997E+01
    0.99999503894169838869E+00
    0.99999975947855579417E+00
    0.10000092720430384663E+01
    0.99999443802576681861E+00
    0.99999880113643402346E+00
    0.99999961844531715105E+00
    0.10000027614540747400E+01
    0.10000110136296131991E+01
    0.99999180755109606800E+00
    0.99999921310208617076E+00
    0.10000076460663167577E+01
    0.99998785807082157806E+00
    0.99999746471553507821E+00
    0.10000102767492409228E+01
    0.99999503895967989386E+00
    0.99999975951628772286E+00
    0.10000092720547257841E+01
    0.99999443801926612974E+00
    0.99999880111315941900E+00
    0.99999961842472073759E+00
    0.10000031432185543245E+01
    0.10000099239074360380E+01
    0.99998997912683418310E+00
    0.99999625755857113329E+00
    0.10000004314072004075E+01
    0.99995372499655965637E+00
    0.99997174973235369855E+00
    0.99996884737129354548E+00
    0.99997575747900580012E+00
    0.99996228950337751051E+00
    0.10000002231535352060E+01
    0.99999258468188612081E+00
    0.99999623274516158400E+00
    0.99999637992052292645E+00
    0.10000031432083535954E+01
    0.10000099239046049693E+01
    0.99998997911963904972E+00
    0.99999625755649934611E+00
    0.10000004314067945099E+01
    0.99995372499611823169E+00
    0.99997174973224733918E+00
    0.99996884737115809827E+00
    0.99997575747904599019E+00
    0.99996228950338672536E+00
    0.10000002231531368579E+01
    0.99999258468004226241E+00
    0.99999623274466920009E+00
    0.99999637992022871735E+00
    0.10000027572156715561E+01
    0.10000110116280127581E+01
    0.99999180162375933545E+00
    0.99999921115294976293E+00
    0.10000076456342381626E+01
    0.99998785798541334202E+00
    0.99999746469596928478E+00
    0.10000102767013929750E+01
    0.99999503894880792387E+00
    0.99999975948735853049E+00
    0.10000092718302819872E+01
    0.99999443721075442770E+00
    0.99999880070930335929E+00
    0.99999961820583327388E+00
    0.10000027467557803806E+01
    0.10000110081080473279E+01
    0.99999179435930052318E+00
    0.99999920921504636961E+00
    0.10000076451702413216E+01
    0.99998785790721866906E+00
    0.99999746467311112497E+00
    0.10000102766206346860E+01
    0.99999503891782381970E+00
    0.99999975939033836081E+00
    0.10000092712414110352E+01
    0.99999443486611749865E+00
    0.99999879995102369801E+00
    0.99999961784766344675E+00
    0.10000028972730561350E+01
    0.10000112319029930141E+01
    0.99999193404821784537E+00
    0.99999943951070968673E+00
    0.10000081321032727733E+01
    0.99998867396424295784E+00
    0.99999881690716074800E+00
    0.10000110761087845912E+01
    0.99999552490739651578E+00
    0.10000004637155734954E+01
    0.10000097166846206864E+01
    0.99999468120672807547E+00
    0.99999921414872650072E+00
    0.10000001235230384644E+01
    0.10000026714691636620E+01
    0.10000110634791696818E+01
    0.99999141625750109785E+00
    0.99999917566761931109E+00
    0.10000080676556648562E+01
    0.99998865620847998681E+00
    0.99999881302730453392E+00
    0.10000110695811845751E+01
    0.99999552370598454587E+00
    0.10000004615414450626E+01
    0.10000096999863781200E+01
    0.99999463767918772561E+00
    0.99999917617161671046E+00
    0.10000000975440537232E+01
    0.99999215633957971860E+00
    0.99999858986126288762E+00
    0.99987476048784684757E+00
    0.99997525205110315838E+00
    0.10000060469091864856E+01
    0.99998810425338324759E+00
    0.99999880960556652987E+00
    0.10000110047635808463E+01
    0.99999559509040125693E+00
    0.10000004897035890128E+01
    0.10000094460669555207E+01
    0.99999369000359217274E+00
    0.99999777767570774412E+00
    0.99999947856443349714E+00
    0.99931552534935574883E+00
    0.99984129431799961818E+00
    0.99924712498152301610E+00
    0.99985183008040556807E+00
    0.99998431755316863345E+00
    0.99998287368640814687E+00
    0.99999808987010996297E+00
    0.10000102748562205157E+01
    0.99999501551575054048E+00
    0.99999928378902180892E+00
    0.10000015581375991669E+01
    0.99992521329418104781E+00
    0.99997840834263596044E+00
    0.99999157367730884260E+00
    0.10000021095663380599E+01
    0.10000105778314563043E+01
    0.99998975501095854757E+00
    0.99999885100090224466E+00
    0.10000079860676482912E+01
    0.99998858755791886210E+00
    0.99999879531788815612E+00
    0.10000110309049585755E+01
    0.99999551240729966928E+00
    0.10000004359818492894E+01
    0.10000095560150776830E+01
    0.99999423960182109994E+00
    0.99999893500389769319E+00
    0.99999995624831961027E+00
    0.99999900837029576106E+00
    0.10000107446463895045E+01
    0.99998725767471696724E+00
    0.99999847109682982182E+00
    0.10000081442501997930E+01
    0.99998853091989181596E+00
    0.99999877405769332928E+00
    0.10000109658732070361E+01
    0.99999548482450617559E+00
    0.10000003608056684534E+01
    0.10000091802295292265E+01
    0.99999304862073279399E+00
    0.99999867671076458908E+00
    0.99999988712056742113E+00
    0.99880510072554951062E+00
    0.99960603263819769460E+00
    0.99871819391105021158E+00
    0.99959935989174764082E+00
    0.99990820553703652074E+00
    0.99996047581214297928E+00
    0.99999174820801195462E+00
    0.99999927365394558620E+00
    0.99999194364492238751E+00
    0.99999135676429884434E+00
    0.99996583131824556823E+00
    0.99981049169487457018E+00
    0.99991473721664414498E+00
    0.99995010250316151978E+00
    0.99784775651485879688E+00
    0.99916336288505280816E+00
    0.99797985382693665812E+00
    0.99932191154214744522E+00
    0.99981518257808987826E+00
    0.99993840696884350727E+00
    0.99998310430617298739E+00
    0.99997575817844119861E+00
    0.99998162472371754372E+00
    0.99996575562374723223E+00
    0.99985851876952369643E+00
    0.99950708213896155563E+00
    0.99978069286887127909E+00
    0.99987145381218933693E+00
    0.99996437387830461319E+00
    0.10000015299347169151E+01
    0.99998838330872186209E+00
    0.99999755499249054491E+00
    0.10000066622794363536E+01
    0.99998680201775880239E+00
    0.99999483206803441160E+00
    0.99999891557803921582E+00
    0.99995258863366509594E+00
    0.99997190074257280568E+00
    0.99996879440574704123E+00
    0.99997528451733908028E+00
    0.99999650995678168730E+00
    0.99999815695341853772E+00
    0.10000019721384600935E+01
    0.10000106955208163395E+01
    0.99999169160501544251E+00
    0.99999928449432218258E+00
    0.10000079008991846763E+01
    0.99998856357526200167E+00
    0.99999863694774449030E+00
    0.10000105988567413728E+01
    0.99999466335246023352E+00
    0.99999916258000898228E+00
    0.10000087377567905556E+01
    0.99999329295325600775E+00
    0.99999864993188947171E+00
    0.99999967325641136995E+00
    0.99996437387848813305E+00
    0.10000015299353601783E+01
    0.99998838330897665827E+00
    0.99999755499303089046E+00
    0.10000066622826944140E+01
    0.99998680202748424506E+00
    0.99999483209913198056E+00
    0.99999891559205100755E+00
    0.99995258865887448607E+00
    0.99997190075265751652E+00
    0.99996879440853803089E+00
    0.99997528451797590421E+00
    0.99999650995875399850E+00
    0.99999815695736682386E+00
    0.10000019721204533862E+01
    0.10000106954275904680E+01
    0.99999169112644648028E+00
    0.99999928325664522166E+00
    0.10000079006009174876E+01
    0.99998856315446837950E+00
    0.99999863693468349357E+00
    0.10000105988579346405E+01
    0.99999466337839326702E+00
    0.99999916259034804522E+00
    0.10000087377543123157E+01
    0.99999329295150196639E+00
    0.99999864990646769591E+00
    0.99999967322569927042E+00
    0.10000028456556242507E+01
    0.10000112143622243988E+01
    0.99999194232567456542E+00
    0.99999942772517991241E+00
    0.10000081435416059428E+01
    0.99998871662582888842E+00
    0.99999891056803480449E+00
    0.10000111119206616106E+01
    0.99999555367477666046E+00
    0.10000004151037953370E+01
    0.10000096679417789236E+01
    0.99999457207982755946E+00
    0.99999920147722021202E+00
    0.10000001280723798125E+01
    0.10000022742868734937E+01
    0.10000091348449604567E+01
    0.99996625424906071533E+00
    0.99988313806057660393E+00
    0.99999536738290906168E+00
    0.99997737247378204462E+00
    0.99999792784248731081E+00
    0.10000108451047646785E+01
    0.99999558690348899770E+00
    0.10000004966632116687E+01
    0.10000096043091122322E+01
    0.99999457694295701415E+00
    0.99999854697510981438E+00
    0.99999870743902030679E+00
    0.10000028278508552582E+01
    0.10000111496484898055E+01
    0.99999167173256187091E+00
    0.99999916016919399020E+00
    0.10000079687792375882E+01
    0.99998848969769338346E+00
    0.99999886672760474049E+00
    0.10000110950677822963E+01
    0.99999555143809648605E+00
    0.10000004138652895946E+01
    0.10000096613611406671E+01
    0.99999456817556720001E+00
    0.99999917537240023968E+00
    0.10000000898352774392E+01
    0.99999768160164914654E+00
    0.99998848276787910550E+00
    0.99984106212346302023E+00
    0.99925405314228277209E+00
    0.99983585794192531004E+00
    0.99929942866316101568E+00
    0.99992900771770099055E+00
    0.10000028700561958139E+01
    0.99999440789832638732E+00
    0.99999990965317409053E+00
    0.10000088109857299123E+01
    0.99999341390570617438E+00
    0.99999026808328961291E+00
    0.99997875888706067027E+00
    0.99996437387871206504E+00
    0.10000015299353925968E+01
    0.99998838330770734029E+00
    0.99999755498757303407E+00
    0.10000066622811436545E+01
    0.99998680202407286277E+00
    0.99999483209878692325E+00
    0.99999891559217179982E+00
    0.99995258865895353395E+00
    0.99997190075267516907E+00
    0.99996879440861241584E+00
    0.99997528451814365891E+00
    0.99999650995876143700E+00
    0.99999815695712035435E+00
    0.10000019720345996177E+01
    0.10000106949953364577E+01
    0.99999168917544289936E+00
    0.99999927732633531186E+00
    0.10000078985953422261E+01
    0.99998855890448645756E+00
    0.99999863611900419169E+00
    0.10000105986321687901E+01
    0.99999466334786446531E+00
    0.99999916257852816681E+00
    0.10000087377060249416E+01
    0.99999329293232330773E+00
    0.99999864968717078195E+00
    0.99999967281968626942E+00
    0.99996437388528613965E+00
    0.10000015299397275736E+01
    0.99998838331170181171E+00
    0.99999755498431530665E+00
    0.10000066622802290528E+01
    0.99998680201440470761E+00
    0.99999483209732986655E+00
    0.99999891559246090189E+00
    0.99995258865935698900E+00
    0.99997190075339781323E+00
    0.99996879441056396587E+00
    0.99997528452153128242E+00
    0.99999650996084299415E+00
    0.99999815695828775386E+00
    0.10000019719621346947E+01
    0.10000106945347309040E+01
    0.99999168724204823278E+00
    0.99999927006914679506E+00
    0.10000078950762738561E+01
    0.99998854844725171276E+00
    0.99999863377461084557E+00
    0.10000105980438311892E+01
    0.99999466325139563239E+00
    0.99999916254858833842E+00
    0.10000087376272648321E+01
    0.99999329291274396958E+00
    0.99999864933060711447E+00
    0.99999967206322259994E+00
    0.10000027609134469753E+01
    0.10000108764934763084E+01
    0.99999072371247477165E+00
    0.99999811945287409021E+00
    0.10000077743576700762E+01
    0.99998699058486861801E+00
    0.99999875394342896406E+00
    0.10000109515553456951E+01
    0.99999552582270356815E+00
    0.10000004025483322234E+01
    0.10000096230257071728E+01
    0.99999455047038066091E+00
    0.99999902608450641495E+00
    0.99999984991713541937E+00
    0.99997562998142885959E+00
    0.99991267535774930320E+00
    0.99958799424513633536E+00
    0.99872472700592185291E+00
    0.99960204786305939528E+00
    0.99879038852561896622E+00
    0.99981249656572890316E+00
    0.99996602328693684480E+00
    0.99998868078243685620E+00
    0.99999690928570661441E+00
    0.99999781549986044293E+00
    0.99998789744865346218E+00