# vtk DataFile Version 3.0
LAPLACIEN  2D
ASCII
DATASET UNSTRUCTURED_GRID
 POINTS        1857  float
   3.1250000000000000E-002  0.93750000000000000        0.0000000000000000     
   6.2500000000000000E-002  0.93750000000000000        0.0000000000000000     
   6.2500000000000000E-002  0.96875000000000000        0.0000000000000000     
   1.8749999999999999E-002  0.95625000000000004        0.0000000000000000     
   4.0625000000000001E-002  0.95937499999999998        0.0000000000000000     
   4.3749999999999997E-002  0.98124999999999996        0.0000000000000000     
   2.1874999999999999E-002  0.97812500000000002        0.0000000000000000     
   9.3750000000000000E-002  0.93750000000000000        0.0000000000000000     
  0.12500000000000000       0.93750000000000000        0.0000000000000000     
  0.12500000000000000       0.96875000000000000        0.0000000000000000     
   8.1250000000000003E-002  0.95625000000000004        0.0000000000000000     
  0.10312499999999999       0.95937499999999998        0.0000000000000000     
  0.10625000000000000       0.98124999999999996        0.0000000000000000     
   8.4375000000000006E-002  0.97812500000000002        0.0000000000000000     
   3.1250000000000000E-002  0.87500000000000000        0.0000000000000000     
   6.2500000000000000E-002  0.87500000000000000        0.0000000000000000     
   6.2500000000000000E-002  0.90625000000000000        0.0000000000000000     
   1.8749999999999999E-002  0.89375000000000004        0.0000000000000000     
   4.0625000000000001E-002  0.89687499999999998        0.0000000000000000     
   4.3749999999999997E-002  0.91874999999999996        0.0000000000000000     
   2.1874999999999999E-002  0.91562500000000002        0.0000000000000000     
   9.3750000000000000E-002  0.87500000000000000        0.0000000000000000     
  0.12500000000000000       0.87500000000000000        0.0000000000000000     
  0.12500000000000000       0.90625000000000000        0.0000000000000000     
   8.1250000000000003E-002  0.89375000000000004        0.0000000000000000     
  0.10312499999999999       0.89687499999999998        0.0000000000000000     
  0.10625000000000000       0.91874999999999996        0.0000000000000000     
   8.4375000000000006E-002  0.91562500000000002        0.0000000000000000     
  0.15625000000000000       0.93750000000000000        0.0000000000000000     
  0.18750000000000000       0.93750000000000000        0.0000000000000000     
  0.18750000000000000       0.96875000000000000        0.0000000000000000     
  0.14374999999999999       0.95625000000000004        0.0000000000000000     
  0.16562499999999999       0.95937499999999998        0.0000000000000000     
  0.16875000000000001       0.98124999999999996        0.0000000000000000     
  0.14687500000000001       0.97812500000000002        0.0000000000000000     
  0.21875000000000000       0.93750000000000000        0.0000000000000000     
  0.25000000000000000       0.93750000000000000        0.0000000000000000     
  0.25000000000000000       0.96875000000000000        0.0000000000000000     
  0.20624999999999999       0.95625000000000004        0.0000000000000000     
  0.22812499999999999       0.95937499999999998        0.0000000000000000     
  0.23125000000000001       0.98124999999999996        0.0000000000000000     
  0.20937500000000001       0.97812500000000002        0.0000000000000000     
  0.15625000000000000       0.87500000000000000        0.0000000000000000     
  0.18750000000000000       0.87500000000000000        0.0000000000000000     
  0.18750000000000000       0.90625000000000000        0.0000000000000000     
  0.14374999999999999       0.89375000000000004        0.0000000000000000     
  0.16562499999999999       0.89687499999999998        0.0000000000000000     
  0.16875000000000001       0.91874999999999996        0.0000000000000000     
  0.14687500000000001       0.91562500000000002        0.0000000000000000     
  0.21875000000000000       0.87500000000000000        0.0000000000000000     
  0.25000000000000000       0.87500000000000000        0.0000000000000000     
  0.25000000000000000       0.90625000000000000        0.0000000000000000     
  0.20624999999999999       0.89375000000000004        0.0000000000000000     
  0.22812499999999999       0.89687499999999998        0.0000000000000000     
  0.23125000000000001       0.91874999999999996        0.0000000000000000     
  0.20937500000000001       0.91562500000000002        0.0000000000000000     
   3.1250000000000000E-002  0.81250000000000000        0.0000000000000000     
   6.2500000000000000E-002  0.81250000000000000        0.0000000000000000     
   6.2500000000000000E-002  0.84375000000000000        0.0000000000000000     
   1.8749999999999999E-002  0.83125000000000004        0.0000000000000000     
   4.0625000000000001E-002  0.83437499999999998        0.0000000000000000     
   4.3749999999999997E-002  0.85624999999999996        0.0000000000000000     
   2.1874999999999999E-002  0.85312500000000002        0.0000000000000000     
   9.3750000000000000E-002  0.81250000000000000        0.0000000000000000     
  0.12500000000000000       0.81250000000000000        0.0000000000000000     
  0.12500000000000000       0.84375000000000000        0.0000000000000000     
   8.1250000000000003E-002  0.83125000000000004        0.0000000000000000     
  0.10312499999999999       0.83437499999999998        0.0000000000000000     
  0.10625000000000000       0.85624999999999996        0.0000000000000000     
   8.4375000000000006E-002  0.85312500000000002        0.0000000000000000     
   3.1250000000000000E-002  0.75000000000000000        0.0000000000000000     
   6.2500000000000000E-002  0.75000000000000000        0.0000000000000000     
   6.2500000000000000E-002  0.78125000000000000        0.0000000000000000     
   1.8749999999999999E-002  0.76875000000000004        0.0000000000000000     
   4.0625000000000001E-002  0.77187499999999998        0.0000000000000000     
   4.3749999999999997E-002  0.79374999999999996        0.0000000000000000     
   2.1874999999999999E-002  0.79062500000000002        0.0000000000000000     
   9.3750000000000000E-002  0.75000000000000000        0.0000000000000000     
  0.12500000000000000       0.75000000000000000        0.0000000000000000     
  0.12500000000000000       0.78125000000000000        0.0000000000000000     
   8.1250000000000003E-002  0.76875000000000004        0.0000000000000000     
  0.10312499999999999       0.77187499999999998        0.0000000000000000     
  0.10625000000000000       0.79374999999999996        0.0000000000000000     
   8.4375000000000006E-002  0.79062500000000002        0.0000000000000000     
  0.15625000000000000       0.81250000000000000        0.0000000000000000     
  0.18750000000000000       0.81250000000000000        0.0000000000000000     
  0.18750000000000000       0.84375000000000000        0.0000000000000000     
  0.14374999999999999       0.83125000000000004        0.0000000000000000     
  0.16562499999999999       0.83437499999999998        0.0000000000000000     
  0.16875000000000001       0.85624999999999996        0.0000000000000000     
  0.14687500000000001       0.85312500000000002        0.0000000000000000     
  0.21875000000000000       0.81250000000000000        0.0000000000000000     
  0.25000000000000000       0.81250000000000000        0.0000000000000000     
  0.25000000000000000       0.84375000000000000        0.0000000000000000     
  0.20624999999999999       0.83125000000000004        0.0000000000000000     
  0.22812499999999999       0.83437499999999998        0.0000000000000000     
  0.23125000000000001       0.85624999999999996        0.0000000000000000     
  0.20937500000000001       0.85312500000000002        0.0000000000000000     
  0.15625000000000000       0.75000000000000000        0.0000000000000000     
  0.18750000000000000       0.75000000000000000        0.0000000000000000     
  0.18750000000000000       0.78125000000000000        0.0000000000000000     
  0.14374999999999999       0.76875000000000004        0.0000000000000000     
  0.16562499999999999       0.77187499999999998        0.0000000000000000     
  0.16875000000000001       0.79374999999999996        0.0000000000000000     
  0.14687500000000001       0.79062500000000002        0.0000000000000000     
  0.21875000000000000       0.75000000000000000        0.0000000000000000     
  0.25000000000000000       0.75000000000000000        0.0000000000000000     
  0.25000000000000000       0.78125000000000000        0.0000000000000000     
  0.20624999999999999       0.76875000000000004        0.0000000000000000     
  0.22812499999999999       0.77187499999999998        0.0000000000000000     
  0.23125000000000001       0.79374999999999996        0.0000000000000000     
  0.20937500000000001       0.79062500000000002        0.0000000000000000     
  0.28125000000000000       0.93750000000000000        0.0000000000000000     
  0.31250000000000000       0.93750000000000000        0.0000000000000000     
  0.31250000000000000       0.96875000000000000        0.0000000000000000     
  0.26874999999999999       0.95625000000000004        0.0000000000000000     
  0.29062500000000002       0.95937499999999998        0.0000000000000000     
  0.29375000000000001       0.98124999999999996        0.0000000000000000     
  0.27187499999999998       0.97812500000000002        0.0000000000000000     
  0.34375000000000000       0.93750000000000000        0.0000000000000000     
  0.37500000000000000       0.93750000000000000        0.0000000000000000     
  0.37500000000000000       0.96875000000000000        0.0000000000000000     
  0.33124999999999999       0.95625000000000004        0.0000000000000000     
  0.35312500000000002       0.95937499999999998        0.0000000000000000     
  0.35625000000000001       0.98124999999999996        0.0000000000000000     
[...]
 CELL_DATA        3584
 SCALARS Cells_density float
 LOOKUP_TABLE default
    0.99992832530804942603E+00
    0.99996607364015577257E+00
    0.99996163221262313048E+00
    0.99997094929739671620E+00
    0.99996734955363530961E+00
    0.99991990011192755095E+00
    0.99994702689055858791E+00
    0.99993904013074652593E+00
    0.99994642231897590268E+00
    0.99995042398880740198E+00
    0.99994280062208173998E+00
    0.99995086022760881761E+00
    0.99995672162002979810E+00
    0.99995704277088526268E+00
    0.99998439238942316010E+00
    0.99998906342168880634E+00
    0.99997219355360278392E+00
    0.99997631090870608972E+00
    0.99997213985330657415E+00
    0.99992189557720467796E+00
    0.99994850907902055326E+00
    0.99994113383929694727E+00
    0.99994742138831083089E+00
    0.99992834679900155503E+00
    0.99997105600517666169E+00
    0.99996959459420931005E+00
    0.99996774488961104321E+00
    0.99996634431809627852E+00
    0.99992987411163480882E+00
    0.99997055939845003181E+00
    0.99996652226526083762E+00
    0.99998109856385875016E+00
    0.99998729154678112074E+00
    0.99996986490552808302E+00
    0.99996920380273557338E+00
    0.99996724428234962101E+00
    0.99991770601942009389E+00
    0.99994409396082417629E+00
    0.99994117388513603650E+00
    0.99995083127098538522E+00
    0.99996567583006967794E+00
    0.99996893040681700260E+00
    0.99998933333771922172E+00
    0.99999777623379704217E+00
    0.99997810162200739814E+00
    0.99998615028861925769E+00
    0.99999550120159186317E+00
    0.99997482029366135947E+00
    0.99998081981988728995E+00
    0.99999560409983390130E+00
    0.99997919611654928485E+00
    0.99998585852574317645E+00
    0.10000003138063791042E+01
    0.99998133154952462132E+00
    0.99998658292440245621E+00
    0.99998670257195099165E+00
    0.99998630733255100544E+00
    0.99999041450353032268E+00
    0.99997302100123541813E+00
    0.99997696241675115836E+00
    0.99997296132725244089E+00
    0.99992250817194183732E+00
    0.99994935315932786946E+00
    0.99994233927062892153E+00
    0.99994897633304091755E+00
    0.99993011163257206064E+00
    0.99997311248642783976E+00
    0.99997306863141199873E+00
    0.99996916067559571406E+00
    0.99996756176970036378E+00
    0.99998632552284327790E+00
    0.99999042808571603214E+00
    0.99997265842828242377E+00
    0.99997641808365334004E+00
    0.99997292659266956427E+00
    0.99992251768182327520E+00
    0.99994945367246756973E+00
    0.99994253292737256267E+00
    0.99994931921064178493E+00
    0.99993057158129061701E+00
    0.99997346522128560675E+00
    0.99997352292585472977E+00
    0.99996932776158609091E+00
    0.99996769908100424651E+00
    0.99998816310830584975E+00
    0.99999764743320718186E+00
    0.99997782469726415044E+00
    0.99998560901100430609E+00
    0.99999563389088286236E+00
    0.99997438470621191620E+00
    0.99998148874445191847E+00
    0.99999659303708576807E+00
    0.99998084949071142091E+00
    0.99998782210961267847E+00
    0.10000002130399656686E+01
    0.99998188430350876121E+00
    0.99998691894338265218E+00
    0.99998720772848370686E+00
    0.99998730711642591640E+00
    0.99999814207703052737E+00
    0.99997333200682636534E+00
    0.99998462504823504293E+00
    0.99999558258910770103E+00
    0.99997270782862957006E+00
    0.99998089701569448096E+00
    0.99999585351095032770E+00
    0.99998038237824804497E+00
    0.99998599003478916281E+00
    0.99999675075941896196E+00
    0.99998051443102731195E+00
    0.99998497774072292454E+00
    0.99998568191424697105E+00
    0.99993044234992212171E+00
    0.99997120092091029697E+00
    0.99996656237272285583E+00
    0.99997994032835846312E+00
    0.99998763772040100140E+00
    0.99996995858386061862E+00
    0.99997204157423869031E+00
    0.99996904057627344908E+00
    0.99991925609575482703E+00
    0.99994556076631191388E+00
    0.99994231575639314080E+00
    0.99995164169858918868E+00
    0.99996673853249473662E+00
    0.99997006183399428370E+00
    0.99998623096662231369E+00
    0.99999710744953762553E+00
    0.99997764154595369934E+00
    0.99998598083411571746E+00
    0.99999636844165673555E+00
    0.99997575275907879533E+00
    0.99998442850008617544E+00
    0.99999773077384257469E+00
    0.99998112513811798774E+00
    0.99998414914507482987E+00
    0.99999617968459519890E+00
    0.99997787176825769784E+00
    0.99998711966606568247E+00
    0.99998830014427264601E+00
    0.99993045113652845313E+00
    0.99997118782488281230E+00
    0.99996630800692032359E+00
    0.99997961324622686163E+00
    0.99998762772954985500E+00
    0.99996990979301569880E+00
    0.99997223745439667297E+00
    0.99996933027122958393E+00
    0.99991968671077879893E+00
    0.99994588627465730291E+00
    0.99994249828986569995E+00
    0.99995173553788607723E+00
    0.99996686441446847038E+00
    0.99997020749298004549E+00
    0.99998508347142278652E+00
    0.99999795847269012938E+00
    0.99997371664219358856E+00
    0.99998184141814749903E+00
    0.99999568696913998522E+00
    0.99997337629916216439E+00
    0.99998455355188731186E+00
    0.99999667198338426655E+00
    0.99997966937346183247E+00
    0.99998372823752978977E+00
    0.99999545278858470443E+00
    0.99997720592734917755E+00
    0.99998526883566940526E+00
    0.99998629803980254582E+00
    0.99998710077854191525E+00
    0.99999729939792481037E+00
    0.99996778412359033084E+00
    0.99997749753975240239E+00
    0.99999419281937262927E+00
    0.99997313238492191445E+00
    0.99998478051184780391E+00
    0.99999780569837593003E+00
    0.99998156846861929736E+00
    0.99998703500320773596E+00
    0.99999776943994866940E+00
    0.99998086707051181410E+00
    0.99998547707743656865E+00
    0.99998628112627130360E+00
    0.99992532299059988521E+00
    0.99992447169625986447E+00
    0.99980787490129852113E+00
    0.99983570815800304477E+00
    0.99993185636281400885E+00
    0.99993180815634619130E+00
    0.99996998072090992338E+00
    0.99998637942098322906E+00
    0.99997814387877814735E+00
    0.99998124715952285690E+00
    0.99998794965280712876E+00
    0.99996455842920917156E+00
    0.99995579535077749878E+00
    0.99995788923748607502E+00
    0.99994826302882433566E+00
    0.99993541701921073717E+00
    0.99982192283080573159E+00
    0.99981434220429732385E+00
    0.99991903759462696932E+00
    0.99990921597645232577E+00
    0.99996460787135099668E+00
    0.99998670752596152678E+00
    0.99997801589708357195E+00
    0.99998143915860060460E+00
    0.99998639649394072126E+00
    0.99996906577239297320E+00
    0.99995638548676091251E+00
    0.99995512216489135238E+00
    0.99931240483961925047E+00
    0.99909598660313159169E+00
    0.99802605952107692477E+00
    0.99803642203706588454E+00
    0.99909047676734041854E+00
    0.99929346806626639932E+00
    0.99970815491866271696E+00
    0.99975391025593618455E+00
    0.99988504964128188668E+00
    0.99988706240198932385E+00
    0.99975578231375594740E+00
    0.99970872333006355337E+00
    0.99951384030177070628E+00
    0.99951391419466151245E+00
    0.99998366658525239536E+00
    0.99998911460949369001E+00
    0.99997063063868474320E+00
    0.99997451110557511456E+00
    0.99997192780120258693E+00
    0.99992211835937627740E+00
    0.99994904639393977774E+00
    0.99994052377554665245E+00
    0.99994906288514107118E+00
    0.99993050578965636532E+00
    0.99997300631751540045E+00
    0.99997172295791059149E+00
    0.99996826153589213337E+00
    0.99996572029479702248E+00
    0.99998124360748064099E+00
    0.99998872544135553042E+00
    0.99996781593388206488E+00
    0.99997384459948768232E+00
    0.99997085060446400107E+00
    0.99992107569751453866E+00
    0.99994806652473033903E+00
    0.99993830931616667357E+00
    0.99994832417134271729E+00
    0.99992997742449485354E+00
    0.99997153078031486562E+00
    0.99996923866302400707E+00
    0.99996600692934223265E+00
    0.99996311223006884017E+00
    0.99996159995283984134E+00
    0.99997588915629942452E+00
    0.99992203853909145117E+00
    0.99994880239208405737E+00
    0.99998068172232557060E+00
    0.99996550506205272857E+00
    0.99997883704671630678E+00
    0.99999499181798201519E+00
    0.99997811649622736496E+00
    0.99998358840650225510E+00
    0.99999688038127498846E+00
    0.99997599754406973904E+00
    0.99997819569203028056E+00
    0.99998005490016406149E+00
    0.99983895333949390771E+00
    0.99988018499514419446E+00
    0.99974584184720149960E+00
    0.99983043986404041004E+00
    0.99992890284507518484E+00
    0.99994021288710077666E+00
    0.99996832302046334551E+00
    0.99998092829396367787E+00
    0.99997269513590381074E+00
    0.99997346311141732667E+00
    0.99997098995993816128E+00
    0.99992854898826000198E+00
    0.99993734039261827906E+00
    0.99994678966277528165E+00
    0.99997318015997194163E+00
    0.99998607801231165215E+00
    0.99995887170509645259E+00
    0.99996980981990646331E+00
    0.99996936292583293859E+00
    0.99991977130964038167E+00
    0.99994683136672091184E+00
    0.99993633155060712703E+00
    0.99994722025181803637E+00
    0.99992882816254280431E+00
    0.99996965215375388514E+00
    0.99996679866763660272E+00
    0.99996327672950380272E+00
    0.99996065659081523336E+00
    0.99996086592271482552E+00
    0.99998045535773039116E+00
    0.99995111222079080537E+00
    0.99996510926055826030E+00
    0.99996776463454351003E+00
    0.99991905571584294155E+00
    0.99994602797096532321E+00
    0.99993497276966858411E+00
    0.99994614642293377926E+00
    0.99992757453714120608E+00
    0.99996896093415765794E+00
    0.99996282629793176167E+00
    0.99996079775293744696E+00
    0.99995874084707581098E+00
    0.99953890523459876238E+00
    0.99967704514010558015E+00
    0.99943371271028302871E+00
    0.99964001789146528232E+00
    0.99984001243930609171E+00
    0.99990076846048359105E+00
    0.99994938605488792316E+00
    0.99994919974926443906E+00
    0.99995552461078940354E+00
    0.99994525425715685696E+00
    0.99989794975748835792E+00
    0.99979168299477183535E+00
    0.99984515926026829025E+00
    0.99987615475852575919E+00
    0.99917159746414596633E+00
    0.99947546550603139082E+00
    0.99919712975780650144E+00
    0.99951933721512820075E+00
    0.99977694219383472785E+00
    0.99987779224227257835E+00
    0.99993499610858582738E+00
    0.99991823577889249464E+00
    0.99993367573323654884E+00
    0.99990614275170319747E+00
    0.99980449796510295624E+00
    0.99959912563685293652E+00
    0.99975020576584505694E+00
    0.99980920427041797272E+00
    0.99942306206658459988E+00
    0.99942175440045089019E+00
    0.99883258578330558208E+00
    0.99905430562148123119E+00
    0.99957344499635536472E+00
    0.99971776465662465228E+00
    0.99987884834862128525E+00
    0.99988176295958708373E+00
    0.99993336617601691341E+00
    0.99992587880357486352E+00
    0.99984294648059368615E+00
    0.99975907132574115543E+00
    0.99971333135562778782E+00
    0.99974096133495227168E+00
    0.99721812988584179749E+00
    0.99754619440142489051E+00
    0.99561673134832873178E+00
    0.99670798543578076334E+00
    0.99844566633375986253E+00
    0.99910357608514821504E+00
    0.99958450706019430498E+00
    0.99949525190482346737E+00
    0.99973718744891015842E+00
    0.99966493459800087606E+00
    0.99919821930472763061E+00
    0.99875979097038714016E+00
    0.99878573309777995970E+00
    0.99895443445005793759E+00
    0.99276793643302208014E+00
    0.99190270280951775561E+00
    0.98256145607532041630E+00
    0.98615786958321682842E+00
    0.99374326130381840372E+00
    0.99593257091604436848E+00
    0.99817646513724822555E+00
    0.99812515218456154820E+00
    0.99914322132062527437E+00
    0.99905727853528569771E+00
    0.99773325711507609981E+00
    0.99707065910473902104E+00
    0.99605176513480586653E+00
    0.99635045339547667620E+00
    0.95584954345076489357E+00
    0.96371686457447403029E+00
    0.93722114090243846540E+00
    0.95361591516839538940E+00
    0.97716936740073256917E+00
    0.98617972499158390587E+00
    0.99318144592429857820E+00
    0.99193721410637503144E+00
    0.99586298130061712275E+00
    0.99492499082603902405E+00
    0.98789406887184416650E+00
    0.98145664992838799190E+00
    0.98202460441452399387E+00
    0.98443452910046602700E+00
    0.99183791918419417222E+00
    0.99362979013702579234E+00
    0.98986994590716526066E+00
    0.99291482792001506397E+00
    0.99651527244078619283E+00
    0.99815504380362085612E+00
    0.99907086920653620510E+00
    0.99870823564247879212E+00
    0.99926635876100600164E+00
    0.99898121903874226302E+00
    0.99760844988195751526E+00
    0.99606123034820148732E+00
    0.99681043432971094820E+00
    0.99737339524394008627E+00
    0.98517356805662370522E+00
    0.98970516163384525399E+00
    0.98546745963610715702E+00
    0.99051437559872446137E+00
    0.99514070253355202400E+00
    0.99761357607321943242E+00
    0.99868803994635646504E+00
    0.99794601590919596035E+00
    0.99868915817631154219E+00
    0.99803819831035278654E+00
    0.99558322754081363115E+00
    0.99222286032498341335E+00
    0.99477004421505843546E+00
    0.99587449005441530669E+00
    0.89690802098610344917E+00
    0.91797603182088227669E+00
    0.87918591349751484820E+00
    0.90882608178331081294E+00
    0.95072816782633318144E+00
    0.97128231333229886335E+00
    0.98440078934343600015E+00
    0.97945535344886924811E+00
    0.98792344559328881815E+00
    0.98412274017634993051E+00
    0.96551329964649579285E+00
    0.94626552348066295117E+00
    0.95502391831472588368E+00
    0.96180979674154010173E+00
    0.83859050023125447648E+00
    0.87734456305243779806E+00
    0.83978718037643862449E+00
    0.88240125410301450959E+00
    0.93239511908336003554E+00
    0.96267124460017405863E+00
    0.97778134612010803028E+00
    0.96739090646032266374E+00
    0.97811072490341666175E+00
    0.96929963835441490527E+00
    0.93854662707398928134E+00
    0.90186819593236733361E+00
    0.92845743434253658055E+00
    0.94098991467288894963E+00
    0.99993008854055998036E+00
    0.99997041588939628021E+00
    0.99996486474877399608E+00
    0.99997897122785972535E+00
    0.99998702949186091260E+00
    0.99996861295891770194E+00
    0.99997180904698779180E+00
    0.99996907246317856544E+00
    0.99991963983935483462E+00
    0.99994574341841291343E+00
    0.99994150231964618047E+00
    0.99995145541120600274E+00
    0.99996576813134063766E+00
    0.99996947729084284529E+00
    0.99997927549867926533E+00
    0.99998362649889638298E+00
    0.99993574361785575455E+00
    0.99992854671494646457E+00
    0.99997007838442364402E+00
    0.99994603946583637821E+00
    0.99997675929748397472E+00
    0.99999584695241472421E+00
    0.99997782865972362210E+00
    0.99998170132619024209E+00
    0.99999419174688031209E+00
    0.99997512991219184020E+00
    0.99997858358802937939E+00
    0.99997788315159052974E+00
    0.99992907890771265400E+00
    0.99996911648118158578E+00
    0.99996199486997749961E+00
    0.99997552110166820771E+00
    0.99998560325745944333E+00
    0.99996528825869546164E+00
    0.99997096475823343820E+00
    0.99996791266507267792E+00
    0.99991916324427265739E+00
    0.99994504658067784320E+00
    0.99993925173702813414E+00
    0.99995052222243507867E+00
    0.99996314206434810945E+00
    0.99996734540222464993E+00
    0.99995524387108214448E+00
    0.99993185830318831453E+00
    0.99981649053788301806E+00
    0.99975189694138011376E+00
    0.99987694953341954562E+00
    0.99982574638048282711E+00
    0.99992715555504563252E+00
    0.99996856597684702361E+00
    0.99997156522636121423E+00
    0.99997648570341290952E+00
    0.99998013603040880604E+00
    0.99996620641726263745E+00
    0.99994484776658154601E+00
    0.99993645144060039343E+00
    0.99973567652969941300E+00
    0.99957700274454519551E+00
    0.99903936988680008824E+00
    0.99883763849135420720E+00
    0.99941521178376113710E+00
    0.99940737125256973172E+00
    0.99975643208564368702E+00
    0.99984058628461858209E+00
    0.99992699663627382378E+00
    0.99993882227702646226E+00
    0.99988186426862202261E+00
    0.99987789712827390698E+00
    0.99973890584399627279E+00
    0.99971165939464079475E+00
    0.99595179873070227572E+00
    0.99374711445581931368E+00
    0.98614263734459095545E+00
    0.98256649114922933741E+00
    0.99189505555552726079E+00
    0.99274978625954313216E+00
    0.99706824823819895087E+00
    0.99773118383679870735E+00
    0.99906058132583974718E+00
    0.99914939138722702605E+00
    0.99812544166311356619E+00
    0.99817523749225778307E+00
    0.99634819040937527834E+00
    0.99604962273355512892E+00
    0.99912212834204250367E+00
    0.99844934438445964719E+00
    0.99669280035465346312E+00
    0.99562197060889467970E+00
    0.99754263680700749894E+00
    0.99720506819895637918E+00
    0.99875658461750138617E+00
    0.99919605670201006031E+00
    0.99966770957052786262E+00
    0.99974396409823573784E+00
    0.99949570168150603244E+00
    0.99958348373397798436E+00
    0.99895256057699466368E+00
    0.99878455664772336497E+00
    0.98619910796594256741E+00
    0.97717346617221334526E+00
    0.95360111975030847908E+00
    0.93722540209514504372E+00
    0.96371318968550634398E+00
    0.95583705725040490897E+00
    0.98145288763215110528E+00
    0.98789224583104207067E+00
    0.99492934980385716592E+00
    0.99587064863216812061E+00
    0.99193812198159403426E+00
    0.99318041565110337654E+00
    0.98443283731100927891E+00
    0.98202345368733989783E+00
    0.99992782629524190607E+00
    0.99996852572189443009E+00
    0.99995788266956175949E+00
    0.99996574289177275752E+00
    0.99998277679194846890E+00
    0.99995810632030568410E+00
    0.99996805688346013241E+00
    0.99996664479554020488E+00
    0.99991810127255253970E+00
    0.99994397817616420543E+00
    0.99993728717789609473E+00
    0.99994931837345568670E+00
    0.99996013803202421499E+00
    0.99996399618449782754E+00
    0.99991600948501557777E+00
    0.99984288730434489612E+00
    0.99962583724948794739E+00
    0.99943966815918039437E+00
    0.99967395848223605803E+00
    0.99952601115502426321E+00
    0.99978943999300895484E+00
    0.99989531751882920751E+00
    0.99994499299810235549E+00
    0.99995999322578821289E+00
    0.99994853345978018666E+00
    0.99994739030881385489E+00
    0.99987401395118502556E+00
    0.99984403111144470877E+00
    0.99992713053434756354E+00
    0.99996713236565393235E+00
    0.99995459180508539099E+00
    0.99995785984628382526E+00
    0.99997780865757623925E+00
    0.99994658551720383421E+00
    0.99996329873345513040E+00
    0.99996485763847764439E+00
    0.99991685923985973439E+00
    0.99994292131825790459E+00
    0.99993588081260664779E+00
    0.99994852283154567196E+00
    0.99995786077049775287E+00
    0.99996120137978750098E+00
    0.99988865378910607440E+00
    0.99977976097918397347E+00
    0.99950639158522047722E+00
    0.99920265457011858690E+00
    0.99947245898753767079E+00
    0.99915882944030742774E+00
    0.99959667298757937104E+00
    0.99980181461828332434E+00
    0.99990618747034631930E+00
    0.99993854923486180653E+00
    0.99991763698011670858E+00
    0.99993247647642913289E+00
    0.99980712395999271624E+00
    0.99974910093592728177E+00
    0.99817377273057150688E+00
    0.99651900750818922514E+00
    0.99289961697113493511E+00
    0.98987508458991735338E+00
    0.99362634889841361385E+00
    0.99182514070550664709E+00
    0.99605774784480904938E+00
    0.99760642717121184031E+00
    0.99898476846022687958E+00
    0.99927374539268465359E+00
    0.99870892699145386029E+00
    0.99906987032628635781E+00
    0.99737159235046290995E+00
    0.99680931592820820608E+00
    0.97130141103722478224E+00
    0.95073259956021538564E+00
    0.90881227584326862434E+00
    0.87918922369062346700E+00
    0.91797266410361766376E+00
    0.89689644490315778569E+00
    0.94626177910776976265E+00
    0.96551180841851080849E+00
    0.98412757332273126387E+00
    0.98793136248978452585E+00
    0.97945653808615384950E+00
    0.98439984222608023501E+00