# vtk DataFile Version 3.0
LAPLACIEN  2D
ASCII
DATASET UNSTRUCTURED_GRID
 POINTS        1857  float
   3.1250000000000000E-002  0.93750000000000000        0.0000000000000000     
   6.2500000000000000E-002  0.93750000000000000        0.0000000000000000     
   6.2500000000000000E-002  0.96875000000000000        0.0000000000000000     
   1.8749999999999999E-002  0.95625000000000004        0.0000000000000000     
   4.0625000000000001E-002  0.95937499999999998        0.0000000000000000     
   4.3749999999999997E-002  0.98124999999999996        0.0000000000000000     
   2.1874999999999999E-002  0.97812500000000002        0.0000000000000000     
   9.3750000000000000E-002  0.93750000000000000        0.0000000000000000     
  0.12500000000000000       0.93750000000000000        0.0000000000000000     
  0.12500000000000000       0.96875000000000000        0.0000000000000000     
   8.1250000000000003E-002  0.95625000000000004        0.0000000000000000     
  0.10312499999999999       0.95937499999999998        0.0000000000000000     
  0.10625000000000000       0.98124999999999996        0.0000000000000000     
   8.4375000000000006E-002  0.97812500000000002        0.0000000000000000     
   3.1250000000000000E-002  0.87500000000000000        0.0000000000000000     
   6.2500000000000000E-002  0.87500000000000000        0.0000000000000000     
   6.2500000000000000E-002  0.90625000000000000        0.0000000000000000     
   1.8749999999999999E-002  0.89375000000000004        0.0000000000000000     
   4.0625000000000001E-002  0.89687499999999998        0.0000000000000000     
   4.3749999999999997E-002  0.91874999999999996        0.0000000000000000     
   2.1874999999999999E-002  0.91562500000000002        0.0000000000000000     
   9.3750000000000000E-002  0.87500000000000000        0.0000000000000000     
  0.12500000000000000       0.87500000000000000        0.0000000000000000     
  0.12500000000000000       0.90625000000000000        0.0000000000000000     
   8.1250000000000003E-002  0.89375000000000004        0.0000000000000000     
  0.10312499999999999       0.89687499999999998        0.0000000000000000     
  0.10625000000000000       0.91874999999999996        0.0000000000000000     
   8.4375000000000006E-002  0.91562500000000002        0.0000000000000000     
  0.15625000000000000       0.93750000000000000        0.0000000000000000     
  0.18750000000000000       0.93750000000000000        0.0000000000000000     
  0.18750000000000000       0.96875000000000000        0.0000000000000000     
  0.14374999999999999       0.95625000000000004        0.0000000000000000     
  0.16562499999999999       0.95937499999999998        0.0000000000000000     
  0.16875000000000001       0.98124999999999996        0.0000000000000000     
  0.14687500000000001       0.97812500000000002        0.0000000000000000     
  0.21875000000000000       0.93750000000000000        0.0000000000000000     
  0.25000000000000000       0.93750000000000000        0.0000000000000000     
  0.25000000000000000       0.96875000000000000        0.0000000000000000     
  0.20624999999999999       0.95625000000000004        0.0000000000000000     
  0.22812499999999999       0.95937499999999998        0.0000000000000000     
  0.23125000000000001       0.98124999999999996        0.0000000000000000     
  0.20937500000000001       0.97812500000000002        0.0000000000000000     
  0.15625000000000000       0.87500000000000000        0.0000000000000000     
  0.18750000000000000       0.87500000000000000        0.0000000000000000     
  0.18750000000000000       0.90625000000000000        0.0000000000000000     
  0.14374999999999999       0.89375000000000004        0.0000000000000000     
  0.16562499999999999       0.89687499999999998        0.0000000000000000     
  0.16875000000000001       0.91874999999999996        0.0000000000000000     
  0.14687500000000001       0.91562500000000002        0.0000000000000000     
  0.21875000000000000       0.87500000000000000        0.0000000000000000     
  0.25000000000000000       0.87500000000000000        0.0000000000000000     
  0.25000000000000000       0.90625000000000000        0.0000000000000000     
  0.20624999999999999       0.89375000000000004        0.0000000000000000     
  0.22812499999999999       0.89687499999999998        0.0000000000000000     
  0.23125000000000001       0.91874999999999996        0.0000000000000000     
  0.20937500000000001       0.91562500000000002        0.0000000000000000     
   3.1250000000000000E-002  0.81250000000000000        0.0000000000000000     
   6.2500000000000000E-002  0.81250000000000000        0.0000000000000000     
   6.2500000000000000E-002  0.84375000000000000        0.0000000000000000     
   1.8749999999999999E-002  0.83125000000000004        0.0000000000000000     
   4.0625000000000001E-002  0.83437499999999998        0.0000000000000000     
   4.3749999999999997E-002  0.85624999999999996        0.0000000000000000     
   2.1874999999999999E-002  0.85312500000000002        0.0000000000000000     
   9.3750000000000000E-002  0.81250000000000000        0.0000000000000000     
  0.12500000000000000       0.81250000000000000        0.0000000000000000     
  0.12500000000000000       0.84375000000000000        0.0000000000000000     
   8.1250000000000003E-002  0.83125000000000004        0.0000000000000000     
  0.10312499999999999       0.83437499999999998        0.0000000000000000     
  0.10625000000000000       0.85624999999999996        0.0000000000000000     
   8.4375000000000006E-002  0.85312500000000002        0.0000000000000000     
   3.1250000000000000E-002  0.75000000000000000        0.0000000000000000     
   6.2500000000000000E-002  0.75000000000000000        0.0000000000000000     
   6.2500000000000000E-002  0.78125000000000000        0.0000000000000000     
   1.8749999999999999E-002  0.76875000000000004        0.0000000000000000     
   4.0625000000000001E-002  0.77187499999999998        0.0000000000000000     
   4.3749999999999997E-002  0.79374999999999996        0.0000000000000000     
   2.1874999999999999E-002  0.79062500000000002        0.0000000000000000     
   9.3750000000000000E-002  0.75000000000000000        0.0000000000000000     
  0.12500000000000000       0.75000000000000000        0.0000000000000000     
  0.12500000000000000       0.78125000000000000        0.0000000000000000     
   8.1250000000000003E-002  0.76875000000000004        0.0000000000000000     
  0.10312499999999999       0.77187499999999998        0.0000000000000000     
  0.10625000000000000       0.79374999999999996        0.0000000000000000     
   8.4375000000000006E-002  0.79062500000000002        0.0000000000000000     
  0.15625000000000000       0.81250000000000000        0.0000000000000000     
  0.18750000000000000       0.81250000000000000        0.0000000000000000     
  0.18750000000000000       0.84375000000000000        0.0000000000000000     
  0.14374999999999999       0.83125000000000004        0.0000000000000000     
  0.16562499999999999       0.83437499999999998        0.0000000000000000     
  0.16875000000000001       0.85624999999999996        0.0000000000000000     
  0.14687500000000001       0.85312500000000002        0.0000000000000000     
  0.21875000000000000       0.81250000000000000        0.0000000000000000     
  0.25000000000000000       0.81250000000000000        0.0000000000000000     
  0.25000000000000000       0.84375000000000000        0.0000000000000000     
  0.20624999999999999       0.83125000000000004        0.0000000000000000     
  0.22812499999999999       0.83437499999999998        0.0000000000000000     
  0.23125000000000001       0.85624999999999996        0.0000000000000000     
  0.20937500000000001       0.85312500000000002        0.0000000000000000     
  0.15625000000000000       0.75000000000000000        0.0000000000000000     
  0.18750000000000000       0.75000000000000000        0.0000000000000000     
  0.18750000000000000       0.78125000000000000        0.0000000000000000     
  0.14374999999999999       0.76875000000000004        0.0000000000000000     
  0.16562499999999999       0.77187499999999998        0.0000000000000000     
  0.16875000000000001       0.79374999999999996        0.0000000000000000     
  0.14687500000000001       0.79062500000000002        0.0000000000000000     
  0.21875000000000000       0.75000000000000000        0.0000000000000000     
  0.25000000000000000       0.75000000000000000        0.0000000000000000     
  0.25000000000000000       0.78125000000000000        0.0000000000000000     
  0.20624999999999999       0.76875000000000004        0.0000000000000000     
  0.22812499999999999       0.77187499999999998        0.0000000000000000     
  0.23125000000000001       0.79374999999999996        0.0000000000000000     
  0.20937500000000001       0.79062500000000002        0.0000000000000000     
  0.28125000000000000       0.93750000000000000        0.0000000000000000     
  0.31250000000000000       0.93750000000000000        0.0000000000000000     
  0.31250000000000000       0.96875000000000000        0.0000000000000000     
  0.26874999999999999       0.95625000000000004        0.0000000000000000     
  0.29062500000000002       0.95937499999999998        0.0000000000000000     
  0.29375000000000001       0.98124999999999996        0.0000000000000000     
  0.27187499999999998       0.97812500000000002        0.0000000000000000     
  0.34375000000000000       0.93750000000000000        0.0000000000000000     
  0.37500000000000000       0.93750000000000000        0.0000000000000000     
  0.37500000000000000       0.96875000000000000        0.0000000000000000     
  0.33124999999999999       0.95625000000000004        0.0000000000000000     
  0.35312500000000002       0.95937499999999998        0.0000000000000000     
  0.35625000000000001       0.98124999999999996        0.0000000000000000     
[...]
 CELL_DATA        3584
 SCALARS Cells_density float
 LOOKUP_TABLE default
    0.99995263927994348929E+00
    0.99999237067475843510E+00
    0.99998121163160302860E+00
    0.99999017325329564443E+00
    0.99999283334449295957E+00
    0.99994279854854495326E+00
    0.99996851526637864360E+00
    0.99996506608614332823E+00
    0.99996436871421823245E+00
    0.99996787555335664432E+00
    0.99996726701604621290E+00
    0.99997215234405167905E+00
    0.99998649791252569585E+00
    0.99998736317486380809E+00
    0.99999836476578130018E+00
    0.10000054859431399823E+01
    0.99998634713447465128E+00
    0.99999255880213644421E+00
    0.99999331732795770922E+00
    0.99994371131213155568E+00
    0.99996832787913436658E+00
    0.99996144860334335025E+00
    0.99996962930520283397E+00
    0.99995144809036229372E+00
    0.99999255814826903954E+00
    0.99998714087399864781E+00
    0.99998694389304032537E+00
    0.99998625485473058294E+00
    0.99995350060967624906E+00
    0.99999310358086279660E+00
    0.99998347008146437620E+00
    0.99999437594025797349E+00
    0.10000031400441731222E+01
    0.99998307628350402432E+00
    0.99998806329267564408E+00
    0.99998989782074887422E+00
    0.99994112384624833645E+00
    0.99996644696481951087E+00
    0.99996185456677944003E+00
    0.99997142036395614273E+00
    0.99998623779398299050E+00
    0.99998874207249910384E+00
    0.99999907852854275081E+00
    0.10000080969794793440E+01
    0.99998893324585425013E+00
    0.99999701265361284896E+00
    0.10000060202782741214E+01
    0.99998529581127604260E+00
    0.99999394208225766967E+00
    0.10000072581893477697E+01
    0.99999093592853127710E+00
    0.99999731795949731161E+00
    0.10000093475400637644E+01
    0.99999137955599826100E+00
    0.99999457626215126904E+00
    0.99999524863839117650E+00
    0.99999959460038245762E+00
    0.10000062950514574389E+01
    0.99998682268443472854E+00
    0.99999289606452335111E+00
    0.99999374295583598471E+00
    0.99994400858869003645E+00
    0.99996877287882834917E+00
    0.99996215941175503605E+00
    0.99997066938764478383E+00
    0.99995259638370814770E+00
    0.99999379098851137737E+00
    0.99998893130138943874E+00
    0.99998776299484271046E+00
    0.99998694032667267972E+00
    0.99999974231814703352E+00
    0.10000063794588076593E+01
    0.99998686373672263095E+00
    0.99999292272822015715E+00
    0.99999378113433701198E+00
    0.99994403255882802206E+00
    0.99996881450824504078E+00
    0.99996223965982922177E+00
    0.99997081381487451512E+00
    0.99995280573665179524E+00
    0.99999395642253841032E+00
    0.99998917273173060227E+00
    0.99998785407837698092E+00
    0.99998701264580647230E+00
    0.99999948492179258075E+00
    0.10000088165881622082E+01
    0.99998940913639855488E+00
    0.99999735524464028469E+00
    0.10000064609265193472E+01
    0.99998560800350333455E+00
    0.99999442229642543367E+00
    0.10000080327181535278E+01
    0.99999197436227971192E+00
    0.99999736435215480501E+00
    0.10000080517659222235E+01
    0.99999219104200776087E+00
    0.99999510827335813534E+00
    0.99999590095841894843E+00
    0.99999963086604637397E+00
    0.10000088989504223314E+01
    0.99998944519246679707E+00
    0.99999737836067337238E+00
    0.10000064977748255313E+01
    0.99998563126387840505E+00
    0.99999446343456555031E+00
    0.10000081131935487644E+01
    0.99999212171397466875E+00
    0.99999758058421517326E+00
    0.10000082189845493907E+01
    0.99999243475830923433E+00
    0.99999519880113141301E+00
    0.99999597263005612913E+00
    0.99995378756841890588E+00
    0.99999351514548762143E+00
    0.99998377631223889228E+00
    0.99999464561401252283E+00
    0.10000038518037597246E+01
    0.99998377394758952708E+00
    0.99998981090592431453E+00
    0.99999114637033226227E+00
    0.99994226939729358161E+00
    0.99996749117401029228E+00
    0.99996255952026491531E+00
    0.99997185542364852573E+00
    0.99998691291056396313E+00
    0.99998954817020668795E+00
    0.99999845663213471347E+00
    0.10000083946253908174E+01
    0.99998924722837068124E+00
    0.99999745956075125619E+00
    0.10000067893462432078E+01
    0.99998646462904750010E+00
    0.99999581114493962808E+00
    0.10000083436005318127E+01
    0.99999138649552121727E+00
    0.99999649476666563341E+00
    0.10000073263853919148E+01
    0.99999067768260996303E+00
    0.99999490008656399809E+00
    0.99999595322320455892E+00
    0.99995381003000205489E+00
    0.99999355088557839721E+00
    0.99998380099708128466E+00
    0.99999468380277944934E+00
    0.10000039307595607330E+01
    0.99998391166693323395E+00
    0.99999003805710540149E+00
    0.99999130336989427992E+00
    0.99994247000383540414E+00
    0.99996762884817003147E+00
    0.99996263551393838043E+00
    0.99997189465721414425E+00
    0.99998698103101646417E+00
    0.99998963402461971128E+00
    0.99999848016426484687E+00
    0.10000084756023190913E+01
    0.99998927000107362684E+00
    0.99999749402730286896E+00
    0.10000069122005637023E+01
    0.99998660132784322752E+00
    0.99999603882323484516E+00
    0.10000085379706862287E+01
    0.99999145925002375090E+00
    0.99999662533307120960E+00
    0.10000074477921827576E+01
    0.99999071790042892705E+00
    0.99999552022784554683E+00
    0.99999659071465996085E+00
    0.99999977120744310000E+00
    0.10000092299367653315E+01
    0.99998971816853765571E+00
    0.99999779268887145633E+00
    0.10000072357888620811E+01
    0.99998677465572394230E+00
    0.99999629475079343521E+00
    0.10000091556603178944E+01
    0.99999258930922452215E+00
    0.99999833324422593428E+00
    0.10000087590159409956E+01
    0.99999263488152001500E+00
    0.99999578714657477718E+00
    0.99999669751734598933E+00
    0.99999984121496721112E+00
    0.10000092107984630552E+01
    0.99998945139595918352E+00
    0.99999755096935438736E+00
    0.10000071925288458452E+01
    0.99998675742878850858E+00
    0.99999632495225898587E+00
    0.10000092251631502727E+01
    0.99999273300044633217E+00
    0.99999854509809760206E+00
    0.10000089121087647470E+01
    0.99999285852437280742E+00
    0.99999584472865099549E+00
    0.99999673920293852269E+00
    0.99999975157095821743E+00
    0.10000091829827679746E+01
    0.99998947556058914721E+00
    0.99999750645124907411E+00
    0.10000072091776406324E+01
    0.99998683296037260693E+00
    0.99999650061871692142E+00
    0.10000092958150914590E+01
    0.99999278461367124837E+00
    0.99999846547493276283E+00
    0.10000088216336979752E+01
    0.99999266143250165051E+00
    0.99999582250659346805E+00
    0.99999674740097643788E+00
    0.99999884630951552111E+00
    0.10000084561610653733E+01
    0.99997910089264019362E+00
    0.99998858979370564004E+00
    0.10000056788891897863E+01
    0.99998506968575151532E+00
    0.99999642000791899576E+00
    0.10000088275356087131E+01
    0.99999278830646343152E+00
    0.99999853686936790442E+00
    0.10000084260451551632E+01
    0.99999224669345998517E+00
    0.99999464951716954264E+00
    0.99999554566135895328E+00
    0.99999975121363782193E+00
    0.10000063838644279723E+01
    0.99998686516432744309E+00
    0.99999292353894120300E+00
    0.99999378276173145341E+00
    0.99994403349050753338E+00
    0.99996881638098866762E+00
    0.99996224395563604315E+00
    0.99997082282365301609E+00
    0.99995282058460521757E+00
    0.99999396715888255738E+00
    0.99998918999785857409E+00
    0.99998785906981235705E+00
    0.99998701634938136351E+00
    0.99999975006579200354E+00
    0.10000063830877181648E+01
    0.99998686271943615367E+00
    0.99999292244570181509E+00
    0.99999378250277382030E+00
    0.99994403342380078215E+00
    0.99996881639248469398E+00
    0.99996224402876621173E+00
    0.99997082308565710118E+00
    0.99995282108265348686E+00
    0.99999396737835388738E+00
    0.99998919026502552931E+00
    0.99998785897929876043E+00
    0.99998701629730912810E+00
    0.99999961587985108924E+00
    0.10000088817807661901E+01
    0.99998938281534632821E+00
    0.99999734099235748630E+00
    0.10000064885693653594E+01
    0.99998562822774095249E+00
    0.99999446424315907578E+00
    0.10000081160319593820E+01
    0.99999213028246125567E+00
    0.99999759462279691480E+00
    0.10000082266974186229E+01
    0.99999244590967439894E+00
    0.99999519763597899402E+00
    0.99999597164701670149E+00
    0.99999937930255433649E+00
    0.10000087144645155579E+01
    0.99998898455053863987E+00
    0.99999711864819718077E+00
    0.10000064223328795077E+01
    0.99998560654513690693E+00
    0.99999445797465413843E+00
    0.10000081057193368483E+01
    0.99999212732459674680E+00
    0.99999758938921612383E+00
    0.10000082002589447683E+01
    0.99999238440449711440E+00
    0.99999514885525442320E+00
    0.99999593752068827168E+00
    0.99999974416098003083E+00
    0.10000063801175123057E+01
    0.99998685588351932108E+00
    0.99999291976163251494E+00
    0.99999378175358455412E+00
    0.99994403322889402475E+00
    0.99996881631191303352E+00
    0.99996224389429766433E+00
    0.99997082303008855142E+00
    0.99995282098366411461E+00
    0.99999396686691122138E+00
    0.99998918875236164627E+00
    0.99998785820065771990E+00
    0.99998701583265592330E+00
    0.99999973407553610638E+00
    0.10000063762492552577E+01
    0.99998684938882476114E+00
    0.99999291767414510979E+00
    0.99999378112157955023E+00
    0.99994403309117241285E+00
    0.99996881623903466352E+00
    0.99996224372757880339E+00
    0.99997082293023265009E+00
    0.99995282077852243319E+00
    0.99999396596810918858E+00
    0.99998918581666018657E+00
    0.99998785715496474324E+00
    0.99998701527002142875E+00
    0.99999923572665094795E+00
    0.10000081397797155880E+01
    0.99998797680694351264E+00
    0.99999669056836282266E+00
    0.10000062434368031106E+01
    0.99998555513688736074E+00
    0.99999444088489497506E+00
    0.10000080707404364055E+01
    0.99999211399967047331E+00
    0.99999756227409875020E+00
    0.10000080827333406308E+01
    0.99999209047228898584E+00
    0.99999497318964780668E+00
    0.99999582415709609151E+00
    0.99999888500139322289E+00
    0.10000080548886391973E+01
    0.99998733193714106626E+00
    0.99999679056031354207E+00
    0.10000060969094688446E+01
    0.99998551797681034525E+00
    0.99999442490134726746E+00
    0.10000080259785943948E+01
    0.99999209124328136689E+00
    0.99999750843173085268E+00
    0.10000078709593662740E+01
    0.99999153775893989682E+00
    0.99999472861197302720E+00
    0.99999568120287818385E+00
    0.99999932136772917701E+00
    0.10000092517847745111E+01
    0.99998650510593145579E+00
    0.99999707496785894545E+00
    0.10000074434875467766E+01
    0.99998627197084599683E+00
    0.99999617854081179757E+00
    0.10000090529927456728E+01
    0.99999269247973365804E+00
    0.99999849278942287700E+00
    0.10000086346250296465E+01
    0.99999240293106794741E+00
    0.99999527975336166552E+00
    0.99999627607415508823E+00
    0.99998293162372386966E+00
    0.99999792372216955716E+00
    0.99995070832375587688E+00
    0.99997784119177679507E+00
    0.10000014683596269993E+01
    0.99998415312192734383E+00
    0.99999591018565103795E+00
    0.10000089434263481625E+01
    0.99999218923902744027E+00
    0.99999773870587604918E+00
    0.10000084173640382268E+01
    0.99998963141953411959E+00
    0.99999193044545664488E+00
    0.99999404962923432727E+00
    0.99984590845992027397E+00
    0.99982671599527794815E+00
    0.99915484166719481518E+00
    0.99962955286229493446E+00
    0.99991774935752397724E+00
    0.99994814033824375166E+00
    0.99998661745937456047E+00
    0.10000008757473064502E+01
    0.99999055821534177380E+00
    0.99999463779010655529E+00
    0.99999793144839110859E+00
    0.99996727842077437476E+00
    0.99995462029137160975E+00
    0.99996514754772769518E+00
    0.99633457497224542365E+00
    0.99824833756273867458E+00
    0.99513935234599004698E+00
    0.99788989498053382032E+00
    0.99935603723483168448E+00
    0.99971140512623402063E+00
    0.99990592702880343179E+00
    0.99989283510992676973E+00
    0.99995443024501029505E+00
    0.99993889377673761398E+00
    0.99975941805133505813E+00
    0.99929581214709239934E+00
    0.99952513792394115377E+00
    0.99966105760222256915E+00
    0.99988750548219451630E+00
    0.99993853707259283681E+00
    0.99982711560903414494E+00
    0.99991544747619687250E+00
    0.99998000190040547963E+00
    0.99997728191648194151E+00
    0.99999382742683862180E+00
    0.10000060146748359635E+01
    0.99999095290636930145E+00
    0.99999429301464248798E+00
    0.99999880484560765836E+00
    0.99996188900286298029E+00
    0.99997378269993075772E+00
    0.99998174111870241632E+00
    0.99970066737385554489E+00
    0.99984952324360476528E+00
    0.99969638560370421843E+00
    0.99986055444919275104E+00
    0.99995915248787103913E+00
    0.99997172349449225948E+00
    0.99999134370352271706E+00
    0.99999996123906587098E+00
    0.99998813836899391738E+00
    0.99998663635410645067E+00
    0.99997260258410669564E+00
    0.99989284761345553765E+00
    0.99994331556062321376E+00
    0.99996296030724096671E+00
    0.99073876974941610385E+00
    0.99464328745144603428E+00
    0.98871724391406601296E+00
    0.99405521383464956475E+00
    0.99781438703345604058E+00
    0.99909307319902151967E+00
    0.99965346485371653351E+00
    0.99947843290881166478E+00
    0.99977297212559290696E+00
    0.99964660002948768636E+00
    0.99879594407268401657E+00
    0.99730115687243348077E+00
    0.99812265045233083960E+00
    0.99860794238379690935E+00
    0.98130723661286289872E+00
    0.98944613354239474567E+00
    0.98183776167348923991E+00
    0.99075435052326965568E+00
    0.99631591104238226286E+00
    0.99861748178737697046E+00
    0.99939404167295076142E+00
    0.99889010404317557512E+00
    0.99942385358844099130E+00
    0.99899191112411045435E+00
    0.99687987494736240990E+00
    0.99308761044829629849E+00
    0.99597339457041611510E+00
    0.99715082337502991550E+00
    0.99995381087103885065E+00
    0.99999355236525300228E+00
    0.99998380174419376765E+00
    0.99999468506636823850E+00
    0.10000039347458684613E+01
    0.99998391976938161285E+00
    0.99999005397086404567E+00
    0.99999131329247203936E+00
    0.99994248389351969575E+00
    0.99996763722849735245E+00
    0.99996263947357610924E+00
    0.99997189636688643688E+00
    0.99998698441780409230E+00
    0.99998963859323475312E+00
    0.99999847718183032530E+00
    0.10000084687589678722E+01
    0.99998923267603512244E+00
    0.99999743153919817829E+00
    0.10000068970476012620E+01
    0.99998658550533059408E+00
    0.99999604862135560435E+00
    0.10000085471784907476E+01
    0.99999147233298257831E+00
    0.99999663325231691324E+00
    0.10000074527541071845E+01
    0.99999071870542055596E+00
    0.99999553079074421369E+00
    0.99999660095885800626E+00
    0.99995381080080958380E+00
    0.99999355209920515186E+00
    0.99998380064372172082E+00
    0.99999468258683466004E+00
    0.10000039339464130705E+01
    0.99998391855721369126E+00
    0.99999005418300213055E+00
    0.99999131347270986403E+00
    0.99994248433604882020E+00
    0.99996763745768701970E+00
    0.99996263953019981496E+00
    0.99997189637080097224E+00
    0.99998698435109489857E+00
    0.99998963848272548471E+00
    0.99999845508743201439E+00
    0.10000084013142660488E+01
    0.99998900880973851102E+00
    0.99999699839675648683E+00
    0.10000067276601340982E+01
    0.99998634844371203645E+00
    0.99999598683815293931E+00
    0.10000085195186296794E+01
    0.99999146685806550305E+00
    0.99999663006501060547E+00
    0.10000074412603849883E+01
    0.99999071222265334402E+00
    0.99999541624113696958E+00
    0.99999647168116900797E+00
    0.99999924755754576733E+00
    0.10000093343173381832E+01
    0.99998717925450597566E+00
    0.99999546761780766513E+00
    0.10000070972369423661E+01
    0.99998541178306010746E+00
    0.99999637457853207678E+00
    0.10000090207807739162E+01
    0.99999273076848627095E+00
    0.99999842389489079775E+00
    0.10000086476073766217E+01
    0.99999251404536337873E+00
    0.99999533228772363724E+00
    0.99999621267315996764E+00
    0.99996355337597175872E+00
    0.99992147948606602270E+00
    0.99961694263279643469E+00
    0.99916190255599945935E+00
    0.99982191132273945389E+00
    0.99983036844849970670E+00
    0.99996931343552619698E+00
    0.99999773085386811644E+00
    0.99999000830993711730E+00
    0.99999522234545201727E+00
    0.10000004133190505407E+01
    0.99998391455167756625E+00
    0.99996377218317600288E+00
    0.99995450818901154832E+00
    0.99999716906231606028E+00
    0.10000044874592506350E+01
    0.99996643018634734368E+00
    0.99995820662617729280E+00
    0.99999408764583919140E+00
    0.99996838933704224051E+00
    0.99999298804678771191E+00
    0.10000089172473516363E+01
    0.99999202109555551665E+00
    0.99999791558051842610E+00
    0.10000084380505884774E+01
    0.99999151874638803061E+00
    0.99999263058491427714E+00
    0.99999220309145775420E+00
    0.99972805351633264870E+00
    0.99935996267447224639E+00
    0.99787623038750006277E+00
    0.99514552440440018355E+00
    0.99824434791755467522E+00
    0.99632048046285859311E+00
    0.99929554515186769237E+00
    0.99975801993984569904E+00
    0.99993817825471853489E+00
    0.99996015268008586752E+00
    0.99989243172895148071E+00
    0.99990381515370141408E+00
    0.99965940922498963683E+00
    0.99952445913492771190E+00
    0.99995381060574872745E+00
    0.99999355134974066139E+00
    0.99998379795140979187E+00
    0.99999467556395904566E+00
    0.10000039309606192361E+01
    0.99998391244509898801E+00
    0.99999005266093066169E+00
    0.99999131296046472883E+00
    0.99994248423523324210E+00
    0.99996763740007610366E+00
    0.99996263939521135011E+00
    0.99997189629077687378E+00
    0.99998698388618190158E+00
    0.99998963770333038070E+00
    0.99999840133787432084E+00
    0.10000081763859001160E+01
    0.99998848941309814720E+00
    0.99999704642739928317E+00
    0.10000063304556068289E+01
    0.99998529957373927246E+00
    0.99999568029833030280E+00
    0.10000083529159262685E+01
    0.99999143749476027132E+00
    0.99999661452037724718E+00
    0.10000073573759169498E+01
    0.99999069279679286826E+00
    0.99999481678967638842E+00
    0.99999580738795745827E+00
    0.99995381047815867781E+00
    0.99999355072514950482E+00
    0.99998379586998298318E+00
    0.99999466907616529898E+00
    0.10000039270968430483E+01
    0.99998390235954970340E+00
    0.99999004972442673278E+00
    0.99999131206290015061E+00
    0.99994248403159868843E+00
    0.99996763730258908520E+00
    0.99996263923231976101E+00
    0.99997189622306670298E+00
    0.99998698332721569493E+00
    0.99998963666070428413E+00
    0.99999836424490406994E+00
    0.10000080235506714210E+01
    0.99998810273554050720E+00
    0.99999657821655141277E+00
    0.10000060407603841295E+01
    0.99998419708814445528E+00
    0.99999565487471198111E+00
    0.10000081493799557464E+01
    0.99999138352161998089E+00
    0.99999659175687205526E+00
    0.10000073126236108667E+01
    0.99999067682164044513E+00
    0.99999467420511034543E+00
    0.99999557091922131047E+00
    0.99999041489455087195E+00
    0.99998331385702865504E+00
    0.99990352882774125032E+00
    0.99983423710281893459E+00
    0.99993553686711800221E+00
    0.99987391255508040189E+00
    0.99996335433894023570E+00
    0.99999804548725501618E+00
    0.99998990685918653920E+00
    0.99999673561862201243E+00
    0.10000054619381277821E+01
    0.99999017105804255401E+00
    0.99998023700201910113E+00
    0.99997373268682565595E+00
    0.99911017058369189225E+00
    0.99781840286299960940E+00
    0.99404129038940824969E+00
    0.98872326075287908509E+00
    0.99463988642185530153E+00
    0.99072539519232960536E+00
    0.99729997311839335694E+00
    0.99879438913390272692E+00
    0.99964744598815791221E+00
    0.99977950948612459570E+00
    0.99947822166105526609E+00
    0.99965146824663120295E+00