# vtk DataFile Version 3.0
LAPLACIEN  2D
ASCII
DATASET UNSTRUCTURED_GRID
 POINTS        1857  float
   3.1250000000000000E-002  0.93750000000000000        0.0000000000000000     
   6.2500000000000000E-002  0.93750000000000000        0.0000000000000000     
   6.2500000000000000E-002  0.96875000000000000        0.0000000000000000     
   1.8749999999999999E-002  0.95625000000000004        0.0000000000000000     
   4.0625000000000001E-002  0.95937499999999998        0.0000000000000000     
   4.3749999999999997E-002  0.98124999999999996        0.0000000000000000     
   2.1874999999999999E-002  0.97812500000000002        0.0000000000000000     
   9.3750000000000000E-002  0.93750000000000000        0.0000000000000000     
  0.12500000000000000       0.93750000000000000        0.0000000000000000     
  0.12500000000000000       0.96875000000000000        0.0000000000000000     
   8.1250000000000003E-002  0.95625000000000004        0.0000000000000000     
  0.10312499999999999       0.95937499999999998        0.0000000000000000     
  0.10625000000000000       0.98124999999999996        0.0000000000000000     
   8.4375000000000006E-002  0.97812500000000002        0.0000000000000000     
   3.1250000000000000E-002  0.87500000000000000        0.0000000000000000     
   6.2500000000000000E-002  0.87500000000000000        0.0000000000000000     
   6.2500000000000000E-002  0.90625000000000000        0.0000000000000000     
   1.8749999999999999E-002  0.89375000000000004        0.0000000000000000     
   4.0625000000000001E-002  0.89687499999999998        0.0000000000000000     
   4.3749999999999997E-002  0.91874999999999996        0.0000000000000000     
   2.1874999999999999E-002  0.91562500000000002        0.0000000000000000     
   9.3750000000000000E-002  0.87500000000000000        0.0000000000000000     
  0.12500000000000000       0.87500000000000000        0.0000000000000000     
  0.12500000000000000       0.90625000000000000        0.0000000000000000     
   8.1250000000000003E-002  0.89375000000000004        0.0000000000000000     
  0.10312499999999999       0.89687499999999998        0.0000000000000000     
  0.10625000000000000       0.91874999999999996        0.0000000000000000     
   8.4375000000000006E-002  0.91562500000000002        0.0000000000000000     
  0.15625000000000000       0.93750000000000000        0.0000000000000000     
  0.18750000000000000       0.93750000000000000        0.0000000000000000     
  0.18750000000000000       0.96875000000000000        0.0000000000000000     
  0.14374999999999999       0.95625000000000004        0.0000000000000000     
  0.16562499999999999       0.95937499999999998        0.0000000000000000     
  0.16875000000000001       0.98124999999999996        0.0000000000000000     
  0.14687500000000001       0.97812500000000002        0.0000000000000000     
  0.21875000000000000       0.93750000000000000        0.0000000000000000     
  0.25000000000000000       0.93750000000000000        0.0000000000000000     
  0.25000000000000000       0.96875000000000000        0.0000000000000000     
  0.20624999999999999       0.95625000000000004        0.0000000000000000     
  0.22812499999999999       0.95937499999999998        0.0000000000000000     
  0.23125000000000001       0.98124999999999996        0.0000000000000000     
  0.20937500000000001       0.97812500000000002        0.0000000000000000     
  0.15625000000000000       0.87500000000000000        0.0000000000000000     
  0.18750000000000000       0.87500000000000000        0.0000000000000000     
  0.18750000000000000       0.90625000000000000        0.0000000000000000     
  0.14374999999999999       0.89375000000000004        0.0000000000000000     
  0.16562499999999999       0.89687499999999998        0.0000000000000000     
  0.16875000000000001       0.91874999999999996        0.0000000000000000     
  0.14687500000000001       0.91562500000000002        0.0000000000000000     
  0.21875000000000000       0.87500000000000000        0.0000000000000000     
  0.25000000000000000       0.87500000000000000        0.0000000000000000     
  0.25000000000000000       0.90625000000000000        0.0000000000000000     
  0.20624999999999999       0.89375000000000004        0.0000000000000000     
  0.22812499999999999       0.89687499999999998        0.0000000000000000     
  0.23125000000000001       0.91874999999999996        0.0000000000000000     
  0.20937500000000001       0.91562500000000002        0.0000000000000000     
   3.1250000000000000E-002  0.81250000000000000        0.0000000000000000     
   6.2500000000000000E-002  0.81250000000000000        0.0000000000000000     
   6.2500000000000000E-002  0.84375000000000000        0.0000000000000000     
   1.8749999999999999E-002  0.83125000000000004        0.0000000000000000     
   4.0625000000000001E-002  0.83437499999999998        0.0000000000000000     
   4.3749999999999997E-002  0.85624999999999996        0.0000000000000000     
   2.1874999999999999E-002  0.85312500000000002        0.0000000000000000     
   9.3750000000000000E-002  0.81250000000000000        0.0000000000000000     
  0.12500000000000000       0.81250000000000000        0.0000000000000000     
  0.12500000000000000       0.84375000000000000        0.0000000000000000     
   8.1250000000000003E-002  0.83125000000000004        0.0000000000000000     
  0.10312499999999999       0.83437499999999998        0.0000000000000000     
  0.10625000000000000       0.85624999999999996        0.0000000000000000     
   8.4375000000000006E-002  0.85312500000000002        0.0000000000000000     
   3.1250000000000000E-002  0.75000000000000000        0.0000000000000000     
   6.2500000000000000E-002  0.75000000000000000        0.0000000000000000     
   6.2500000000000000E-002  0.78125000000000000        0.0000000000000000     
   1.8749999999999999E-002  0.76875000000000004        0.0000000000000000     
   4.0625000000000001E-002  0.77187499999999998        0.0000000000000000     
   4.3749999999999997E-002  0.79374999999999996        0.0000000000000000     
   2.1874999999999999E-002  0.79062500000000002        0.0000000000000000     
   9.3750000000000000E-002  0.75000000000000000        0.0000000000000000     
  0.12500000000000000       0.75000000000000000        0.0000000000000000     
  0.12500000000000000       0.78125000000000000        0.0000000000000000     
   8.1250000000000003E-002  0.76875000000000004        0.0000000000000000     
  0.10312499999999999       0.77187499999999998        0.0000000000000000     
  0.10625000000000000       0.79374999999999996        0.0000000000000000     
   8.4375000000000006E-002  0.79062500000000002        0.0000000000000000     
  0.15625000000000000       0.81250000000000000        0.0000000000000000     
  0.18750000000000000       0.81250000000000000        0.0000000000000000     
  0.18750000000000000       0.84375000000000000        0.0000000000000000     
  0.14374999999999999       0.83125000000000004        0.0000000000000000     
  0.16562499999999999       0.83437499999999998        0.0000000000000000     
  0.16875000000000001       0.85624999999999996        0.0000000000000000     
  0.14687500000000001       0.85312500000000002        0.0000000000000000     
  0.21875000000000000       0.81250000000000000        0.0000000000000000     
  0.25000000000000000       0.81250000000000000        0.0000000000000000     
  0.25000000000000000       0.84375000000000000        0.0000000000000000     
  0.20624999999999999       0.83125000000000004        0.0000000000000000     
  0.22812499999999999       0.83437499999999998        0.0000000000000000     
  0.23125000000000001       0.85624999999999996        0.0000000000000000     
  0.20937500000000001       0.85312500000000002        0.0000000000000000     
  0.15625000000000000       0.75000000000000000        0.0000000000000000     
  0.18750000000000000       0.75000000000000000        0.0000000000000000     
  0.18750000000000000       0.78125000000000000        0.0000000000000000     
  0.14374999999999999       0.76875000000000004        0.0000000000000000     
  0.16562499999999999       0.77187499999999998        0.0000000000000000     
  0.16875000000000001       0.79374999999999996        0.0000000000000000     
  0.14687500000000001       0.79062500000000002        0.0000000000000000     
  0.21875000000000000       0.75000000000000000        0.0000000000000000     
  0.25000000000000000       0.75000000000000000        0.0000000000000000     
  0.25000000000000000       0.78125000000000000        0.0000000000000000     
  0.20624999999999999       0.76875000000000004        0.0000000000000000     
  0.22812499999999999       0.77187499999999998        0.0000000000000000     
  0.23125000000000001       0.79374999999999996        0.0000000000000000     
  0.20937500000000001       0.79062500000000002        0.0000000000000000     
  0.28125000000000000       0.93750000000000000        0.0000000000000000     
  0.31250000000000000       0.93750000000000000        0.0000000000000000     
  0.31250000000000000       0.96875000000000000        0.0000000000000000     
  0.26874999999999999       0.95625000000000004        0.0000000000000000     
  0.29062500000000002       0.95937499999999998        0.0000000000000000     
  0.29375000000000001       0.98124999999999996        0.0000000000000000     
  0.27187499999999998       0.97812500000000002        0.0000000000000000     
  0.34375000000000000       0.93750000000000000        0.0000000000000000     
  0.37500000000000000       0.93750000000000000        0.0000000000000000     
  0.37500000000000000       0.96875000000000000        0.0000000000000000     
  0.33124999999999999       0.95625000000000004        0.0000000000000000     
  0.35312500000000002       0.95937499999999998        0.0000000000000000     
  0.35625000000000001       0.98124999999999996        0.0000000000000000     
[...]
 CELL_DATA        3584
 SCALARS Cells_density float
 LOOKUP_TABLE default
    0.99994949597776827677E+00
    0.99998922015797608864E+00
    0.99997915579984542056E+00
    0.99998824634576599646E+00
    0.99998994411724939635E+00
    0.99993995520082823436E+00
    0.99996662679728043344E+00
    0.99996270549128241090E+00
    0.99996283196818569472E+00
    0.99996650919833007798E+00
    0.99996505569058202756E+00
    0.99997022634118282181E+00
    0.99998326515225166577E+00
    0.99998413650065354208E+00
    0.99999691813603674984E+00
    0.10000036857257830203E+01
    0.99998495194400893737E+00
    0.99999091643919879591E+00
    0.99999067765094218352E+00
    0.99994088699304184420E+00
    0.99996638752034894271E+00
    0.99995910726437542415E+00
    0.99996718552380159384E+00
    0.99994849776892813509E+00
    0.99998994505266969313E+00
    0.99998539460246671506E+00
    0.99998444869480562769E+00
    0.99998361084121756281E+00
    0.99995035321516967386E+00
    0.99999017438675918967E+00
    0.99998162500926390805E+00
    0.99999312123075911884E+00
    0.10000015060733580263E+01
    0.99998188246955221903E+00
    0.99998601205341597353E+00
    0.99998701611555373958E+00
    0.99993811035730428838E+00
    0.99996407976695667053E+00
    0.99995954459003932868E+00
    0.99996937337426472503E+00
    0.99998351900115978186E+00
    0.99998616749721802588E+00
    0.99999825857463697787E+00
    0.10000070125508535579E+01
    0.99998787032609104397E+00
    0.99999598531192890327E+00
    0.10000050245066702814E+01
    0.99998424940389940563E+00
    0.99999259925414996086E+00
    0.10000060409411279938E+01
    0.99998980385149704997E+00
    0.99999637409413000277E+00
    0.10000088008398599904E+01
    0.99999074086769257352E+00
    0.99999373940413205375E+00
    0.99999430661444677071E+00
    0.99999821967913682386E+00
    0.10000045729919935233E+01
    0.99998548809896314893E+00
    0.99999130247901435453E+00
    0.99999115756385226206E+00
    0.99994122652089878489E+00
    0.99996688558228197241E+00
    0.99995988539935698469E+00
    0.99996829004409060193E+00
    0.99994968436846154436E+00
    0.99999126888722256190E+00
    0.99998734859829485622E+00
    0.99998534734801203250E+00
    0.99998436832394976825E+00
    0.99999839701402415404E+00
    0.10000046772486392843E+01
    0.99998554115340987369E+00
    0.99999133795349193221E+00
    0.99999120696321530666E+00
    0.99994125851873860711E+00
    0.99996693909489553498E+00
    0.99995998420364240467E+00
    0.99996846187958554619E+00
    0.99994992803014670635E+00
    0.99999146463308441479E+00
    0.99998762957440967547E+00
    0.99998545900572610723E+00
    0.99998445824382442559E+00
    0.99999831017114371168E+00
    0.10000076958826469298E+01
    0.99998840405755173855E+00
    0.99999638075253394209E+00
    0.10000055175116668860E+01
    0.99998460953230294823E+00
    0.99999313921020460683E+00
    0.10000068683797043168E+01
    0.99999083633022356477E+00
    0.99999626584278089592E+00
    0.10000071017949441199E+01
    0.99999120564766930119E+00
    0.99999419978775794249E+00
    0.99999497494000666453E+00
    0.99999848277443315059E+00
    0.10000077935478928204E+01
    0.99998843514033242119E+00
    0.99999640017993329799E+00
    0.10000055622649333120E+01
    0.99998463932720593750E+00
    0.99999319221913218758E+00
    0.10000069682568635265E+01
    0.99999101371528509308E+00
    0.99999652080527490217E+00
    0.10000073019199495761E+01
    0.99999149197114423071E+00
    0.99999431066914068467E+00
    0.99999506387393655160E+00
    0.99995068091548855449E+00
    0.99999063556883305282E+00
    0.99998194750893076854E+00
    0.99999323631243508537E+00
    0.10000022237316315010E+01
    0.99998244909178524154E+00
    0.99998784235015913957E+00
    0.99998833478610504866E+00
    0.99993928054829650520E+00
    0.99996518197260431116E+00
    0.99996031389799211464E+00
    0.99996985976659946704E+00
    0.99998426150554653447E+00
    0.99998704029909657454E+00
    0.99999717509233998491E+00
    0.10000072307001517391E+01
    0.99998822561496636396E+00
    0.99999649540302193440E+00
    0.10000058707437082806E+01
    0.99998552558321829320E+00
    0.99999465454853952995E+00
    0.10000072052326776095E+01
    0.99999035437151906347E+00
    0.99999527789091036123E+00
    0.10000062830615856768E+01
    0.99998948947415566835E+00
    0.99999414959792565227E+00
    0.99999521007920355586E+00
    0.99995071102131571905E+00
    0.99999068202382113135E+00
    0.99998198063288856741E+00
    0.99999328672028642284E+00
    0.10000023215858886427E+01
    0.99998261201317628633E+00
    0.99998810209698651974E+00
    0.99998852057643417002E+00
    0.99993951424331350974E+00
    0.99996534602500497524E+00
    0.99996040768748739591E+00
    0.99996991035290183625E+00
    0.99998434649676593011E+00
    0.99998714587253012542E+00
    0.99999721010798636733E+00
    0.10000073698128402189E+01
    0.99998824937905927968E+00
    0.99999652940968319914E+00
    0.10000060587232746379E+01
    0.99998569288770344787E+00
    0.99999492548103297018E+00
    0.10000074602408388635E+01
    0.99999029573974118623E+00
    0.99999541845841266596E+00
    0.10000064717619125965E+01
    0.99998954623648361739E+00
    0.99999479262207768837E+00
    0.99999587197443229325E+00
    0.99999864035008134699E+00
    0.10000081627426680164E+01
    0.99998873418976819138E+00
    0.99999685204448074405E+00
    0.10000063742041533921E+01
    0.99998588179746927818E+00
    0.99999520432394439773E+00
    0.10000080972205573904E+01
    0.99999153716815714077E+00
    0.99999732034057231544E+00
    0.10000078892968016220E+01
    0.99999171319181245909E+00
    0.99999496028792778102E+00
    0.99999586070375223734E+00
    0.99999850703316572886E+00
    0.10000078725796521795E+01
    0.99998776363487407171E+00
    0.99999613879676874095E+00
    0.10000060976355067410E+01
    0.99998574092186998108E+00
    0.99999520926793528108E+00
    0.10000081504816955569E+01
    0.99999170282104798968E+00
    0.99999756213212842582E+00
    0.10000080312524624038E+01
    0.99999191636110518200E+00
    0.99999493263255534448E+00
    0.99999582218459548422E+00
    0.99999849695446574316E+00
    0.10000078909673402183E+01
    0.99998789346612004802E+00
    0.99999652010027950677E+00
    0.10000061708207341749E+01
    0.99998573355055286882E+00
    0.99999538803163889877E+00
    0.10000082249002735235E+01
    0.99999176085621910293E+00
    0.99999747408344785704E+00
    0.10000079349138215612E+01
    0.99999171473994363790E+00
    0.99999491476754576169E+00
    0.99999582227554184577E+00
    0.99999391444156471298E+00
    0.10000009758778356517E+01
    0.99995630740492480459E+00
    0.99996599348524550788E+00
    0.99999764351335074242E+00
    0.99997973330500899980E+00
    0.99999446300472627502E+00
    0.10000077848404860248E+01
    0.99999137149668237967E+00
    0.99999715065765792943E+00
    0.10000074651713601881E+01
    0.99999063444446967264E+00
    0.99999193134463915111E+00
    0.99999274847989294557E+00
    0.99999840912627879774E+00
    0.10000046833203801722E+01
    0.99998554174276255146E+00
    0.99999133840813125840E+00
    0.99999120935098839702E+00
    0.99994126000962169076E+00
    0.99996694209801717523E+00
    0.99995999070389873786E+00
    0.99996847488365214751E+00
    0.99994994859755548244E+00
    0.99999147982988900729E+00
    0.99998765314792326109E+00
    0.99998546634863472171E+00
    0.99998446383636918622E+00
    0.99999840187969768479E+00
    0.10000046784954947920E+01
    0.99998552896840009474E+00
    0.99999133225798619851E+00
    0.99999120762913518146E+00
    0.99994125947312961777E+00
    0.99996694195585855702E+00
    0.99995999062967400040E+00
    0.99996847528642895941E+00
    0.99994994935210612663E+00
    0.99999147965325330123E+00
    0.99998765220536589560E+00
    0.99998546519336084515E+00
    0.99998446306916466408E+00
    0.99999839019952352359E+00
    0.10000077044680160121E+01
    0.99998817844751486383E+00
    0.99999623713978769146E+00
    0.10000055144457753453E+01
    0.99998462084797723470E+00
    0.99999318949438920079E+00
    0.10000069671672313643E+01
    0.99999102452978827493E+00
    0.99999653799464893744E+00
    0.10000073025345290745E+01
    0.99999148735898801821E+00
    0.99999428830196801510E+00
    0.99999504628397850592E+00
    0.99999792230055084552E+00
    0.10000070760554189420E+01
    0.99998685790490982050E+00
    0.99999542820522135944E+00
    0.10000052472168596829E+01
    0.99998452533197412784E+00
    0.99999315925322707077E+00
    0.10000069188896500982E+01
    0.99999100855345535166E+00
    0.99999651100167596951E+00
    0.10000071864047983539E+01
    0.99999123348712815051E+00
    0.99999408574551496010E+00
    0.99999489941534469573E+00
    0.99999837325474694172E+00
    0.10000046633776733529E+01
    0.99998549674204562088E+00
    0.99999131859012213575E+00
    0.99999120346491232603E+00
    0.99994125826976687499E+00
    0.99996694140253761240E+00
    0.99995998975457867086E+00
    0.99996847486929452131E+00
    0.99994994866547459722E+00
    0.99999147666701537762E+00
    0.99998764407924278785E+00
    0.99998546083754413782E+00
    0.99998446034341004207E+00
    0.99999832758508289121E+00
    0.10000046447621373513E+01
    0.99998546755462136559E+00
    0.99999130844765027337E+00
    0.99999120009634590023E+00
    0.99994125746329243221E+00
    0.99996694092487847794E+00
    0.99995998873627667258E+00
    0.99996847421354362329E+00
    0.99994994742130449694E+00
    0.99999147179598990576E+00
    0.99998762939157725960E+00
    0.99998545532220128873E+00
    0.99998445722190010265E+00
    0.99999710402587183022E+00
    0.10000076838140941060E+01
    0.99998530569721644223E+00
    0.99999531027374433112E+00
    0.10000054917957217349E+01
    0.99998432828977179554E+00
    0.99999308431604028158E+00
    0.10000067706314490490E+01
    0.99999094794800014174E+00
    0.99999639488596170356E+00
    0.10000067375166548089E+01
    0.99999028237787113138E+00
    0.99999355759402197563E+00
    0.99999455291006200675E+00
    0.99999312439406251585E+00
    0.10000071634259688480E+01
    0.99998256604746194043E+00
    0.99999462015812612403E+00
    0.10000054410598173682E+01
    0.99998421020389915981E+00
    0.99999301820514319150E+00
    0.10000066031578260795E+01
    0.99999085123286524102E+00
    0.99999617931264028758E+00
    0.10000065886728186637E+01
    0.99998895579245528076E+00
    0.99999306711906366107E+00
    0.99999428429329850765E+00
    0.99999554335508356040E+00
    0.10000060926821712215E+01
    0.99997699589268973508E+00
    0.99999101525494582532E+00
    0.10000050587548690029E+01
    0.99998443077166432325E+00
    0.99999498529239527755E+00
    0.10000075149481948422E+01
    0.99999151094280369634E+00
    0.99999731264543223475E+00
    0.10000070272295917828E+01
    0.99999064239046608904E+00
    0.99999343590330036502E+00
    0.99999457369180355659E+00
    0.99994575511893479813E+00
    0.99996719476241324731E+00
    0.99987986634944270303E+00
    0.99993224971168914728E+00
    0.99998466327637502982E+00
    0.99997661273590310316E+00
    0.99999299400646879388E+00
    0.10000062568435166277E+01
    0.99999024924713220130E+00
    0.99999501590498862669E+00
    0.10000044869023807514E+01
    0.99997936628036365736E+00
    0.99998180679952552996E+00
    0.99998590307045986947E+00
    0.99967962691597700431E+00
    0.99963240628103522400E+00
    0.99855245461533259643E+00
    0.99925084927574836513E+00
    0.99979401636450282442E+00
    0.99988345731636141256E+00
    0.99996498289010316007E+00
    0.99997870527029075749E+00
    0.99998358868537606803E+00
    0.99998575413203083517E+00
    0.99996999553469878563E+00
    0.99992398286891082115E+00
    0.99989002105709579027E+00
    0.99990943056482162188E+00
    0.99424444876855477826E+00
    0.99681796417989998460E+00
    0.99204883581489622379E+00
    0.99602949349436464832E+00
    0.99864610802467723705E+00
    0.99936133214173805683E+00
    0.99977089887911252397E+00
    0.99972300658091894920E+00
    0.99988810603578837100E+00
    0.99984879460286513186E+00
    0.99945614207833299858E+00
    0.99869627142483452520E+00
    0.99900755366197180329E+00
    0.99924995932672766585E+00
    0.99971771125355768373E+00
    0.99981842099134354829E+00
    0.99959679333974071902E+00
    0.99977961992907282696E+00
    0.99992752301311005336E+00
    0.99995597225521681839E+00
    0.99998534846218012362E+00
    0.99999323862689271092E+00
    0.99998562382006073168E+00
    0.99998455698127908242E+00
    0.99996952179809017736E+00
    0.99990142572877294125E+00
    0.99992893985045017136E+00
    0.99994809177271481992E+00
    0.99931168757049049223E+00
    0.99961547503264569503E+00
    0.99931609994716585899E+00
    0.99965621392112669064E+00
    0.99987598539684574561E+00
    0.99994082286760788136E+00
    0.99997787080056232956E+00
    0.99997503822491573544E+00
    0.99997552938810674306E+00
    0.99996290755715144805E+00
    0.99990109512187752561E+00
    0.99973607360604144212E+00
    0.99985256702090408165E+00
    0.99989877583040276399E+00
    0.98477541625208608878E+00
    0.99043788797735077267E+00
    0.98132338960582621290E+00
    0.98931081589388936148E+00
    0.99575829266961357611E+00
    0.99812495191588690435E+00
    0.99922864381457621175E+00
    0.99885928942103896500E+00
    0.99948068040220894304E+00
    0.99921821804738486517E+00
    0.99755379245333830607E+00
    0.99499100041065635658E+00
    0.99633209890703444689E+00
    0.99719205995022441869E+00
    0.96990241918591657555E+00
    0.98189983711237283082E+00
    0.97062876572470868641E+00
    0.98387026238555586044E+00
    0.99310429931025534511E+00
    0.99721972981594009244E+00
    0.99870216515617871167E+00
    0.99771528417510824127E+00
    0.99875924477795252621E+00
    0.99792552036660520098E+00
    0.99407967322719836822E+00
    0.98774956992188056581E+00
    0.99252670353267691272E+00
    0.99453677302137466487E+00
    0.99995071237444077550E+00
    0.99999068419068948277E+00
    0.99998198097184776145E+00
    0.99999328710345414262E+00
    0.10000023270948170673E+01
    0.99998262314348784763E+00
    0.99998812398866698814E+00
    0.99998853471269599780E+00
    0.99993953356000697674E+00
    0.99996535818406873108E+00
    0.99996041371751975824E+00
    0.99996991311452265716E+00
    0.99998435164514021256E+00
    0.99998715263778803486E+00
    0.99999719173422774166E+00
    0.10000073247179319669E+01
    0.99998808648632286911E+00
    0.99999627047304784355E+00
    0.10000059719421954263E+01
    0.99998559939699938059E+00
    0.99999492016924684812E+00
    0.10000074626363806285E+01
    0.99999031260124282561E+00
    0.99999542860901469155E+00
    0.10000064731036923948E+01
    0.99998954358901559480E+00
    0.99999478427730514873E+00
    0.99999585868690876733E+00
    0.99995071183138828363E+00
    0.99999068245651423492E+00
    0.99998197479967620982E+00
    0.99999327422559036727E+00
    0.10000023222247178545E+01
    0.99998261574638791505E+00
    0.99998812294914773968E+00
    0.99998853447178703835E+00
    0.99993953422784365159E+00
    0.99996535853264922888E+00
    0.99996041361537069125E+00
    0.99996991296003179261E+00
    0.99998435085249315346E+00
    0.99998715144884819939E+00
    0.99999709440617023937E+00
    0.10000070403163698884E+01
    0.99998734113114062794E+00
    0.99999619947948192866E+00
    0.10000057004662996629E+01
    0.99998472613226474515E+00
    0.99999466733204400715E+00
    0.10000073280236565498E+01
    0.99999028483990382021E+00
    0.99999541185408002963E+00
    0.10000064064400766561E+01
    0.99998951252000012335E+00
    0.99999426711868677486E+00
    0.99999528390905567665E+00
    0.99999727626348766663E+00
    0.10000076151188803664E+01
    0.99998005805581324790E+00
    0.99998513863321625283E+00
    0.10000030662783427893E+01
    0.99998128589522250476E+00
    0.99999489903447780215E+00
    0.10000073018252024770E+01
    0.99999151132296992817E+00
    0.99999728073741056544E+00
    0.10000072867483835726E+01
    0.99999115702763419211E+00
    0.99999338094052470094E+00
    0.99999397722762140006E+00
    0.99989959651812798658E+00
    0.99979776389802366143E+00
    0.99923752451116398809E+00
    0.99855919756567501633E+00
    0.99962714482901871005E+00
    0.99966366933293737684E+00
    0.99992482883805322569E+00
    0.99996894293772253803E+00
    0.99998278353118763562E+00
    0.99998817152225760729E+00
    0.99997837717694426640E+00
    0.99996298973339303728E+00
    0.99990793487550366780E+00
    0.99988951603294307091E+00
    0.99999040721160514789E+00
    0.99998780920839569486E+00
    0.99991994444209120196E+00
    0.99988689350806259082E+00
    0.99996367813545505854E+00
    0.99993180423344873997E+00
    0.99998110679896801134E+00
    0.10000039152908000162E+01
    0.99998958263848070072E+00
    0.99999565594553652126E+00
    0.10000058838308034659E+01
    0.99998951551583947772E+00
    0.99998440623804307759E+00
    0.99998170591603363633E+00
    0.99937857292606968596E+00
    0.99864997044164693918E+00
    0.99601530558382611602E+00
    0.99205475001499043852E+00
    0.99681415351153679349E+00
    0.99423071737568591288E+00
    0.99869511768195617929E+00
    0.99945440572580557248E+00
    0.99984915590344769498E+00
    0.99989421056227656415E+00
    0.99972287151718075560E+00
    0.99976914211241485475E+00
    0.99924823071638879668E+00
    0.99900669309326917134E+00
    0.99995071062776930138E+00
    0.99999067828755705545E+00
    0.99998196106014514140E+00
    0.99999324103716402679E+00
    0.10000023069759933492E+01
    0.99998258605022583012E+00
    0.99998811475771776092E+00
    0.99998853147974609001E+00
    0.99993953353728248779E+00
    0.99996535811306264119E+00
    0.99996041274009883626E+00
    0.99996991240695154435E+00
    0.99998434812530223592E+00
    0.99998714708465019640E+00
    0.99999687962819183706E+00
    0.10000066099584323798E+01
    0.99998596263915517923E+00
    0.99999412660080355675E+00
    0.10000050132211697473E+01
    0.99998246835879112115E+00
    0.99999446145623793747E+00
    0.10000068259250216585E+01
    0.99999016226406911567E+00
    0.99999534430781111816E+00
    0.10000061760111031983E+01
    0.99998943026225262098E+00
    0.99999344507933740633E+00
    0.99999432742960514542E+00
    0.99995070983138256704E+00
    0.99999067492735038698E+00
    0.99998195092317010424E+00
    0.99999321183007716662E+00
    0.10000022883656518591E+01
    0.99998254040541134646E+00
    0.99998810006321048327E+00
    0.99998852660932768810E+00
    0.99993953229493026669E+00
    0.99996535745956161012E+00
    0.99996041172558680632E+00
    0.99996991193486883809E+00
    0.99998434500851174356E+00
    0.99998714157336410224E+00
    0.99999675121736575356E+00
    0.10000069912402522743E+01
    0.99998526429260226056E+00
    0.99999102155914099122E+00
    0.10000051146450679163E+01
    0.99997924870240906259E+00
    0.99999371652486246376E+00
    0.10000071057962383048E+01
    0.99998996989601318663E+00
    0.99999524819375518181E+00
    0.10000059991435312767E+01
    0.99998936343276123573E+00
    0.99999295680362432215E+00
    0.99999363247936234877E+00
    0.99997012449435462855E+00
    0.99993083082820377605E+00
    0.99976687964268007303E+00
    0.99960358351156730627E+00
    0.99981548388294994023E+00
    0.99970443434484757006E+00
    0.99990167275722507956E+00
    0.99996809392014207596E+00
    0.99998218073762490388E+00
    0.99999140905785699474E+00
    0.99999288057894453186E+00
    0.99998266767101073871E+00
    0.99994650172821775147E+00
    0.99992860081372147985E+00
    0.99814256953680458029E+00
    0.99576224025941506568E+00
    0.98929649697771238070E+00
    0.98132910972015330309E+00
    0.99043454482377468739E+00
    0.98476235641492426698E+00
    0.99498911408786749888E+00
    0.99755202843557766457E+00
    0.99921987282069835157E+00
    0.99948761893156989888E+00
    0.99885938730828893739E+00
    0.99922695845951858828E+00