# vtk DataFile Version 3.0
LAPLACIEN  2D
ASCII
DATASET UNSTRUCTURED_GRID
 POINTS        1857  float
   3.1250000000000000E-002  0.93750000000000000        0.0000000000000000     
   6.2500000000000000E-002  0.93750000000000000        0.0000000000000000     
   6.2500000000000000E-002  0.96875000000000000        0.0000000000000000     
   1.8749999999999999E-002  0.95625000000000004        0.0000000000000000     
   4.0625000000000001E-002  0.95937499999999998        0.0000000000000000     
   4.3749999999999997E-002  0.98124999999999996        0.0000000000000000     
   2.1874999999999999E-002  0.97812500000000002        0.0000000000000000     
   9.3750000000000000E-002  0.93750000000000000        0.0000000000000000     
  0.12500000000000000       0.93750000000000000        0.0000000000000000     
  0.12500000000000000       0.96875000000000000        0.0000000000000000     
   8.1250000000000003E-002  0.95625000000000004        0.0000000000000000     
  0.10312499999999999       0.95937499999999998        0.0000000000000000     
  0.10625000000000000       0.98124999999999996        0.0000000000000000     
   8.4375000000000006E-002  0.97812500000000002        0.0000000000000000     
   3.1250000000000000E-002  0.87500000000000000        0.0000000000000000     
   6.2500000000000000E-002  0.87500000000000000        0.0000000000000000     
   6.2500000000000000E-002  0.90625000000000000        0.0000000000000000     
   1.8749999999999999E-002  0.89375000000000004        0.0000000000000000     
   4.0625000000000001E-002  0.89687499999999998        0.0000000000000000     
   4.3749999999999997E-002  0.91874999999999996        0.0000000000000000     
   2.1874999999999999E-002  0.91562500000000002        0.0000000000000000     
   9.3750000000000000E-002  0.87500000000000000        0.0000000000000000     
  0.12500000000000000       0.87500000000000000        0.0000000000000000     
  0.12500000000000000       0.90625000000000000        0.0000000000000000     
   8.1250000000000003E-002  0.89375000000000004        0.0000000000000000     
  0.10312499999999999       0.89687499999999998        0.0000000000000000     
  0.10625000000000000       0.91874999999999996        0.0000000000000000     
   8.4375000000000006E-002  0.91562500000000002        0.0000000000000000     
  0.15625000000000000       0.93750000000000000        0.0000000000000000     
  0.18750000000000000       0.93750000000000000        0.0000000000000000     
  0.18750000000000000       0.96875000000000000        0.0000000000000000     
  0.14374999999999999       0.95625000000000004        0.0000000000000000     
  0.16562499999999999       0.95937499999999998        0.0000000000000000     
  0.16875000000000001       0.98124999999999996        0.0000000000000000     
  0.14687500000000001       0.97812500000000002        0.0000000000000000     
  0.21875000000000000       0.93750000000000000        0.0000000000000000     
  0.25000000000000000       0.93750000000000000        0.0000000000000000     
  0.25000000000000000       0.96875000000000000        0.0000000000000000     
  0.20624999999999999       0.95625000000000004        0.0000000000000000     
  0.22812499999999999       0.95937499999999998        0.0000000000000000     
  0.23125000000000001       0.98124999999999996        0.0000000000000000     
  0.20937500000000001       0.97812500000000002        0.0000000000000000     
  0.15625000000000000       0.87500000000000000        0.0000000000000000     
  0.18750000000000000       0.87500000000000000        0.0000000000000000     
  0.18750000000000000       0.90625000000000000        0.0000000000000000     
  0.14374999999999999       0.89375000000000004        0.0000000000000000     
  0.16562499999999999       0.89687499999999998        0.0000000000000000     
  0.16875000000000001       0.91874999999999996        0.0000000000000000     
  0.14687500000000001       0.91562500000000002        0.0000000000000000     
  0.21875000000000000       0.87500000000000000        0.0000000000000000     
  0.25000000000000000       0.87500000000000000        0.0000000000000000     
  0.25000000000000000       0.90625000000000000        0.0000000000000000     
  0.20624999999999999       0.89375000000000004        0.0000000000000000     
  0.22812499999999999       0.89687499999999998        0.0000000000000000     
  0.23125000000000001       0.91874999999999996        0.0000000000000000     
  0.20937500000000001       0.91562500000000002        0.0000000000000000     
   3.1250000000000000E-002  0.81250000000000000        0.0000000000000000     
   6.2500000000000000E-002  0.81250000000000000        0.0000000000000000     
   6.2500000000000000E-002  0.84375000000000000        0.0000000000000000     
   1.8749999999999999E-002  0.83125000000000004        0.0000000000000000     
   4.0625000000000001E-002  0.83437499999999998        0.0000000000000000     
   4.3749999999999997E-002  0.85624999999999996        0.0000000000000000     
   2.1874999999999999E-002  0.85312500000000002        0.0000000000000000     
   9.3750000000000000E-002  0.81250000000000000        0.0000000000000000     
  0.12500000000000000       0.81250000000000000        0.0000000000000000     
  0.12500000000000000       0.84375000000000000        0.0000000000000000     
   8.1250000000000003E-002  0.83125000000000004        0.0000000000000000     
  0.10312499999999999       0.83437499999999998        0.0000000000000000     
  0.10625000000000000       0.85624999999999996        0.0000000000000000     
   8.4375000000000006E-002  0.85312500000000002        0.0000000000000000     
   3.1250000000000000E-002  0.75000000000000000        0.0000000000000000     
   6.2500000000000000E-002  0.75000000000000000        0.0000000000000000     
   6.2500000000000000E-002  0.78125000000000000        0.0000000000000000     
   1.8749999999999999E-002  0.76875000000000004        0.0000000000000000     
   4.0625000000000001E-002  0.77187499999999998        0.0000000000000000     
   4.3749999999999997E-002  0.79374999999999996        0.0000000000000000     
   2.1874999999999999E-002  0.79062500000000002        0.0000000000000000     
   9.3750000000000000E-002  0.75000000000000000        0.0000000000000000     
  0.12500000000000000       0.75000000000000000        0.0000000000000000     
  0.12500000000000000       0.78125000000000000        0.0000000000000000     
   8.1250000000000003E-002  0.76875000000000004        0.0000000000000000     
  0.10312499999999999       0.77187499999999998        0.0000000000000000     
  0.10625000000000000       0.79374999999999996        0.0000000000000000     
   8.4375000000000006E-002  0.79062500000000002        0.0000000000000000     
  0.15625000000000000       0.81250000000000000        0.0000000000000000     
  0.18750000000000000       0.81250000000000000        0.0000000000000000     
  0.18750000000000000       0.84375000000000000        0.0000000000000000     
  0.14374999999999999       0.83125000000000004        0.0000000000000000     
  0.16562499999999999       0.83437499999999998        0.0000000000000000     
  0.16875000000000001       0.85624999999999996        0.0000000000000000     
  0.14687500000000001       0.85312500000000002        0.0000000000000000     
  0.21875000000000000       0.81250000000000000        0.0000000000000000     
  0.25000000000000000       0.81250000000000000        0.0000000000000000     
  0.25000000000000000       0.84375000000000000        0.0000000000000000     
  0.20624999999999999       0.83125000000000004        0.0000000000000000     
  0.22812499999999999       0.83437499999999998        0.0000000000000000     
  0.23125000000000001       0.85624999999999996        0.0000000000000000     
  0.20937500000000001       0.85312500000000002        0.0000000000000000     
  0.15625000000000000       0.75000000000000000        0.0000000000000000     
  0.18750000000000000       0.75000000000000000        0.0000000000000000     
  0.18750000000000000       0.78125000000000000        0.0000000000000000     
  0.14374999999999999       0.76875000000000004        0.0000000000000000     
  0.16562499999999999       0.77187499999999998        0.0000000000000000     
  0.16875000000000001       0.79374999999999996        0.0000000000000000     
  0.14687500000000001       0.79062500000000002        0.0000000000000000     
  0.21875000000000000       0.75000000000000000        0.0000000000000000     
  0.25000000000000000       0.75000000000000000        0.0000000000000000     
  0.25000000000000000       0.78125000000000000        0.0000000000000000     
  0.20624999999999999       0.76875000000000004        0.0000000000000000     
  0.22812499999999999       0.77187499999999998        0.0000000000000000     
  0.23125000000000001       0.79374999999999996        0.0000000000000000     
  0.20937500000000001       0.79062500000000002        0.0000000000000000     
  0.28125000000000000       0.93750000000000000        0.0000000000000000     
  0.31250000000000000       0.93750000000000000        0.0000000000000000     
  0.31250000000000000       0.96875000000000000        0.0000000000000000     
  0.26874999999999999       0.95625000000000004        0.0000000000000000     
  0.29062500000000002       0.95937499999999998        0.0000000000000000     
  0.29375000000000001       0.98124999999999996        0.0000000000000000     
  0.27187499999999998       0.97812500000000002        0.0000000000000000     
  0.34375000000000000       0.93750000000000000        0.0000000000000000     
  0.37500000000000000       0.93750000000000000        0.0000000000000000     
  0.37500000000000000       0.96875000000000000        0.0000000000000000     
  0.33124999999999999       0.95625000000000004        0.0000000000000000     
  0.35312500000000002       0.95937499999999998        0.0000000000000000     
  0.35625000000000001       0.98124999999999996        0.0000000000000000     
[...]
 CELL_DATA        3584
 SCALARS Endothelial_cells float
 LOOKUP_TABLE default
    0.99992555630784307752E+00
    0.99996317597637840446E+00
    0.99995911509206736323E+00
    0.99996845095764286260E+00
    0.99996449897489592118E+00
    0.99991720267016703794E+00
    0.99994429933600714744E+00
    0.99993617427790526531E+00
    0.99994403008378418551E+00
    0.99994800574365105827E+00
    0.99993989206428446348E+00
    0.99994811322612209281E+00
    0.99995315191706890534E+00
    0.99995348953551588256E+00
    0.99998261472353544566E+00
    0.99998718960700316849E+00
    0.99997033849975458519E+00
    0.99997424461033901366E+00
    0.99996989768073962779E+00
    0.99991944300476520713E+00
    0.99994611611851169641E+00
    0.99993878783842649050E+00
    0.99994489602749792034E+00
    0.99992567809784804744E+00
    0.99996872032212735792E+00
    0.99996734345392113141E+00
    0.99996524787719787142E+00
    0.99996379015005498747E+00
    0.99992730190133327639E+00
    0.99996823029848791453E+00
    0.99996441704312410970E+00
    0.99997930173478333238E+00
    0.99998542333797957316E+00
    0.99996808015215488119E+00
    0.99996689921229642284E+00
    0.99996484544543984274E+00
    0.99991498839717463110E+00
    0.99994150279955140714E+00
    0.99993874899052093141E+00
    0.99994834958359291033E+00
    0.99996304834041171983E+00
    0.99996637431518453631E+00
    0.99998799544909733328E+00
    0.99999657373846473352E+00
    0.99997663138565384688E+00
    0.99998469179307769572E+00
    0.99999426843074989968E+00
    0.99997341782221627060E+00
    0.99997920159610731439E+00
    0.99999425569598499042E+00
    0.99997757200962711366E+00
    0.99998422690139732172E+00
    0.99999905582324377651E+00
    0.99997983266385381818E+00
    0.99998514694333007213E+00
    0.99998524181866477178E+00
    0.99998464954278631911E+00
    0.99998858735372886386E+00
    0.99997113947591487193E+00
    0.99997485520225537492E+00
    0.99997074475930958215E+00
    0.99992007978577368554E+00
    0.99994699961509680985E+00
    0.99994004627506927196E+00
    0.99994652553778184956E+00
    0.99992757576625423965E+00
    0.99997089925959470325E+00
    0.99997107620304737097E+00
    0.99996672716468715247E+00
    0.99996505978681360371E+00
    0.99998405486974517586E+00
    0.99998840187030291204E+00
    0.99997042986648965179E+00
    0.99997387152045946745E+00
    0.99997053963463933268E+00
    0.99992000506484579603E+00
    0.99994705248393211949E+00
    0.99994001530579279535E+00
    0.99994686131538090823E+00
    0.99992804764862286415E+00
    0.99997121255570287079E+00
    0.99997108812620827401E+00
    0.99996678068503275227E+00
    0.99996495479492364389E+00
    0.99998648918285293341E+00
    0.99999603950407955910E+00
    0.99997562422014063532E+00
    0.99998467712536309726E+00
    0.99999445549930821020E+00
    0.99997267484279328542E+00
    0.99997977542846971932E+00
    0.99999520464712232659E+00
    0.99997931692105024304E+00
    0.99998598782682579511E+00
    0.99999832209404659888E+00
    0.99998043788431956180E+00
    0.99998529417584935963E+00
    0.99998558590923813938E+00
    0.99998379549676563727E+00
    0.99999483199072236594E+00
    0.99996639835074485614E+00
    0.99997923336313099263E+00
    0.99999254431103246077E+00
    0.99997051797781977278E+00
    0.99997937197998343350E+00
    0.99999392824623900555E+00
    0.99997848165013658583E+00
    0.99998411291622124608E+00
    0.99999516536116594967E+00
    0.99997921665327593743E+00
    0.99998294917919172686E+00
    0.99998318869833058287E+00
    0.99992788535215981760E+00
    0.99996886132461271224E+00
    0.99996435808734118744E+00
    0.99997795673721878718E+00
    0.99998569753427979379E+00
    0.99996816744064631610E+00
    0.99996993959853963663E+00
    0.99996672048712287317E+00
    0.99991663545975550953E+00
    0.99994302466576912014E+00
    0.99993992918274077208E+00
    0.99994919350529987145E+00
    0.99996412939698686717E+00
    0.99996751838803876744E+00
    0.99998449631719776853E+00
    0.99999549214823746368E+00
    0.99997556637466400442E+00
    0.99998543404638318144E+00
    0.99999579078774158969E+00
    0.99997406161585933315E+00
    0.99998293847778363386E+00
    0.99999643757720635406E+00
    0.99997970386340018223E+00
    0.99998251023200057652E+00
    0.99999473597294241678E+00
    0.99997610908928458162E+00
    0.99998523293400720657E+00
    0.99998645478833203537E+00
    0.99992781815993869721E+00
    0.99996872770016664855E+00
    0.99996380617409696967E+00
    0.99997725497032574626E+00
    0.99998550566489907698E+00
    0.99996790449459771466E+00
    0.99997004072138728770E+00
    0.99996697292579028726E+00
    0.99991707283620767654E+00
    0.99994335393983790894E+00
    0.99994008912370213604E+00
    0.99994925385173960564E+00
    0.99996419464729080495E+00
    0.99996759359864639816E+00
    0.99998347514975960415E+00
    0.99999537503422997187E+00
    0.99996755085640365301E+00
    0.99997424680788249418E+00
    0.99999161281686188563E+00
    0.99996935419857146954E+00
    0.99998232904967265799E+00
    0.99999516464564774942E+00
    0.99997777613105398586E+00
    0.99998174118854887826E+00
    0.99999330393524576976E+00
    0.99997490963495061500E+00
    0.99998235752598940707E+00
    0.99998387927717702350E+00
    0.99998309651396910525E+00
    0.99999224828937793852E+00
    0.99995652858466188562E+00
    0.99996636398818727898E+00
    0.99998867590734386024E+00
    0.99996861334490239059E+00
    0.99998236869058043652E+00
    0.99999702740979679039E+00
    0.99997971075640568195E+00
    0.99998512638237979644E+00
    0.99999700715323480704E+00
    0.99997952726751637709E+00
    0.99998337296339989688E+00
    0.99998403133623314787E+00
    0.99988587228248770877E+00
    0.99987893270277861113E+00
    0.99971697648444257656E+00
    0.99975240493575168177E+00
    0.99989186099743232461E+00
    0.99990331979079238867E+00
    0.99995774106809309778E+00
    0.99997447190999866340E+00
    0.99997285926312207138E+00
    0.99997520882492141325E+00
    0.99997516285591669938E+00
    0.99994836598348346701E+00
    0.99993215741688978859E+00
    0.99993510044429545491E+00
    0.99992042980594819657E+00
    0.99989550508926161587E+00
    0.99973818333688369009E+00
    0.99972318483583710869E+00
    0.99987305838344053832E+00
    0.99986930615910685205E+00
    0.99994776660436424098E+00
    0.99997343707454589001E+00
    0.99997270818623917865E+00
    0.99997594595562988573E+00
    0.99997441350162485918E+00
    0.99995702272375464048E+00
    0.99993346822894468851E+00
    0.99993118223013133239E+00
    0.99902425161019114963E+00
    0.99872809192110312271E+00
    0.99730802769180737499E+00
    0.99731840372940694373E+00
    0.99872237187305035189E+00
    0.99900489037672524084E+00
    0.99957465150514890340E+00
    0.99963234447071958044E+00
    0.99982999785512693958E+00
    0.99983180977907504250E+00
    0.99963433642875976215E+00
    0.99957533308215906764E+00
    0.99930171690072777668E+00
    0.99930172590869115190E+00
    0.99998159796986629821E+00
    0.99998719415492365314E+00
    0.99996766661233149609E+00
    0.99997185693480072910E+00
    0.99996876811853452338E+00
    0.99991922576599934214E+00
    0.99994622807902144856E+00
    0.99993697424862038048E+00
    0.99994630133219764012E+00
    0.99992783526747575085E+00
    0.99997032705975352762E+00
    0.99996893017220145339E+00
    0.99996484211436986733E+00
    0.99996191168418269157E+00
    0.99997695533590047479E+00
    0.99998624911746747390E+00
    0.99996174192183939766E+00
    0.99997020833014815810E+00
    0.99996790444410565968E+00
    0.99991753230488833459E+00
    0.99994471871460155477E+00
    0.99993451997779780882E+00
    0.99994518760949435698E+00
    0.99992689111878974018E+00
    0.99996801611841801272E+00
    0.99996642369735144751E+00
    0.99996178505159327710E+00
    0.99995877367917762601E+00
    0.99994132831291160368E+00
    0.99995725731790530144E+00
    0.99988503128205163950E+00
    0.99992005175785148019E+00
    0.99996732163084589562E+00
    0.99995705722295347151E+00
    0.99997439205877436397E+00
    0.99999092743608331002E+00
    0.99997571808804663895E+00
    0.99998024923659245555E+00
    0.99999223371206791278E+00
    0.99996837829443419032E+00
    0.99996940092588604276E+00
    0.99997206677055983093E+00
    0.99975845281675568277E+00
    0.99981252277694809827E+00
    0.99962952313771258339E+00
    0.99974509535143529781E+00
    0.99988808811689011691E+00
    0.99991722272018090933E+00
    0.99995725689050674045E+00
    0.99996696157535647220E+00
    0.99996514749004872247E+00
    0.99996339828048264042E+00
    0.99994822178935660606E+00
    0.99989237775853967438E+00
    0.99990422661967526263E+00
    0.99991860978955171557E+00
    0.99996176171153039469E+00
    0.99997826290607705335E+00
    0.99994593968390566019E+00
    0.99996200194260054239E+00
    0.99996426192573073521E+00
    0.99991532028227014806E+00
    0.99994276402351212063E+00
    0.99993184441021853992E+00
    0.99994342142647940630E+00
    0.99992502568744978664E+00
    0.99996666042049475731E+00
    0.99996272276438791238E+00
    0.99995779199048651087E+00
    0.99995524252028900047E+00
    0.99994188480380541417E+00
    0.99996835874888445606E+00
    0.99993324628751534267E+00
    0.99995392102117286459E+00
    0.99996119030302343944E+00
    0.99991403487912933201E+00
    0.99994147222201701375E+00
    0.99992978914896846199E+00
    0.99994165828038295007E+00
    0.99992291791852305760E+00
    0.99996358389268813482E+00
    0.99995449913096168260E+00
    0.99995346310220600827E+00
    0.99995197028935678407E+00
    0.99933634917282598842E+00
    0.99952327056557055407E+00
    0.99919555854014463492E+00
    0.99947530436655462882E+00
    0.99975826684900237495E+00
    0.99985794089821855568E+00
    0.99992744638447494943E+00
    0.99991792609830021377E+00
    0.99993735711909237374E+00
    0.99991939578748478823E+00
    0.99983855903428042744E+00
    0.99969229176891527544E+00
    0.99976821959032180498E+00
    0.99981326644015788840E+00
    0.99883497907507956537E+00
    0.99924388548076426009E+00
    0.99887374284356822418E+00
    0.99930850725359043896E+00
    0.99966831955731672021E+00
    0.99982418553151419793E+00
    0.99990542019649508720E+00
    0.99987167244966013158E+00
    0.99990367456629103415E+00
    0.99986083084112142849E+00
    0.99970377586754943788E+00
    0.99942088530444994632E+00
    0.99963250005379866714E+00
    0.99971644750863120077E+00
    0.99917657219611777375E+00
    0.99917086572015079149E+00
    0.99837869273982027263E+00
    0.99867125290095559720E+00
    0.99938237672873653228E+00
    0.99959341212536489962E+00
    0.99982033977285056370E+00
    0.99981726762587963542E+00
    0.99990221009623425630E+00
    0.99988925200402711813E+00
    0.99975817173435188590E+00
    0.99964600058807617788E+00
    0.99957985788259062776E+00
    0.99961874384448012876E+00
    0.99625475076782876727E+00
    0.99667982528260834485E+00
    0.99420497502041582649E+00
    0.99559284284190419090E+00
    0.99786530846995147304E+00
    0.99874990050347833836E+00
    0.99940389830362486023E+00
    0.99927458019690562629E+00
    0.99961769009722767354E+00
    0.99951531880649902018E+00
    0.99886537200322489394E+00
    0.99828155711091193236E+00
    0.99831612577615402859E+00
    0.99854141368778948085E+00
    0.99066850166249509346E+00
    0.98959891843784653087E+00
    0.97842169038385584656E+00
    0.98251805022201166295E+00
    0.99184342757914467636E+00
    0.99460346481137451580E+00
    0.99751179310460735827E+00
    0.99743884211674138651E+00
    0.99879895887719616354E+00
    0.99868229223854376730E+00
    0.99692336475022114151E+00
    0.99607725266719293611E+00
    0.99476220150988015067E+00
    0.99513570934605932727E+00
    0.94765129161963324034E+00
    0.95612334507280216656E+00
    0.92619936651683787421E+00
    0.94417107684629675290E+00
    0.97169348641558361823E+00
    0.98249953389374866664E+00
    0.99114253956501752185E+00
    0.98958234937815048315E+00
    0.99451583213441241416E+00
    0.99332573475140550912E+00
    0.98461031209206817394E+00
    0.97697391347535400552E+00
    0.97749865999178553455E+00
    0.98036305074146834482E+00
    0.98946113258899659471E+00
    0.99169868730910193388E+00
    0.98704233938362595513E+00
    0.99079538579070824955E+00
    0.99536265096494769278E+00
    0.99749157185545644921E+00
    0.99870443633913874582E+00
    0.99821498589411172819E+00
    0.99896726594673290744E+00
    0.99858271759435013326E+00
    0.99676577572807956162E+00
    0.99477404575226169303E+00
    0.99573861542090680299E+00
    0.99646343319462904464E+00
    0.98131651408921827251E+00
    0.98683954063289924807E+00
    0.98168343202735974806E+00
    0.98782058450457210785E+00
    0.99361479307586775267E+00
    0.99678404085405736268E+00
    0.99819326463206592415E+00
    0.99721316441110186002E+00
    0.99819265495188302939E+00
    0.99733611393959931135E+00
    0.99417102462579576283E+00
    0.98994480359761061194E+00
    0.99314492228002315688E+00
    0.99454075150003984351E+00
    0.88166457721356383814E+00
    0.90437625301259316757E+00
    0.86232176645479685639E+00
    0.89395394304235364924E+00
    0.94103554492251084707E+00
    0.96476443387268839835E+00
    0.98040024498577538203E+00
    0.97445776743711776113E+00
    0.98463673645329230499E+00
    0.98001495275535721596E+00
    0.95799580159494579501E+00
    0.93586086702511495083E+00
    0.94585685468164437673E+00
    0.95366189056336470031E+00
    0.81969643640595979406E+00
    0.86043643334434183334E+00
    0.82066723849568024018E+00
    0.86531939486585141008E+00
    0.92041952471695598348E+00
    0.95475498237742695284E+00
    0.97249797130103132758E+00
    0.96028815014978308184E+00
    0.97283420094445294257E+00
    0.96244526321189982632E+00
    0.92729286506915398203E+00
    0.88646040919729673924E+00
    0.91591667025950795900E+00
    0.92995260345731178830E+00
    0.99992710595626754788E+00
    0.99996723042465540665E+00
    0.99996156447517647869E+00
    0.99997680554368917338E+00
    0.99998528733277769476E+00
    0.99996571248407339905E+00
    0.99996920821374013499E+00
    0.99996641193353041910E+00
    0.99991690620194473293E+00
    0.99994293939347567157E+00
    0.99993790803286197733E+00
    0.99994859443283845568E+00
    0.99996190938852724805E+00
    0.99996611085048470180E+00
    0.99997162934531513834E+00
    0.99997035586211835412E+00
    0.99990645374255815447E+00
    0.99989112583575467941E+00
    0.99995202579309006019E+00
    0.99992633806315067702E+00
    0.99996810492284893268E+00
    0.99999051690499707323E+00
    0.99997553749387413369E+00
    0.99997846576383631056E+00
    0.99999009716855291607E+00
    0.99997164395316784358E+00
    0.99997038051029796257E+00
    0.99996865256893852081E+00
    0.99992545589555725805E+00
    0.99996673096663968305E+00
    0.99995756435125759953E+00
    0.99996869132245036482E+00
    0.99998131978028426126E+00
    0.99996028817095483632E+00
    0.99996754007545274323E+00
    0.99996447180639425056E+00
    0.99991603231556114295E+00
    0.99994186508747395781E+00
    0.99993543725455036331E+00
    0.99994712507517757860E+00
    0.99995864600297490465E+00
    0.99996283565363852652E+00
    0.99993300562675002663E+00
    0.99989111835646571347E+00
    0.99973074797827765625E+00
    0.99963535772387457357E+00
    0.99980920068279255375E+00
    0.99974526864889179389E+00
    0.99989039849324923281E+00
    0.99994564800989294007E+00
    0.99996255063104788618E+00
    0.99996912874997456733E+00
    0.99996622950899938242E+00
    0.99995541551109778933E+00
    0.99991655593230654997E+00
    0.99990315053259548606E+00
    0.99961175506081823006E+00
    0.99938597815818197567E+00
    0.99865605158274717290E+00
    0.99838349404588322411E+00
    0.99916402957586392120E+00
    0.99916070780909682636E+00
    0.99964286815289227217E+00
    0.99975573308418075325E+00
    0.99989101497508170446E+00
    0.99990781744556289645E+00
    0.99981740974675636924E+00
    0.99981937188034353259E+00
    0.99961658750082893476E+00
    0.99957799508857603232E+00
    0.99462287313489095020E+00
    0.99184730037443147310E+00
    0.98250276732796337775E+00
    0.97842654408199913885E+00
    0.98959107155307568515E+00
    0.99065019725735836698E+00
    0.99607470758901428542E+00
    0.99692133505937319260E+00
    0.99868598617460158096E+00
    0.99880518794033679164E+00
    0.99743914216780493742E+00
    0.99751051308567528775E+00
    0.99513338700567532946E+00
    0.99475995754608503852E+00
    0.99876879367403881282E+00
    0.99786905666726066766E+00
    0.99557751197075272653E+00
    0.99421007736406930011E+00
    0.99667619943399576865E+00
    0.99624169524377281792E+00
    0.99827809094339414742E+00
    0.99886325280384224978E+00
    0.99951856670199135113E+00
    0.99962469563623590485E+00
    0.99927512642952509569E+00
    0.99940289732683362800E+00
    0.99853954586081905553E+00
    0.99831491897988000606E+00
    0.98251899851851032253E+00
    0.97169766806902357903E+00
    0.94415642824979939540E+00
    0.92620343552788109154E+00
    0.95611966984753382626E+00
    0.94763892659750370573E+00
    0.97697004819077892801E+00
    0.98460857471068863322E+00
    0.99333035993775564698E+00
    0.99452358854666422783E+00
    0.98958333610129645130E+00
    0.99114152272869748828E+00
    0.98036141376724805774E+00
    0.97749753838551323160E+00
    0.99992454082602233445E+00
    0.99996359180072225126E+00
    0.99994917118172765846E+00
    0.99995236292428379965E+00
    0.99997492826100564667E+00
    0.99994709429667827383E+00
    0.99996244560862279638E+00
    0.99996299796299614737E+00
    0.99991423855302685730E+00
    0.99994013517992774709E+00
    0.99993266069218600389E+00
    0.99994642515676135375E+00
    0.99995427162392480636E+00
    0.99995839890833682073E+00
    0.99987391328782593281E+00
    0.99976121916479920859E+00
    0.99946076128664995686E+00
    0.99920131113555643587E+00
    0.99952004818988682278E+00
    0.99932342721935318863E+00
    0.99968961309911807955E+00
    0.99983589593621746694E+00
    0.99991990715189615901E+00
    0.99994217431789034212E+00
    0.99991734232536166882E+00
    0.99992558663263519936E+00
    0.99981105495451183529E+00
    0.99976696176514356917E+00
    0.99992353164975278368E+00
    0.99996079616424793368E+00
    0.99994343935613883012E+00
    0.99993969949210115278E+00
    0.99996550732015543339E+00
    0.99992780253447877126E+00
    0.99995366529299944958E+00
    0.99995906964826930530E+00
    0.99991199909561190307E+00
    0.99993837208952662809E+00
    0.99993054408759418639E+00
    0.99994536118212484777E+00
    0.99995073373454190779E+00
    0.99995379136301953960E+00
    0.99983506468025384883E+00
    0.99967092865689199943E+00
    0.99929488181448322681E+00
    0.99887876603894076855E+00
    0.99924067285249318360E+00
    0.99882215163058063467E+00
    0.99941803493631287125E+00
    0.99970109176019494868E+00
    0.99986162118577892599E+00
    0.99990890354247075056E+00
    0.99987112324561444598E+00
    0.99990283494534837327E+00
    0.99971426201604007833E+00
    0.99963126635830201749E+00
    0.99751060868618568467E+00
    0.99536646560198915878E+00
    0.99078007013913749201E+00
    0.98704732591252164475E+00
    0.99169517476117707844E+00
    0.98944836342280895192E+00
    0.99477038774981785263E+00
    0.99676381850167927734E+00
    0.99858664977852773514E+00
    0.99897481039576885298E+00
    0.99821577128518435007E+00
    0.99870346856746361475E+00
    0.99646165400036423865E+00
    0.99573748483264989950E+00
    0.96478349769246163348E+00
    0.94104009960884948960E+00
    0.89394043206280238145E+00
    0.86232479404937567580E+00
    0.90437289424863442910E+00
    0.88165316636866308819E+00
    0.93585710364525531713E+00
    0.95799443247364313159E+00
    0.98001998730123807135E+00
    0.98464466006291451183E+00
    0.97445902119250449314E+00
    0.98039930480151649128E+00