# vtk DataFile Version 3.0
LAPLACIEN  2D
ASCII
DATASET UNSTRUCTURED_GRID
 POINTS        1857  float
   3.1250000000000000E-002  0.93750000000000000        0.0000000000000000     
   6.2500000000000000E-002  0.93750000000000000        0.0000000000000000     
   6.2500000000000000E-002  0.96875000000000000        0.0000000000000000     
   1.8749999999999999E-002  0.95625000000000004        0.0000000000000000     
   4.0625000000000001E-002  0.95937499999999998        0.0000000000000000     
   4.3749999999999997E-002  0.98124999999999996        0.0000000000000000     
   2.1874999999999999E-002  0.97812500000000002        0.0000000000000000     
   9.3750000000000000E-002  0.93750000000000000        0.0000000000000000     
  0.12500000000000000       0.93750000000000000        0.0000000000000000     
  0.12500000000000000       0.96875000000000000        0.0000000000000000     
   8.1250000000000003E-002  0.95625000000000004        0.0000000000000000     
  0.10312499999999999       0.95937499999999998        0.0000000000000000     
  0.10625000000000000       0.98124999999999996        0.0000000000000000     
   8.4375000000000006E-002  0.97812500000000002        0.0000000000000000     
   3.1250000000000000E-002  0.87500000000000000        0.0000000000000000     
   6.2500000000000000E-002  0.87500000000000000        0.0000000000000000     
   6.2500000000000000E-002  0.90625000000000000        0.0000000000000000     
   1.8749999999999999E-002  0.89375000000000004        0.0000000000000000     
   4.0625000000000001E-002  0.89687499999999998        0.0000000000000000     
   4.3749999999999997E-002  0.91874999999999996        0.0000000000000000     
   2.1874999999999999E-002  0.91562500000000002        0.0000000000000000     
   9.3750000000000000E-002  0.87500000000000000        0.0000000000000000     
  0.12500000000000000       0.87500000000000000        0.0000000000000000     
  0.12500000000000000       0.90625000000000000        0.0000000000000000     
   8.1250000000000003E-002  0.89375000000000004        0.0000000000000000     
  0.10312499999999999       0.89687499999999998        0.0000000000000000     
  0.10625000000000000       0.91874999999999996        0.0000000000000000     
   8.4375000000000006E-002  0.91562500000000002        0.0000000000000000     
  0.15625000000000000       0.93750000000000000        0.0000000000000000     
  0.18750000000000000       0.93750000000000000        0.0000000000000000     
  0.18750000000000000       0.96875000000000000        0.0000000000000000     
  0.14374999999999999       0.95625000000000004        0.0000000000000000     
  0.16562499999999999       0.95937499999999998        0.0000000000000000     
  0.16875000000000001       0.98124999999999996        0.0000000000000000     
  0.14687500000000001       0.97812500000000002        0.0000000000000000     
  0.21875000000000000       0.93750000000000000        0.0000000000000000     
  0.25000000000000000       0.93750000000000000        0.0000000000000000     
  0.25000000000000000       0.96875000000000000        0.0000000000000000     
  0.20624999999999999       0.95625000000000004        0.0000000000000000     
  0.22812499999999999       0.95937499999999998        0.0000000000000000     
  0.23125000000000001       0.98124999999999996        0.0000000000000000     
  0.20937500000000001       0.97812500000000002        0.0000000000000000     
  0.15625000000000000       0.87500000000000000        0.0000000000000000     
  0.18750000000000000       0.87500000000000000        0.0000000000000000     
  0.18750000000000000       0.90625000000000000        0.0000000000000000     
  0.14374999999999999       0.89375000000000004        0.0000000000000000     
  0.16562499999999999       0.89687499999999998        0.0000000000000000     
  0.16875000000000001       0.91874999999999996        0.0000000000000000     
  0.14687500000000001       0.91562500000000002        0.0000000000000000     
  0.21875000000000000       0.87500000000000000        0.0000000000000000     
  0.25000000000000000       0.87500000000000000        0.0000000000000000     
  0.25000000000000000       0.90625000000000000        0.0000000000000000     
  0.20624999999999999       0.89375000000000004        0.0000000000000000     
  0.22812499999999999       0.89687499999999998        0.0000000000000000     
  0.23125000000000001       0.91874999999999996        0.0000000000000000     
  0.20937500000000001       0.91562500000000002        0.0000000000000000     
   3.1250000000000000E-002  0.81250000000000000        0.0000000000000000     
   6.2500000000000000E-002  0.81250000000000000        0.0000000000000000     
   6.2500000000000000E-002  0.84375000000000000        0.0000000000000000     
   1.8749999999999999E-002  0.83125000000000004        0.0000000000000000     
   4.0625000000000001E-002  0.83437499999999998        0.0000000000000000     
   4.3749999999999997E-002  0.85624999999999996        0.0000000000000000     
   2.1874999999999999E-002  0.85312500000000002        0.0000000000000000     
   9.3750000000000000E-002  0.81250000000000000        0.0000000000000000     
  0.12500000000000000       0.81250000000000000        0.0000000000000000     
  0.12500000000000000       0.84375000000000000        0.0000000000000000     
   8.1250000000000003E-002  0.83125000000000004        0.0000000000000000     
  0.10312499999999999       0.83437499999999998        0.0000000000000000     
  0.10625000000000000       0.85624999999999996        0.0000000000000000     
   8.4375000000000006E-002  0.85312500000000002        0.0000000000000000     
   3.1250000000000000E-002  0.75000000000000000        0.0000000000000000     
   6.2500000000000000E-002  0.75000000000000000        0.0000000000000000     
   6.2500000000000000E-002  0.78125000000000000        0.0000000000000000     
   1.8749999999999999E-002  0.76875000000000004        0.0000000000000000     
   4.0625000000000001E-002  0.77187499999999998        0.0000000000000000     
   4.3749999999999997E-002  0.79374999999999996        0.0000000000000000     
   2.1874999999999999E-002  0.79062500000000002        0.0000000000000000     
   9.3750000000000000E-002  0.75000000000000000        0.0000000000000000     
  0.12500000000000000       0.75000000000000000        0.0000000000000000     
  0.12500000000000000       0.78125000000000000        0.0000000000000000     
   8.1250000000000003E-002  0.76875000000000004        0.0000000000000000     
  0.10312499999999999       0.77187499999999998        0.0000000000000000     
  0.10625000000000000       0.79374999999999996        0.0000000000000000     
   8.4375000000000006E-002  0.79062500000000002        0.0000000000000000     
  0.15625000000000000       0.81250000000000000        0.0000000000000000     
  0.18750000000000000       0.81250000000000000        0.0000000000000000     
  0.18750000000000000       0.84375000000000000        0.0000000000000000     
  0.14374999999999999       0.83125000000000004        0.0000000000000000     
  0.16562499999999999       0.83437499999999998        0.0000000000000000     
  0.16875000000000001       0.85624999999999996        0.0000000000000000     
  0.14687500000000001       0.85312500000000002        0.0000000000000000     
  0.21875000000000000       0.81250000000000000        0.0000000000000000     
  0.25000000000000000       0.81250000000000000        0.0000000000000000     
  0.25000000000000000       0.84375000000000000        0.0000000000000000     
  0.20624999999999999       0.83125000000000004        0.0000000000000000     
  0.22812499999999999       0.83437499999999998        0.0000000000000000     
  0.23125000000000001       0.85624999999999996        0.0000000000000000     
  0.20937500000000001       0.85312500000000002        0.0000000000000000     
  0.15625000000000000       0.75000000000000000        0.0000000000000000     
  0.18750000000000000       0.75000000000000000        0.0000000000000000     
  0.18750000000000000       0.78125000000000000        0.0000000000000000     
  0.14374999999999999       0.76875000000000004        0.0000000000000000     
  0.16562499999999999       0.77187499999999998        0.0000000000000000     
  0.16875000000000001       0.79374999999999996        0.0000000000000000     
  0.14687500000000001       0.79062500000000002        0.0000000000000000     
  0.21875000000000000       0.75000000000000000        0.0000000000000000     
  0.25000000000000000       0.75000000000000000        0.0000000000000000     
  0.25000000000000000       0.78125000000000000        0.0000000000000000     
  0.20624999999999999       0.76875000000000004        0.0000000000000000     
  0.22812499999999999       0.77187499999999998        0.0000000000000000     
  0.23125000000000001       0.79374999999999996        0.0000000000000000     
  0.20937500000000001       0.79062500000000002        0.0000000000000000     
  0.28125000000000000       0.93750000000000000        0.0000000000000000     
  0.31250000000000000       0.93750000000000000        0.0000000000000000     
  0.31250000000000000       0.96875000000000000        0.0000000000000000     
  0.26874999999999999       0.95625000000000004        0.0000000000000000     
  0.29062500000000002       0.95937499999999998        0.0000000000000000     
  0.29375000000000001       0.98124999999999996        0.0000000000000000     
  0.27187499999999998       0.97812500000000002        0.0000000000000000     
  0.34375000000000000       0.93750000000000000        0.0000000000000000     
  0.37500000000000000       0.93750000000000000        0.0000000000000000     
  0.37500000000000000       0.96875000000000000        0.0000000000000000     
  0.33124999999999999       0.95625000000000004        0.0000000000000000     
  0.35312500000000002       0.95937499999999998        0.0000000000000000     
  0.35625000000000001       0.98124999999999996        0.0000000000000000     
[...]
 CELL_DATA        3584
 SCALARS Endothelial_cells float
 LOOKUP_TABLE default
    0.99994866313530117452E+00
    0.99998835269645836021E+00
    0.99997864763076504957E+00
    0.99998777343432854181E+00
    0.99998915622865103270E+00
    0.99993922429092896298E+00
    0.99996608060400327123E+00
    0.99996211963387571231E+00
    0.99996246307324709868E+00
    0.99996618151887228798E+00
    0.99996451014583309647E+00
    0.99996966797050113041E+00
    0.99998235173162897116E+00
    0.99998322497070202264E+00
    0.99999665402138315784E+00
    0.10000032769802669197E+01
    0.99998468666905226954E+00
    0.99999055353972066129E+00
    0.99998998590041132672E+00
    0.99994016789476036777E+00
    0.99996582669582478875E+00
    0.99995851749244080153E+00
    0.99996648568788215616E+00
    0.99994771777187818618E+00
    0.99998925629345980504E+00
    0.99998499959634268297E+00
    0.99998377695790252595E+00
    0.99998289460562295172E+00
    0.99994952304167905588E+00
    0.99998939044001888821E+00
    0.99998120378319643731E+00
    0.99999290782111460718E+00
    0.10000011473689121022E+01
    0.99998169335390474366E+00
    0.99998552031228160608E+00
    0.99998624421620740943E+00
    0.99993731220360049239E+00
    0.99996339574059978084E+00
    0.99995895617809416045E+00
    0.99996877558688290755E+00
    0.99998277374835131681E+00
    0.99998546571096258440E+00
    0.99999820754223334163E+00
    0.10000068782551614355E+01
    0.99998773594370615747E+00
    0.99999585513393396408E+00
    0.10000049025146189319E+01
    0.99998412211428622243E+00
    0.99999236784213574314E+00
    0.10000058513852816411E+01
    0.99998964605485307633E+00
    0.99999626041430811352E+00
    0.10000088172021293076E+01
    0.99999073186754783293E+00
    0.99999365478667401330E+00
    0.99999418572553777640E+00
    0.99999797959897995803E+00
    0.10000041916647506302E+01
    0.99998524444979031145E+00
    0.99999095715441721488E+00
    0.99999048538259494023E+00
    0.99994052267383182198E+00
    0.99996634385255112054E+00
    0.99995931961799178200E+00
    0.99996761295509162260E+00
    0.99994891981257805202E+00
    0.99999061343964090742E+00
    0.99998701632649200643E+00
    0.99998470408598072456E+00
    0.99998367791124309623E+00
    0.99999816771082872258E+00
    0.10000043032102021723E+01
    0.99998530192737755673E+00
    0.99999099593079976422E+00
    0.99999053899010870161E+00
    0.99994055773606693727E+00
    0.99996640181696616612E+00
    0.99995942524042058519E+00
    0.99996779473380481562E+00
    0.99994917588018294996E+00
    0.99999082018300289310E+00
    0.99998731160180942545E+00
    0.99998482329116611389E+00
    0.99998377432127028008E+00
    0.99999815426068494606E+00
    0.10000075417290248403E+01
    0.99998828837867470565E+00
    0.99999626893047044440E+00
    0.10000054128417028565E+01
    0.99998449930142130349E+00
    0.99999292877009693381E+00
    0.10000066948372055009E+01
    0.99999067638889627130E+00
    0.99999611219124706629E+00
    0.10000069938470290687E+01
    0.99999110066848817535E+00
    0.99999408650470611448E+00
    0.99999485527173004318E+00
    0.99999833419836259285E+00
    0.10000076423415227289E+01
    0.99998830979239428096E+00
    0.99999628112706306915E+00
    0.10000054587551197027E+01
    0.99998453072233450811E+00
    0.99999298601576924739E+00
    0.10000068016435061935E+01
    0.99999086467540021506E+00
    0.99999638110359323484E+00
    0.10000072056166353640E+01
    0.99999140177325951395E+00
    0.99999420400518646002E+00
    0.99999494985140124914E+00
    0.99994986536212127071E+00
    0.99998986855132887541E+00
    0.99998152726694289338E+00
    0.99999295771236396124E+00
    0.10000018599422366705E+01
    0.99998221334463777143E+00
    0.99998738285090527089E+00
    0.99998758733034076585E+00
    0.99993849247722665918E+00
    0.99996451817371256876E+00
    0.99995974824586253416E+00
    0.99996928041646726548E+00
    0.99998353969821474063E+00
    0.99998636063639112503E+00
    0.99999697923163555213E+00
    0.10000070672362875168E+01
    0.99998810422727613112E+00
    0.99999638719037053924E+00
    0.10000057813618397073E+01
    0.99998543715925036768E+00
    0.99999449497337744575E+00
    0.10000070525427120494E+01
    0.99999024440996442387E+00
    0.99999508167887185550E+00
    0.10000061461928249074E+01
    0.99998930521166795593E+00
    0.99999412829268929936E+00
    0.99999519206183651310E+00
    0.99994989839070136384E+00
    0.99998991903162182115E+00
    0.99998156358559786572E+00
    0.99999301282917618661E+00
    0.10000019646555522446E+01
    0.99998238432191821623E+00
    0.99998765277930512507E+00
    0.99998778339316074515E+00
    0.99993873811137323759E+00
    0.99996469179175662134E+00
    0.99995984857595543449E+00
    0.99996933525969811107E+00
    0.99998363090902808725E+00
    0.99998647342558422135E+00
    0.99999701830061893393E+00
    0.10000072204361563077E+01
    0.99998812309973728052E+00
    0.99999641380398229806E+00
    0.10000059850042004594E+01
    0.99998561376475070261E+00
    0.99999478062977176229E+00
    0.10000073202785064730E+01
    0.99999013179139140117E+00
    0.99999522252996764227E+00
    0.10000063532215943685E+01
    0.99998936848743447126E+00
    0.99999473404702654555E+00
    0.99999581670536585865E+00
    0.99999849725365674846E+00
    0.10000080231050909596E+01
    0.99998861152625373450E+00
    0.99999673766966057364E+00
    0.10000062939864549083E+01
    0.99998580688667593197E+00
    0.99999506686917116749E+00
    0.10000079626910383102E+01
    0.99999141424552517865E+00
    0.99999719834512545980E+00
    0.10000078093400470713E+01
    0.99999163017457448621E+00
    0.99999487435426215320E+00
    0.99999577120907989780E+00
    0.99999820182299048454E+00
    0.10000075279781208692E+01
    0.99998712577225923326E+00
    0.99999632758250533993E+00
    0.10000062955835637979E+01
    0.99998556794896287236E+00
    0.99999504642604930549E+00
    0.10000079942994615223E+01
    0.99999158334192184139E+00
    0.99999744579961313828E+00
    0.10000079279706506341E+01
    0.99999179894196699170E+00
    0.99999477234661371394E+00
    0.99999566258965033594E+00
    0.99999825672604281124E+00
    0.10000075842813933580E+01
    0.99998737149101113442E+00
    0.99999666097409822818E+00
    0.10000064595539670531E+01
    0.99998549984115492339E+00
    0.99999521548341119281E+00
    0.10000080665385904233E+01
    0.99999164303687293476E+00
    0.99999735557000113406E+00
    0.10000078331487312067E+01
    0.99999160672903086855E+00
    0.99999475949466221092E+00
    0.99999566499640546446E+00
    0.99999082440548781037E+00
    0.99999618642941068281E+00
    0.99994245334933173908E+00
    0.99995221066101547258E+00
    0.99999269114921196522E+00
    0.99997642751901694158E+00
    0.99999344433593451154E+00
    0.10000074576568689366E+01
    0.99999099105418998157E+00
    0.99999676560393735425E+00
    0.10000072059368996236E+01
    0.99999005128417128851E+00
    0.99999044511486867570E+00
    0.99999119930997726335E+00
    0.99999818065603884865E+00
    0.10000043096012654065E+01
    0.99998530120027184775E+00
    0.99999099567991944770E+00
    0.99999054153639999054E+00
    0.99994055940877102362E+00
    0.99996640527876656801E+00
    0.99995943262130726481E+00
    0.99996780932302065104E+00
    0.99994919866724396584E+00
    0.99999083709107361440E+00
    0.99998733750858370684E+00
    0.99998483148597405723E+00
    0.99998378061619219714E+00
    0.99999816797154683634E+00
    0.10000043011156409811E+01
    0.99998527956613492140E+00
    0.99999098502099292851E+00
    0.99999053843439067446E+00
    0.99994055839858964063E+00
    0.99996640495127009363E+00
    0.99995943233759332358E+00
    0.99996780972995835679E+00
    0.99994919945137628048E+00
    0.99999083639009123115E+00
    0.99998733522965455034E+00
    0.99998482926887566347E+00
    0.99998377911599545254E+00
    0.99999817957230008325E+00
    0.10000074968641650131E+01
    0.99998793169473454423E+00
    0.99999602224153072427E+00
    0.10000053795478360819E+01
    0.99998449899951225017E+00
    0.99999297966974032281E+00
    0.10000067961337981703E+01
    0.99999087547251397368E+00
    0.99999639819047037026E+00
    0.10000071982294815864E+01
    0.99999138149709321244E+00
    0.99999416316098255209E+00
    0.99999491759241820876E+00
    0.99999787551841290423E+00
    0.10000065995960807363E+01
    0.99998632134690168538E+00
    0.99999520118729068319E+00
    0.10000050054754874296E+01
    0.99998434487458476294E+00
    0.99999292967483810468E+00
    0.10000067171555300227E+01
    0.99999084838152318966E+00
    0.99999635309039380804E+00
    0.10000070124745645828E+01
    0.99999100148567554580E+00
    0.99999384342405828185E+00
    0.99999468263990132222E+00
    0.99999812053292524983E+00
    0.10000042756640303843E+01
    0.99998522664440625540E+00
    0.99999096199775927563E+00
    0.99999053121587444526E+00
    0.99994055624012612160E+00
    0.99996640392593116875E+00
    0.99995943074480198032E+00
    0.99996780894389503125E+00
    0.99994919818732852512E+00
    0.99999083114175513209E+00
    0.99998732131996859174E+00
    0.99998482170756664011E+00
    0.99998377431213347766E+00
    0.99999804650748225221E+00
    0.10000042448816071072E+01
    0.99998517949812315564E+00
    0.99999094516911812836E+00
    0.99999052545212230303E+00
    0.99994055481390520246E+00
    0.99996640305191319964E+00
    0.99995942892313760542E+00
    0.99996780774291638139E+00
    0.99994919596475817514E+00
    0.99999082276608286524E+00
    0.99998729671399666508E+00
    0.99998481230678581966E+00
    0.99998376890400475503E+00
    0.99999575402818241532E+00
    0.10000076147036760510E+01
    0.99998348095904832089E+00
    0.99999461314401805190E+00
    0.10000053898169807276E+01
    0.99998405948210133953E+00
    0.99999281017392704918E+00
    0.10000064874926744007E+01
    0.99999075000570947225E+00
    0.99999616823009274125E+00
    0.10000063305032329541E+01
    0.99998956423015428197E+00
    0.99999319602914771288E+00
    0.99999425928598761892E+00
    0.99998921469799484374E+00
    0.10000057776517057295E+01
    0.99997908928470757850E+00
    0.99999310752001269176E+00
    0.10000050490640133294E+01
    0.99998387732402382877E+00
    0.99999270664066264303E+00
    0.10000062327158683040E+01
    0.99999059711587046095E+00
    0.99999585346139019393E+00
    0.10000065591512090624E+01
    0.99998813674257480688E+00
    0.99999234747590226569E+00
    0.99999373693264770324E+00
    0.99999313395339917143E+00
    0.10000037813777844509E+01
    0.99997064711789962477E+00
    0.99998661867061833242E+00
    0.10000035054572851134E+01
    0.99998378147001143468E+00
    0.99999485434584811649E+00
    0.10000073704626357696E+01
    0.99999126422290673943E+00
    0.99999703693187003140E+00
    0.10000066744084077364E+01
    0.99999032667207399250E+00
    0.99999267181851103636E+00
    0.99999400624352896561E+00
    0.99992350911432759109E+00
    0.99994841021510516565E+00
    0.99983877599802595260E+00
    0.99990488528454668504E+00
    0.99997433550790792989E+00
    0.99997192109487620382E+00
    0.99999132069665086497E+00
    0.10000043204862614221E+01
    0.99998978251851144972E+00
    0.99999373409704095383E+00
    0.10000011065165061996E+01
    0.99997248372724234500E+00
    0.99997501659773568861E+00
    0.99998041567687423470E+00
    0.99959183520030336911E+00
    0.99953045308073151798E+00
    0.99826187506972929864E+00
    0.99905547380005388369E+00
    0.99972573850939072670E+00
    0.99984621136714968426E+00
    0.99995206601902630883E+00
    0.99996527685918679129E+00
    0.99997920195438094737E+00
    0.99998047305404502705E+00
    0.99995289897007544333E+00
    0.99989884042341925507E+00
    0.99985307164968795224E+00
    0.99987699096806670340E+00
    0.99329710850026031732E+00
    0.99612916174316046281E+00
    0.99063642047991151696E+00
    0.99512791194219052393E+00
    0.99828320788531688112E+00
    0.99917470989415646532E+00
    0.99969566062714187993E+00
    0.99962943990331454280E+00
    0.99984983614668521135E+00
    0.99979790710547478128E+00
    0.99929532675068810654E+00
    0.99839870887379789099E+00
    0.99874008243418110897E+00
    0.99903285413239106827E+00
    0.99962353677733462032E+00
    0.99975038632087420698E+00
    0.99947103086223221258E+00
    0.99970278598131001591E+00
    0.99989666257056297738E+00
    0.99994303468719536454E+00
    0.99998026587524235786E+00
    0.99998519334905155986E+00
    0.99998222846016060483E+00
    0.99997870447785197623E+00
    0.99995136485952984540E+00
    0.99986587135395132986E+00
    0.99990204100165780421E+00
    0.99992758950098703519E+00
    0.99910466200752112709E+00
    0.99948725340272115414E+00
    0.99911365790045270074E+00
    0.99954300784192051665E+00
    0.99982806445959426789E+00
    0.99992230986892050026E+00
    0.99996969017757375564E+00
    0.99995982111882109056E+00
    0.99996764099971835460E+00
    0.99994863842684511557E+00
    0.99985921313375736297E+00
    0.99964827061831151855E+00
    0.99980020170668937318E+00
    0.99986099728427646482E+00
    0.98210967522091596749E+00
    0.98849093794341991170E+00
    0.97804391727458106498E+00
    0.98711555750851165403E+00
    0.99476236376629978420E+00
    0.99763523707183887623E+00
    0.99900475952504241839E+00
    0.99853941914419286352E+00
    0.99932329048811641137E+00
    0.99899263956588590929E+00
    0.99693485607156251405E+00
    0.99388598143428097398E+00
    0.99545765523566498434E+00
    0.99648925392525466993E+00
    0.96499189302252619260E+00
    0.97852876657483445211E+00
    0.96579395702912007593E+00
    0.98076051971245670202E+00
    0.99158703115086610502E+00
    0.99652663474068559069E+00
    0.99834632662555344851E+00
    0.99712827147036264819E+00
    0.99841570628097120466E+00
    0.99738945692063807336E+00
    0.99274541741936717099E+00
    0.98530429127653906818E+00
    0.99090439551272457841E+00
    0.99328288581980406224E+00
    0.99994989990514338007E+00
    0.99998992132728303783E+00
    0.99998156319806341674E+00
    0.99999301188180955702E+00
    0.10000019704314286884E+01
    0.99998239622428508611E+00
    0.99998767688881451399E+00
    0.99998779914819690973E+00
    0.99993875953869804096E+00
    0.99996470545359739113E+00
    0.99995985543445176091E+00
    0.99996933844866053853E+00
    0.99998363671040824130E+00
    0.99998648098322318045E+00
    0.99999698664413694260E+00
    0.10000071439735316314E+01
    0.99998786265112982186E+00
    0.99999600779291231145E+00
    0.10000058412067736047E+01
    0.99998545823798734578E+00
    0.99999476013561261478E+00
    0.10000073147379295868E+01
    0.99999014899535720868E+00
    0.99999523268229595363E+00
    0.10000063501643110531E+01
    0.99998936223922907374E+00
    0.99999471034698717009E+00
    0.99999578423930168825E+00
    0.99994989888682217494E+00
    0.99998991821036231631E+00
    0.99998155250522224868E+00
    0.99999299006806230405E+00
    0.10000019618857804993E+01
    0.99998238330507760452E+00
    0.99998767449377723437E+00
    0.99998779837174944785E+00
    0.99993876022289773786E+00
    0.99996470579698526482E+00
    0.99995985511818852309E+00
    0.99996933810645838303E+00
    0.99998363517999400152E+00
    0.99998647872596035935E+00
    0.99999683032832142882E+00
    0.10000067013820517214E+01
    0.99998679956513447653E+00
    0.99999598529501687594E+00
    0.10000057886283166830E+01
    0.99998415571543330937E+00
    0.99999438658412342917E+00
    0.10000070971453745017E+01
    0.99999010244611941101E+00
    0.99999520412157494320E+00
    0.10000062397129565461E+01
    0.99998931065885221514E+00
    0.99999401865963277736E+00
    0.99999502326850431277E+00
    0.99999683119682147847E+00
    0.10000062125619779696E+01
    0.99997531410576590005E+00
    0.99997853799507607775E+00
    0.10000004668995585710E+01
    0.99997878599921252718E+00
    0.99999452889452011828E+00
    0.10000075032707347322E+01
    0.99999123937057798894E+00
    0.99999703532168293663E+00
    0.10000071049566312542E+01
    0.99999075960636307769E+00
    0.99999267815882564303E+00
    0.99999314976515685238E+00
    0.99986260632597556697E+00
    0.99972948967089625416E+00
    0.99904193150259290590E+00
    0.99826850908471420620E+00
    0.99952503035788176078E+00
    0.99957572257984084185E+00
    0.99989932993041019671E+00
    0.99995162367917844737E+00
    0.99997814726254163897E+00
    0.99998396054495197749E+00
    0.99996499661830873240E+00
    0.99995024691620726376E+00
    0.99987544597501365473E+00
    0.99985242997804191223E+00
    0.99998604184504302772E+00
    0.99997751460200134943E+00
    0.99989229641068233523E+00
    0.99984565663746693964E+00
    0.99994496849581504527E+00
    0.99990970969482018127E+00
    0.99997372803533579599E+00
    0.10000001983875510536E+01
    0.99998921093079962130E+00
    0.99999513084252444894E+00
    0.10000039779725380384E+01
    0.99998826197570644947E+00
    0.99997888507637366917E+00
    0.99997479924886700786E+00
    0.99919214770629405376E+00
    0.99828705491368852076E+00
    0.99511357282439605321E+00
    0.99064224177913284830E+00
    0.99612539458215310084E+00
    0.99328348630437446332E+00
    0.99839728043768727339E+00
    0.99929350624389057245E+00
    0.99979860937757092376E+00
    0.99985607876832760521E+00
    0.99962939234230197005E+00
    0.99969400093106353111E+00
    0.99903110296150554603E+00
    0.99873916942689355825E+00
    0.99994989672816469994E+00
    0.99998991098251921450E+00
    0.99998152935983775080E+00
    0.99999293569711888985E+00
    0.10000019362111947085E+01
    0.99998233428386329447E+00
    0.99998766047460518891E+00
    0.99998779311418073412E+00
    0.99993875895349870753E+00
    0.99996470500842959961E+00
    0.99995985352488492293E+00
    0.99996933708098234561E+00
    0.99998363037318416247E+00
    0.99998647114933147950E+00
    0.99999651468832895240E+00
    0.10000069095043033762E+01
    0.99998526392140341112E+00
    0.99999199278256911683E+00
    0.10000048880860838985E+01
    0.99998137200063064167E+00
    0.99999414424513011213E+00
    0.10000066973093189038E+01
    0.99998991057345887334E+00
    0.99999509685043230789E+00
    0.10000059172966917487E+01
    0.99998918116644164300E+00
    0.99999301673062335194E+00
    0.99999379887338601947E+00
    0.99994989531217748358E+00
    0.99998990522786057600E+00
    0.99998151253338385391E+00
    0.99999288846495182348E+00
    0.10000019054339852609E+01
    0.99998226037045379044E+00
    0.99998763585733407844E+00
    0.99998778473833704883E+00
    0.99993875673324128517E+00
    0.99996470380946922418E+00
    0.99995985170721046753E+00
    0.99996933621289985084E+00
    0.99998362497028880913E+00
    0.99998646175252992041E+00
    0.99999633629724737904E+00
    0.10000069296447029465E+01
    0.99998385987605165059E+00
    0.99998730222471765572E+00
    0.10000037000102544038E+01
    0.99997561363389697586E+00
    0.99999256004702619105E+00
    0.10000067291148377890E+01
    0.99998962832657867228E+00
    0.99999494553447310086E+00
    0.10000056450162306820E+01
    0.99998907648877266574E+00
    0.99999231617291062246E+00
    0.99999281425130015499E+00
    0.99995755269052077896E+00
    0.99989997434013311306E+00
    0.99968978923422524563E+00
    0.99947770749402442547E+00
    0.99974745286911570474E+00
    0.99961034300675832842E+00
    0.99986573999561778603E+00
    0.99994977298388809661E+00
    0.99997690496061919507E+00
    0.99998801690916283569E+00
    0.99998490608185031103E+00
    0.99997784437882353270E+00
    0.99992596803764222102E+00
    0.99990161191094761861E+00
    0.99765302355111529220E+00
    0.99476629843186836766E+00
    0.98710113674451216426E+00
    0.97804952124109445499E+00
    0.98848760598922391640E+00
    0.98209671791803210272E+00
    0.99388387849633796911E+00
    0.99693304362808687902E+00
    0.99899455960993166492E+00
    0.99933035290024196939E+00
    0.99853961634524623925E+00
    0.99900316565463909146E+00