# vtk DataFile Version 3.0
LAPLACIEN  2D
ASCII
DATASET UNSTRUCTURED_GRID
 POINTS        1857  float
   3.1250000000000000E-002  0.93750000000000000        0.0000000000000000     
   6.2500000000000000E-002  0.93750000000000000        0.0000000000000000     
   6.2500000000000000E-002  0.96875000000000000        0.0000000000000000     
   1.8749999999999999E-002  0.95625000000000004        0.0000000000000000     
   4.0625000000000001E-002  0.95937499999999998        0.0000000000000000     
   4.3749999999999997E-002  0.98124999999999996        0.0000000000000000     
   2.1874999999999999E-002  0.97812500000000002        0.0000000000000000     
   9.3750000000000000E-002  0.93750000000000000        0.0000000000000000     
  0.12500000000000000       0.93750000000000000        0.0000000000000000     
  0.12500000000000000       0.96875000000000000        0.0000000000000000     
   8.1250000000000003E-002  0.95625000000000004        0.0000000000000000     
  0.10312499999999999       0.95937499999999998        0.0000000000000000     
  0.10625000000000000       0.98124999999999996        0.0000000000000000     
   8.4375000000000006E-002  0.97812500000000002        0.0000000000000000     
   3.1250000000000000E-002  0.87500000000000000        0.0000000000000000     
   6.2500000000000000E-002  0.87500000000000000        0.0000000000000000     
   6.2500000000000000E-002  0.90625000000000000        0.0000000000000000     
   1.8749999999999999E-002  0.89375000000000004        0.0000000000000000     
   4.0625000000000001E-002  0.89687499999999998        0.0000000000000000     
   4.3749999999999997E-002  0.91874999999999996        0.0000000000000000     
   2.1874999999999999E-002  0.91562500000000002        0.0000000000000000     
   9.3750000000000000E-002  0.87500000000000000        0.0000000000000000     
  0.12500000000000000       0.87500000000000000        0.0000000000000000     
  0.12500000000000000       0.90625000000000000        0.0000000000000000     
   8.1250000000000003E-002  0.89375000000000004        0.0000000000000000     
  0.10312499999999999       0.89687499999999998        0.0000000000000000     
  0.10625000000000000       0.91874999999999996        0.0000000000000000     
   8.4375000000000006E-002  0.91562500000000002        0.0000000000000000     
  0.15625000000000000       0.93750000000000000        0.0000000000000000     
  0.18750000000000000       0.93750000000000000        0.0000000000000000     
  0.18750000000000000       0.96875000000000000        0.0000000000000000     
  0.14374999999999999       0.95625000000000004        0.0000000000000000     
  0.16562499999999999       0.95937499999999998        0.0000000000000000     
  0.16875000000000001       0.98124999999999996        0.0000000000000000     
  0.14687500000000001       0.97812500000000002        0.0000000000000000     
  0.21875000000000000       0.93750000000000000        0.0000000000000000     
  0.25000000000000000       0.93750000000000000        0.0000000000000000     
  0.25000000000000000       0.96875000000000000        0.0000000000000000     
  0.20624999999999999       0.95625000000000004        0.0000000000000000     
  0.22812499999999999       0.95937499999999998        0.0000000000000000     
  0.23125000000000001       0.98124999999999996        0.0000000000000000     
  0.20937500000000001       0.97812500000000002        0.0000000000000000     
  0.15625000000000000       0.87500000000000000        0.0000000000000000     
  0.18750000000000000       0.87500000000000000        0.0000000000000000     
  0.18750000000000000       0.90625000000000000        0.0000000000000000     
  0.14374999999999999       0.89375000000000004        0.0000000000000000     
  0.16562499999999999       0.89687499999999998        0.0000000000000000     
  0.16875000000000001       0.91874999999999996        0.0000000000000000     
  0.14687500000000001       0.91562500000000002        0.0000000000000000     
  0.21875000000000000       0.87500000000000000        0.0000000000000000     
  0.25000000000000000       0.87500000000000000        0.0000000000000000     
  0.25000000000000000       0.90625000000000000        0.0000000000000000     
  0.20624999999999999       0.89375000000000004        0.0000000000000000     
  0.22812499999999999       0.89687499999999998        0.0000000000000000     
  0.23125000000000001       0.91874999999999996        0.0000000000000000     
  0.20937500000000001       0.91562500000000002        0.0000000000000000     
   3.1250000000000000E-002  0.81250000000000000        0.0000000000000000     
   6.2500000000000000E-002  0.81250000000000000        0.0000000000000000     
   6.2500000000000000E-002  0.84375000000000000        0.0000000000000000     
   1.8749999999999999E-002  0.83125000000000004        0.0000000000000000     
   4.0625000000000001E-002  0.83437499999999998        0.0000000000000000     
   4.3749999999999997E-002  0.85624999999999996        0.0000000000000000     
   2.1874999999999999E-002  0.85312500000000002        0.0000000000000000     
   9.3750000000000000E-002  0.81250000000000000        0.0000000000000000     
  0.12500000000000000       0.81250000000000000        0.0000000000000000     
  0.12500000000000000       0.84375000000000000        0.0000000000000000     
   8.1250000000000003E-002  0.83125000000000004        0.0000000000000000     
  0.10312499999999999       0.83437499999999998        0.0000000000000000     
  0.10625000000000000       0.85624999999999996        0.0000000000000000     
   8.4375000000000006E-002  0.85312500000000002        0.0000000000000000     
   3.1250000000000000E-002  0.75000000000000000        0.0000000000000000     
   6.2500000000000000E-002  0.75000000000000000        0.0000000000000000     
   6.2500000000000000E-002  0.78125000000000000        0.0000000000000000     
   1.8749999999999999E-002  0.76875000000000004        0.0000000000000000     
   4.0625000000000001E-002  0.77187499999999998        0.0000000000000000     
   4.3749999999999997E-002  0.79374999999999996        0.0000000000000000     
   2.1874999999999999E-002  0.79062500000000002        0.0000000000000000     
   9.3750000000000000E-002  0.75000000000000000        0.0000000000000000     
  0.12500000000000000       0.75000000000000000        0.0000000000000000     
  0.12500000000000000       0.78125000000000000        0.0000000000000000     
   8.1250000000000003E-002  0.76875000000000004        0.0000000000000000     
  0.10312499999999999       0.77187499999999998        0.0000000000000000     
  0.10625000000000000       0.79374999999999996        0.0000000000000000     
   8.4375000000000006E-002  0.79062500000000002        0.0000000000000000     
  0.15625000000000000       0.81250000000000000        0.0000000000000000     
  0.18750000000000000       0.81250000000000000        0.0000000000000000     
  0.18750000000000000       0.84375000000000000        0.0000000000000000     
  0.14374999999999999       0.83125000000000004        0.0000000000000000     
  0.16562499999999999       0.83437499999999998        0.0000000000000000     
  0.16875000000000001       0.85624999999999996        0.0000000000000000     
  0.14687500000000001       0.85312500000000002        0.0000000000000000     
  0.21875000000000000       0.81250000000000000        0.0000000000000000     
  0.25000000000000000       0.81250000000000000        0.0000000000000000     
  0.25000000000000000       0.84375000000000000        0.0000000000000000     
  0.20624999999999999       0.83125000000000004        0.0000000000000000     
  0.22812499999999999       0.83437499999999998        0.0000000000000000     
  0.23125000000000001       0.85624999999999996        0.0000000000000000     
  0.20937500000000001       0.85312500000000002        0.0000000000000000     
  0.15625000000000000       0.75000000000000000        0.0000000000000000     
  0.18750000000000000       0.75000000000000000        0.0000000000000000     
  0.18750000000000000       0.78125000000000000        0.0000000000000000     
  0.14374999999999999       0.76875000000000004        0.0000000000000000     
  0.16562499999999999       0.77187499999999998        0.0000000000000000     
  0.16875000000000001       0.79374999999999996        0.0000000000000000     
  0.14687500000000001       0.79062500000000002        0.0000000000000000     
  0.21875000000000000       0.75000000000000000        0.0000000000000000     
  0.25000000000000000       0.75000000000000000        0.0000000000000000     
  0.25000000000000000       0.78125000000000000        0.0000000000000000     
  0.20624999999999999       0.76875000000000004        0.0000000000000000     
  0.22812499999999999       0.77187499999999998        0.0000000000000000     
  0.23125000000000001       0.79374999999999996        0.0000000000000000     
  0.20937500000000001       0.79062500000000002        0.0000000000000000     
  0.28125000000000000       0.93750000000000000        0.0000000000000000     
  0.31250000000000000       0.93750000000000000        0.0000000000000000     
  0.31250000000000000       0.96875000000000000        0.0000000000000000     
  0.26874999999999999       0.95625000000000004        0.0000000000000000     
  0.29062500000000002       0.95937499999999998        0.0000000000000000     
  0.29375000000000001       0.98124999999999996        0.0000000000000000     
  0.27187499999999998       0.97812500000000002        0.0000000000000000     
  0.34375000000000000       0.93750000000000000        0.0000000000000000     
  0.37500000000000000       0.93750000000000000        0.0000000000000000     
  0.37500000000000000       0.96875000000000000        0.0000000000000000     
  0.33124999999999999       0.95625000000000004        0.0000000000000000     
  0.35312500000000002       0.95937499999999998        0.0000000000000000     
  0.35625000000000001       0.98124999999999996        0.0000000000000000     
[...]
 CELL_DATA        3584
 SCALARS Endothelial_cells float
 LOOKUP_TABLE default
    0.99994049516614047501E+00
    0.99997956266594800745E+00
    0.99997223846913774192E+00
    0.99998150057214107989E+00
    0.99998053995318292309E+00
    0.99993159840698087049E+00
    0.99995911735803411080E+00
    0.99995246932115711136E+00
    0.99995685058327732353E+00
    0.99996091731673508729E+00
    0.99995650144708625451E+00
    0.99996293901855715092E+00
    0.99997186461979481464E+00
    0.99997203106374721315E+00
    0.99999215000153429678E+00
    0.99999785009093467014E+00
    0.99998009494415995846E+00
    0.99998521776255844262E+00
    0.99998278450483291113E+00
    0.99993278851208611258E+00
    0.99995934914855311160E+00
    0.99995179805908429582E+00
    0.99995907731947852870E+00
    0.99993990069549298916E+00
    0.99998198578796571034E+00
    0.99997930423831093982E+00
    0.99997721435774400423E+00
    0.99997608515583058519E+00
    0.99994145766295394751E+00
    0.99998166174574842913E+00
    0.99997558778895845322E+00
    0.99998867630014198760E+00
    0.99999596890927255899E+00
    0.99997752246197690873E+00
    0.99997930826617409394E+00
    0.99997852445254287179E+00
    0.99992938247510843031E+00
    0.99995597375998546141E+00
    0.99995213987877673567E+00
    0.99996203466085675782E+00
    0.99997573508098325235E+00
    0.99997868388171040621E+00
    0.99999516240441832515E+00
    0.10000035791561785459E+01
    0.99998424823718012888E+00
    0.99999233470548787306E+00
    0.10000015125991894571E+01
    0.99998060974918245858E+00
    0.99998809209392902630E+00
    0.10000020903983739551E+01
    0.99998592457081192375E+00
    0.99999267034582872693E+00
    0.10000061218935947238E+01
    0.99998769042910851113E+00
    0.99999113794243577047E+00
    0.99999144630772618392E+00
    0.99999364693970327345E+00
    0.99999895445695496932E+00
    0.99998080432167912868E+00
    0.99998574821255292733E+00
    0.99998342658045236142E+00
    0.99993325505952601606E+00
    0.99996000543647878267E+00
    0.99995277166949281256E+00
    0.99996036902664831025E+00
    0.99994125654163790173E+00
    0.99998360133796271310E+00
    0.99998184108275911530E+00
    0.99997834715182154497E+00
    0.99997705475109377460E+00
    0.99999390643113794663E+00
    0.99999911514065698004E+00
    0.99998088137466045744E+00
    0.99998580278986615166E+00
    0.99998350935880231383E+00
    0.99993331274464780645E+00
    0.99996009697596810462E+00
    0.99995292779304012498E+00
    0.99996062395066731554E+00
    0.99994160363042494666E+00
    0.99998388829214956974E+00
    0.99998223951157538814E+00
    0.99997852094017636304E+00
    0.99997719845715671294E+00
    0.99999458301593902032E+00
    0.10000040471034890022E+01
    0.99998486159414523566E+00
    0.99999282798513167148E+00
    0.10000021081173275928E+01
    0.99998103257211257144E+00
    0.99998879119061123699E+00
    0.10000030134823985062E+01
    0.99998700470293422349E+00
    0.99999319533806774185E+00
    0.10000048356367841063E+01
    0.99998774497180409337E+00
    0.99999139859322672130E+00
    0.99999207547470014834E+00
    0.99999459615791774780E+00
    0.10000039336786887834E+01
    0.99998432561544747799E+00
    0.99999233401241460761E+00
    0.10000019942836388953E+01
    0.99998098724908546231E+00
    0.99998885167845319444E+00
    0.10000031386661252242E+01
    0.99998722399208683775E+00
    0.99999278853953033064E+00
    0.10000039220643617277E+01
    0.99998804443379107898E+00
    0.99999142202016622072E+00
    0.99999212676848214798E+00
    0.99994190433554064334E+00
    0.99998224227251486518E+00
    0.99997585450474368862E+00
    0.99998821035553975278E+00
    0.99999656575828643756E+00
    0.99997776326236442745E+00
    0.99998147019167016314E+00
    0.99998004184868594102E+00
    0.99993065813060444391E+00
    0.99995723723540008709E+00
    0.99995309022658218634E+00
    0.99996267277276384977E+00
    0.99997665349533848556E+00
    0.99997970877426645142E+00
    0.99999310103932437244E+00
    0.10000035672413671861E+01
    0.99998465343457421106E+00
    0.99999297521586671955E+00
    0.10000026543288367264E+01
    0.99998215285698099919E+00
    0.99999083149821754724E+00
    0.10000036664294966737E+01
    0.99998699662630419205E+00
    0.99999109719884360370E+00
    0.10000026513641548931E+01
    0.99998524848317249525E+00
    0.99999184007226094018E+00
    0.99999294315168540948E+00
    0.99994195890776216284E+00
    0.99998232062184078117E+00
    0.99997590648864564944E+00
    0.99998828904702041775E+00
    0.99999671289770408755E+00
    0.99997796150886408828E+00
    0.99998177889763939508E+00
    0.99998030692111505857E+00
    0.99993099022462417214E+00
    0.99995748101813441977E+00
    0.99995323893293186490E+00
    0.99996275971508996605E+00
    0.99997678971176584550E+00
    0.99997987253746201119E+00
    0.99999307972214490636E+00
    0.10000035850466535425E+01
    0.99998420365255169528E+00
    0.99999236867826502007E+00
    0.10000026622121234166E+01
    0.99998217405498612820E+00
    0.99999113477970380526E+00
    0.10000038655391054743E+01
    0.99998645594824064897E+00
    0.99999117964358619215E+00
    0.10000028766330570917E+01
    0.99998532881744117695E+00
    0.99999219823346008340E+00
    0.99999330359819693648E+00
    0.99999475044883046060E+00
    0.10000042549268004510E+01
    0.99998432816519755573E+00
    0.99999294877963740280E+00
    0.10000028912393748026E+01
    0.99998233861635321684E+00
    0.99999144800713202219E+00
    0.10000045258306178297E+01
    0.99998804996321599692E+00
    0.99999375248039912289E+00
    0.10000046147313710332E+01
    0.99998830698878726775E+00
    0.99999216322231188059E+00
    0.99999303652717452806E+00
    0.99999213190343527735E+00
    0.10000021265185317088E+01
    0.99997177985363272512E+00
    0.99998381836059191397E+00
    0.10000002211174017219E+01
    0.99997993207955848671E+00
    0.99999128276343451915E+00
    0.10000039462830527803E+01
    0.99998786439252551617E+00
    0.99999361493239635745E+00
    0.10000038166046669730E+01
    0.99998746664890625357E+00
    0.99999029531031580209E+00
    0.99999127446434854516E+00
    0.99999333032332005100E+00
    0.10000029832617887138E+01
    0.99997265664096879334E+00
    0.99997995770415948336E+00
    0.99999901934982593499E+00
    0.99997807972402585897E+00
    0.99999118261846831057E+00
    0.10000038809753681868E+01
    0.99998789775743324171E+00
    0.99999355558341174177E+00
    0.10000038965006334823E+01
    0.99998714495904317268E+00
    0.99999015724973117081E+00
    0.99999089209077685059E+00
    0.99990406494809680460E+00
    0.99987363548511765110E+00
    0.99964535278327526502E+00
    0.99965552904242238608E+00
    0.99986919121216277784E+00
    0.99988761017161453815E+00
    0.99996257424629986232E+00
    0.99998303074471051044E+00
    0.99998144145726519660E+00
    0.99998485931011793504E+00
    0.99998353712892384948E+00
    0.99996164153621469595E+00
    0.99993469200845952471E+00
    0.99993519517073059522E+00
    0.99999387576014175938E+00
    0.99999908233023526716E+00
    0.99998077135204122001E+00
    0.99998571618546538975E+00
    0.99998349140169240368E+00
    0.99993330637944199957E+00
    0.99996010013874303546E+00
    0.99995293823882547279E+00
    0.99996064985812160852E+00
    0.99994164214588110440E+00
    0.99998391105928774447E+00
    0.99998226845473348057E+00
    0.99997852170417245166E+00
    0.99997719928525441446E+00
    0.99999325408082828659E+00
    0.99999885376946673343E+00
    0.99998030620088784737E+00
    0.99998530368050619899E+00
    0.99998338748376680574E+00
    0.99993326794268122537E+00
    0.99996008128057878306E+00
    0.99995291633255256603E+00
    0.99996064041616827822E+00
    0.99994163058066820593E+00
    0.99998385375290843591E+00
    0.99998185833785924181E+00
    0.99997844535309088343E+00
    0.99997714253414893282E+00
    0.99999405808350239067E+00
    0.10000042288500536891E+01
    0.99998211493575617226E+00
    0.99999244133953402169E+00
    0.10000022819950147301E+01
    0.99998037290151953194E+00
    0.99998862372326569048E+00
    0.10000028551957369505E+01
    0.99998714330482019186E+00
    0.99999268020782350330E+00
    0.10000034429744262265E+01
    0.99998730021064119455E+00
    0.99999063387630038324E+00
    0.99999145962785596087E+00
    0.99998375387877269649E+00
    0.99999869610865599334E+00
    0.99996356866198587987E+00
    0.99998300491310709859E+00
    0.99999886660389569748E+00
    0.99997870633678853647E+00
    0.99998811917964836038E+00
    0.10000023573413423517E+01
    0.99998653727801767310E+00
    0.99999182577564749153E+00
    0.10000031121322143779E+01
    0.99998566065123006830E+00
    0.99998819301896024747E+00
    0.99998968070824933996E+00
    0.99999164614393643014E+00
    0.99999824986615049038E+00
    0.99997947498532491206E+00
    0.99998473168815649181E+00
    0.99998319747280350889E+00
    0.99993320145725805848E+00
    0.99996004385440639961E+00
    0.99995286396204274837E+00
    0.99996060926838292726E+00
    0.99994158261980581326E+00
    0.99998362424125175618E+00
    0.99998080883097006932E+00
    0.99997824665632861763E+00
    0.99997701070967248693E+00
    0.99999140513426143517E+00
    0.99999765720775080080E+00
    0.99997877817190361505E+00
    0.99998440950561062746E+00
    0.99998300842181053749E+00
    0.99993316051563174707E+00
    0.99995997279440140826E+00
    0.99995229366228854939E+00
    0.99996052908285426586E+00
    0.99994151106841155929E+00
    0.99998336221723627126E+00
    0.99998005007012058520E+00
    0.99997789715400431376E+00
    0.99997642328100855291E+00
    0.99994243071272437273E+00
    0.99997374333078048458E+00
    0.99991700020496532275E+00
    0.99995823023270391516E+00
    0.99998922332290862691E+00
    0.99997551142503948718E+00
    0.99998717153939642444E+00
    0.10000016012133787768E+01
    0.99998489439640980692E+00
    0.99998947500021329038E+00
    0.99999983245194057346E+00
    0.99997314317748953183E+00
    0.99998052390844971438E+00
    0.99998448744513801500E+00
    0.99988095041609781344E+00
    0.99994327223710932628E+00
    0.99987641804601057327E+00
    0.99993757241885294906E+00
    0.99998105776359214047E+00
    0.99997316185546480938E+00
    0.99998600438031681747E+00
    0.99999913174368759705E+00
    0.99998379379801149991E+00
    0.99998564980545212588E+00
    0.99998940191619090090E+00
    0.99994722177622119563E+00
    0.99996895019359610668E+00
    0.99997713002217325506E+00
    0.99992212541627989442E+00
    0.99993149168514727787E+00
    0.99981074363676492034E+00
    0.99986247365598934778E+00
    0.99995250168934768364E+00
    0.99995448886513171871E+00
    0.99998280292805330483E+00
    0.99999693670234612863E+00
    0.99998544670783617860E+00
    0.99998887551920423444E+00
    0.99999560462192171872E+00
    0.99996915207952508098E+00
    0.99996510677296768232E+00
    0.99996944850812952144E+00
    0.99947546817884147519E+00
    0.99955835935870085418E+00
    0.99907951518284221493E+00
    0.99936271210115346086E+00
    0.99974323995688363365E+00
    0.99985326308105970661E+00
    0.99994252807946504280E+00
    0.99994173445293510483E+00
    0.99996296092712866344E+00
    0.99995547006034990467E+00
    0.99989632786162307987E+00
    0.99979981971960718568E+00
    0.99980610556606297479E+00
    0.99983891387737533485E+00
    0.99821095977370333241E+00
    0.99795473197332740245E+00
    0.99447063229920162897E+00
    0.99619820185595664430E+00
    0.99857166904899263837E+00
    0.99915410695819883991E+00
    0.99967639793978801954E+00
    0.99967833915568926617E+00
    0.99986631193423936015E+00
    0.99985268422206541317E+00
    0.99959638140544115892E+00
    0.99941720394628497104E+00
    0.99917700518367735807E+00
    0.99926415686101011104E+00
    0.98260752515346483360E+00
    0.98753989324260094129E+00
    0.97481649362939681858E+00
    0.98391512464497776769E+00
    0.99322886605728755161E+00
    0.99633443367506069333E+00
    0.99842258442288556175E+00
    0.99808662418005222872E+00
    0.99914051970472284037E+00
    0.99889654271463335089E+00
    0.99684031876734613409E+00
    0.99436646169118059202E+00
    0.99489795108024714487E+00
    0.99578928366246177717E+00
    0.99806096294025103965E+00
    0.99857099378495450814E+00
    0.99746356446149364583E+00
    0.99838057671074809107E+00
    0.99930572501682002340E+00
    0.99966422344857075455E+00
    0.99985445501182657058E+00
    0.99979735040212691644E+00
    0.99988870983794675418E+00
    0.99983824101499618742E+00
    0.99957077081576983790E+00
    0.99919317070582291951E+00
    0.99937353882540036487E+00
    0.99950727067251510238E+00
    0.99599341161368715181E+00
    0.99743557542958705131E+00
    0.99606962431723777840E+00
    0.99768972282355772307E+00
    0.99896068694337503135E+00
    0.99954766774008685370E+00
    0.99978110215575333175E+00
    0.99963791458701856119E+00
    0.99978146439134396584E+00
    0.99964654091185312090E+00
    0.99908272974814449352E+00
    0.99817038559293791433E+00
    0.99886035099597569875E+00
    0.99914931490798986058E+00
    0.95424342628372182951E+00
    0.96677771812712653965E+00
    0.94461340609210187047E+00
    0.96276972772671853829E+00
    0.98255056883686808789E+00
    0.99104110220186691915E+00
    0.99569887027767989274E+00
    0.99401715745968455273E+00
    0.99687938769087836022E+00
    0.99565194909339038709E+00
    0.98883722109345817408E+00
    0.98056093360085216926E+00
    0.98451815578525203598E+00
    0.98740789256241445759E+00
    0.91841099327697439669E+00
    0.94401856923673654887E+00
    0.91971952904195453105E+00
    0.94813392327588741360E+00
    0.97402535701087089581E+00
    0.98761033805913522876E+00
    0.99338438518014715584E+00
    0.98944470536114970116E+00
    0.99357254143179940531E+00
    0.99026613662227369606E+00
    0.97700297116734924341E+00
    0.95876517909606651102E+00
    0.97225899811350080526E+00
    0.97829780055317783205E+00
    0.99994195220974047000E+00
    0.99998230252246245175E+00
    0.99997583779160703621E+00
    0.99998817877307155655E+00
    0.99999667909483491712E+00
    0.99997792934322238256E+00
    0.99998180539044523307E+00
    0.99998032784807855400E+00
    0.99993102653850673978E+00
    0.99995750534780647456E+00
    0.99995324842943855703E+00
    0.99996276233759961993E+00
    0.99997678965208447455E+00
    0.99997987220274742182E+00
    0.99999243191127384911E+00
    0.10000036616670369138E+01
    0.99998223561545795945E+00
    0.99999114223235241461E+00
    0.10000026424986605544E+01
    0.99998039249495496161E+00
    0.99999100592826506428E+00
    0.10000033612601031408E+01
    0.99998635160117166354E+00
    0.99999109665272201131E+00
    0.10000025436635586740E+01
    0.99998509685927494672E+00
    0.99999094840327962253E+00
    0.99999201672731474755E+00
    0.99994191463534465303E+00
    0.99998221021168987033E+00
    0.99997557809078785329E+00
    0.99998771690582888283E+00
    0.99999646084149163006E+00
    0.99997761580919075630E+00
    0.99998170626286719820E+00
    0.99998028079628875631E+00
    0.99993101487636815161E+00
    0.99995749575370496132E+00
    0.99995322646554429813E+00
    0.99996274347116398395E+00
    0.99997673343720328010E+00
    0.99997979618534216240E+00
    0.99999040462520871753E+00
    0.10000013812104278088E+01
    0.99997143874741500902E+00
    0.99997105893237459018E+00
    0.99999530485027932070E+00
    0.99996973105612685373E+00
    0.99998848594864053752E+00
    0.10000031627129424283E+01
    0.99998553828378944353E+00
    0.99999049297845021833E+00
    0.10000018097283718266E+01
    0.99998416205898066345E+00
    0.99998829660398858010E+00
    0.99998853629907658025E+00
    0.99996974209232514230E+00
    0.99995573825346562025E+00
    0.99984914464822416402E+00
    0.99981719361553045289E+00
    0.99992654279505843729E+00
    0.99990723242941492721E+00
    0.99996969968200977164E+00
    0.99999434651792173945E+00
    0.99998509212411423874E+00
    0.99998990650365005006E+00
    0.99999682000565226492E+00
    0.99998092278875649885E+00
    0.99996788808484515787E+00
    0.99996457647326353335E+00
    0.99917207189340351281E+00
    0.99857544558187893990E+00
    0.99618354650859985977E+00
    0.99447654707054000678E+00
    0.99794822369722646638E+00
    0.99819379606835267893E+00
    0.99941590632233345826E+00
    0.99959433912010620116E+00
    0.99985353814762656377E+00
    0.99987201081100807176E+00
    0.99967841791604594714E+00
    0.99967515986320798493E+00
    0.99926224924268192140E+00
    0.99917553669652958703E+00
    0.99986971011922254338E+00
    0.99974661947266507678E+00
    0.99934856952129902385E+00
    0.99908555759963391107E+00
    0.99955506341379607438E+00
    0.99946223590875094001E+00
    0.99979844845010701349E+00
    0.99989427985413892319E+00
    0.99995528486824036829E+00
    0.99996866135905237982E+00
    0.99994174053924989032E+00
    0.99994108447199425704E+00
    0.99983714867299300355E+00
    0.99980527502289595621E+00
    0.99635301817512811340E+00
    0.99323271237368926379E+00
    0.98390015234629901730E+00
    0.97482165465384795766E+00
    0.98753624794464223147E+00
    0.98259448152542983035E+00
    0.99436360488594166540E+00
    0.99683826284253884698E+00
    0.99889920447978597373E+00
    0.99914760999599339097E+00
    0.99808709311197751912E+00
    0.99842134666506499041E+00
    0.99578746425822961541E+00
    0.99489681277033403806E+00
    0.99994184993568457909E+00
    0.99998203429768861561E+00
    0.99997510329641581261E+00
    0.99998721905054410719E+00
    0.99999593597001545930E+00
    0.99997671669473153777E+00
    0.99998138949818049515E+00
    0.99998014143263191933E+00
    0.99993097131668462474E+00
    0.99995746488917758299E+00
    0.99995317426407437367E+00
    0.99996270615695059814E+00
    0.99997660435302038184E+00
    0.99997960998772839059E+00
    0.99998658307330123840E+00
    0.99999193396885810436E+00
    0.99994627513785661055E+00
    0.99992412101232752697E+00
    0.99997111902153434926E+00
    0.99992937295919503971E+00
    0.99997399380679885539E+00
    0.99999841240452902458E+00
    0.99998335096151369505E+00
    0.99998919753907189456E+00
    0.10000008777076143662E+01
    0.99998292014570189234E+00
    0.99998278966060760720E+00
    0.99998029468734006553E+00
    0.99994181073269172710E+00
    0.99998190567154565667E+00
    0.99997481939229293513E+00
    0.99998709054154055753E+00
    0.99999540515569207422E+00
    0.99997564187039134076E+00
    0.99998090621818080947E+00
    0.99997994833594172626E+00
    0.99993090620858926520E+00
    0.99995742423358868756E+00
    0.99995312084051057866E+00
    0.99996267705738406395E+00
    0.99997647429394509455E+00
    0.99997940486050362896E+00
    0.99998418982429215784E+00
    0.99998421474792686947E+00
    0.99992835534859436653E+00
    0.99988367980002823554E+00
    0.99994093149361884532E+00
    0.99986819680993888060E+00
    0.99994756365747128335E+00
    0.99998755008753792417E+00
    0.99998060312090819579E+00
    0.99998839499643532580E+00
    0.99999843757263329191E+00
    0.99998226704030501732E+00
    0.99997542004501294155E+00
    0.99996861935197922655E+00
    0.99968101586017055205E+00
    0.99930915183038004912E+00
    0.99836620928935215780E+00
    0.99746951128592209468E+00
    0.99856791096759478510E+00
    0.99804808283611323727E+00
    0.99919104207371101101E+00
    0.99956864718230664657E+00
    0.99983940022824102645E+00
    0.99989520649656082885E+00
    0.99979753822536432395E+00
    0.99985303646000334155E+00
    0.99950547895326358194E+00
    0.99937265159539934167E+00
    0.99105980837698615105E+00
    0.98255457301344217846E+00
    0.96275508892766314961E+00
    0.94461807686758181291E+00
    0.96677438787546321475E+00
    0.95423110438130120947E+00
    0.98055773671630741539E+00
    0.98883534334131950594E+00
    0.99565543199916595185E+00
    0.99688707936816178812E+00
    0.99401791485120161163E+00
    0.99569770837130533447E+00