# vtk DataFile Version 3.0
LAPLACIEN  2D
ASCII
DATASET UNSTRUCTURED_GRID
 POINTS        1857  float
   3.1250000000000000E-002  0.93750000000000000        0.0000000000000000     
   6.2500000000000000E-002  0.93750000000000000        0.0000000000000000     
   6.2500000000000000E-002  0.96875000000000000        0.0000000000000000     
   1.8749999999999999E-002  0.95625000000000004        0.0000000000000000     
   4.0625000000000001E-002  0.95937499999999998        0.0000000000000000     
   4.3749999999999997E-002  0.98124999999999996        0.0000000000000000     
   2.1874999999999999E-002  0.97812500000000002        0.0000000000000000     
   9.3750000000000000E-002  0.93750000000000000        0.0000000000000000     
  0.12500000000000000       0.93750000000000000        0.0000000000000000     
  0.12500000000000000       0.96875000000000000        0.0000000000000000     
   8.1250000000000003E-002  0.95625000000000004        0.0000000000000000     
  0.10312499999999999       0.95937499999999998        0.0000000000000000     
  0.10625000000000000       0.98124999999999996        0.0000000000000000     
   8.4375000000000006E-002  0.97812500000000002        0.0000000000000000     
   3.1250000000000000E-002  0.87500000000000000        0.0000000000000000     
   6.2500000000000000E-002  0.87500000000000000        0.0000000000000000     
   6.2500000000000000E-002  0.90625000000000000        0.0000000000000000     
   1.8749999999999999E-002  0.89375000000000004        0.0000000000000000     
   4.0625000000000001E-002  0.89687499999999998        0.0000000000000000     
   4.3749999999999997E-002  0.91874999999999996        0.0000000000000000     
   2.1874999999999999E-002  0.91562500000000002        0.0000000000000000     
   9.3750000000000000E-002  0.87500000000000000        0.0000000000000000     
  0.12500000000000000       0.87500000000000000        0.0000000000000000     
  0.12500000000000000       0.90625000000000000        0.0000000000000000     
   8.1250000000000003E-002  0.89375000000000004        0.0000000000000000     
  0.10312499999999999       0.89687499999999998        0.0000000000000000     
  0.10625000000000000       0.91874999999999996        0.0000000000000000     
   8.4375000000000006E-002  0.91562500000000002        0.0000000000000000     
  0.15625000000000000       0.93750000000000000        0.0000000000000000     
  0.18750000000000000       0.93750000000000000        0.0000000000000000     
  0.18750000000000000       0.96875000000000000        0.0000000000000000     
  0.14374999999999999       0.95625000000000004        0.0000000000000000     
  0.16562499999999999       0.95937499999999998        0.0000000000000000     
  0.16875000000000001       0.98124999999999996        0.0000000000000000     
  0.14687500000000001       0.97812500000000002        0.0000000000000000     
  0.21875000000000000       0.93750000000000000        0.0000000000000000     
  0.25000000000000000       0.93750000000000000        0.0000000000000000     
  0.25000000000000000       0.96875000000000000        0.0000000000000000     
  0.20624999999999999       0.95625000000000004        0.0000000000000000     
  0.22812499999999999       0.95937499999999998        0.0000000000000000     
  0.23125000000000001       0.98124999999999996        0.0000000000000000     
  0.20937500000000001       0.97812500000000002        0.0000000000000000     
  0.15625000000000000       0.87500000000000000        0.0000000000000000     
  0.18750000000000000       0.87500000000000000        0.0000000000000000     
  0.18750000000000000       0.90625000000000000        0.0000000000000000     
  0.14374999999999999       0.89375000000000004        0.0000000000000000     
  0.16562499999999999       0.89687499999999998        0.0000000000000000     
  0.16875000000000001       0.91874999999999996        0.0000000000000000     
  0.14687500000000001       0.91562500000000002        0.0000000000000000     
  0.21875000000000000       0.87500000000000000        0.0000000000000000     
  0.25000000000000000       0.87500000000000000        0.0000000000000000     
  0.25000000000000000       0.90625000000000000        0.0000000000000000     
  0.20624999999999999       0.89375000000000004        0.0000000000000000     
  0.22812499999999999       0.89687499999999998        0.0000000000000000     
  0.23125000000000001       0.91874999999999996        0.0000000000000000     
  0.20937500000000001       0.91562500000000002        0.0000000000000000     
   3.1250000000000000E-002  0.81250000000000000        0.0000000000000000     
   6.2500000000000000E-002  0.81250000000000000        0.0000000000000000     
   6.2500000000000000E-002  0.84375000000000000        0.0000000000000000     
   1.8749999999999999E-002  0.83125000000000004        0.0000000000000000     
   4.0625000000000001E-002  0.83437499999999998        0.0000000000000000     
   4.3749999999999997E-002  0.85624999999999996        0.0000000000000000     
   2.1874999999999999E-002  0.85312500000000002        0.0000000000000000     
   9.3750000000000000E-002  0.81250000000000000        0.0000000000000000     
  0.12500000000000000       0.81250000000000000        0.0000000000000000     
  0.12500000000000000       0.84375000000000000        0.0000000000000000     
   8.1250000000000003E-002  0.83125000000000004        0.0000000000000000     
  0.10312499999999999       0.83437499999999998        0.0000000000000000     
  0.10625000000000000       0.85624999999999996        0.0000000000000000     
   8.4375000000000006E-002  0.85312500000000002        0.0000000000000000     
   3.1250000000000000E-002  0.75000000000000000        0.0000000000000000     
   6.2500000000000000E-002  0.75000000000000000        0.0000000000000000     
   6.2500000000000000E-002  0.78125000000000000        0.0000000000000000     
   1.8749999999999999E-002  0.76875000000000004        0.0000000000000000     
   4.0625000000000001E-002  0.77187499999999998        0.0000000000000000     
   4.3749999999999997E-002  0.79374999999999996        0.0000000000000000     
   2.1874999999999999E-002  0.79062500000000002        0.0000000000000000     
   9.3750000000000000E-002  0.75000000000000000        0.0000000000000000     
  0.12500000000000000       0.75000000000000000        0.0000000000000000     
  0.12500000000000000       0.78125000000000000        0.0000000000000000     
   8.1250000000000003E-002  0.76875000000000004        0.0000000000000000     
  0.10312499999999999       0.77187499999999998        0.0000000000000000     
  0.10625000000000000       0.79374999999999996        0.0000000000000000     
   8.4375000000000006E-002  0.79062500000000002        0.0000000000000000     
  0.15625000000000000       0.81250000000000000        0.0000000000000000     
  0.18750000000000000       0.81250000000000000        0.0000000000000000     
  0.18750000000000000       0.84375000000000000        0.0000000000000000     
  0.14374999999999999       0.83125000000000004        0.0000000000000000     
  0.16562499999999999       0.83437499999999998        0.0000000000000000     
  0.16875000000000001       0.85624999999999996        0.0000000000000000     
  0.14687500000000001       0.85312500000000002        0.0000000000000000     
  0.21875000000000000       0.81250000000000000        0.0000000000000000     
  0.25000000000000000       0.81250000000000000        0.0000000000000000     
  0.25000000000000000       0.84375000000000000        0.0000000000000000     
  0.20624999999999999       0.83125000000000004        0.0000000000000000     
  0.22812499999999999       0.83437499999999998        0.0000000000000000     
  0.23125000000000001       0.85624999999999996        0.0000000000000000     
  0.20937500000000001       0.85312500000000002        0.0000000000000000     
  0.15625000000000000       0.75000000000000000        0.0000000000000000     
  0.18750000000000000       0.75000000000000000        0.0000000000000000     
  0.18750000000000000       0.78125000000000000        0.0000000000000000     
  0.14374999999999999       0.76875000000000004        0.0000000000000000     
  0.16562499999999999       0.77187499999999998        0.0000000000000000     
  0.16875000000000001       0.79374999999999996        0.0000000000000000     
  0.14687500000000001       0.79062500000000002        0.0000000000000000     
  0.21875000000000000       0.75000000000000000        0.0000000000000000     
  0.25000000000000000       0.75000000000000000        0.0000000000000000     
  0.25000000000000000       0.78125000000000000        0.0000000000000000     
  0.20624999999999999       0.76875000000000004        0.0000000000000000     
  0.22812499999999999       0.77187499999999998        0.0000000000000000     
  0.23125000000000001       0.79374999999999996        0.0000000000000000     
  0.20937500000000001       0.79062500000000002        0.0000000000000000     
  0.28125000000000000       0.93750000000000000        0.0000000000000000     
  0.31250000000000000       0.93750000000000000        0.0000000000000000     
  0.31250000000000000       0.96875000000000000        0.0000000000000000     
  0.26874999999999999       0.95625000000000004        0.0000000000000000     
  0.29062500000000002       0.95937499999999998        0.0000000000000000     
  0.29375000000000001       0.98124999999999996        0.0000000000000000     
  0.27187499999999998       0.97812500000000002        0.0000000000000000     
  0.34375000000000000       0.93750000000000000        0.0000000000000000     
  0.37500000000000000       0.93750000000000000        0.0000000000000000     
  0.37500000000000000       0.96875000000000000        0.0000000000000000     
  0.33124999999999999       0.95625000000000004        0.0000000000000000     
  0.35312500000000002       0.95937499999999998        0.0000000000000000     
  0.35625000000000001       0.98124999999999996        0.0000000000000000     
[...]
 CELL_DATA        3584
 SCALARS Endothelial_cells float
 LOOKUP_TABLE default
    0.99991403987376348272E+00
    0.99995122816776615959E+00
    0.99994866112441516126E+00
    0.99995808162696075971E+00
    0.99995269077563930793E+00
    0.99990587280391496350E+00
    0.99993292964554159052E+00
    0.99992432122178898091E+00
    0.99993360635235972733E+00
    0.99993753559915987683E+00
    0.99992794218370772974E+00
    0.99993664046257657585E+00
    0.99994011468090771011E+00
    0.99994049398645235005E+00
    0.99997450119314623684E+00
    0.99997858952954876699E+00
    0.99996219078753956211E+00
    0.99996543724532838127E+00
    0.99996012951336810115E+00
    0.99990905813766595145E+00
    0.99993595758383957417E+00
    0.99992849832830743573E+00
    0.99993424338142322672E+00
    0.99991471047726943056E+00
    0.99995857003542565344E+00
    0.99995761517166681376E+00
    0.99995541236469576152E+00
    0.99995375544722320260E+00
    0.99991656436749554171E+00
    0.99995817276123899475E+00
    0.99995542545537829948E+00
    0.99997110137283751197E+00
    0.99997681052940301516E+00
    0.99995994046813563294E+00
    0.99995704901372295392E+00
    0.99995448699722122576E+00
    0.99990379669769124948E+00
    0.99993061101559899129E+00
    0.99992818531663951731E+00
    0.99993786403468187807E+00
    0.99995276585508552358E+00
    0.99995634783119557998E+00
    0.99997997523298620681E+00
    0.99998983809217678598E+00
    0.99996934147073046617E+00
    0.99997724317469172117E+00
    0.99998752210665287077E+00
    0.99996610484188663825E+00
    0.99997164276791983273E+00
    0.99998738365024886221E+00
    0.99997010620728687957E+00
    0.99997679331783784207E+00
    0.99999228843704957015E+00
    0.99997139402427248633E+00
    0.99997868590847915904E+00
    0.99997873635715817109E+00
    0.99997670255576831533E+00
    0.99997985513076248498E+00
    0.99996228520466157175E+00
    0.99996492263986325177E+00
    0.99996051819372089309E+00
    0.99990955123334690491E+00
    0.99993670241226639828E+00
    0.99992829443309494408E+00
    0.99993599237345542896E+00
    0.99991713786180069778E+00
    0.99996115554359332744E+00
    0.99996227234057655231E+00
    0.99995651422532427777E+00
    0.99995370862036880855E+00
    0.99997335799373077148E+00
    0.99997912021278168027E+00
    0.99995953541863613623E+00
    0.99996297346302531750E+00
    0.99995820507629717966E+00
    0.99990816024394835182E+00
    0.99993545780106363186E+00
    0.99992550035326210889E+00
    0.99993550639786477063E+00
    0.99991726258272595196E+00
    0.99996028276863768713E+00
    0.99995985601976111745E+00
    0.99995429193966611781E+00
    0.99995072444299148984E+00
    0.99997985006377032580E+00
    0.99999114308027248210E+00
    0.99996517361451608963E+00
    0.99997545376365859493E+00
    0.99998762421340547935E+00
    0.99996401720382055434E+00
    0.99997189050655377329E+00
    0.99998743161376946187E+00
    0.99997167923343810436E+00
    0.99997805620583624098E+00
    0.99998962162769577944E+00
    0.99997254512643041213E+00
    0.99997725196166009631E+00
    0.99997759334769298345E+00
    0.99995027423634541552E+00
    0.99996036445594926878E+00
    0.99990134975666589146E+00
    0.99992403050005917997E+00
    0.99996397430222472291E+00
    0.99994926261472116824E+00
    0.99996647782804104487E+00
    0.99998484191600001125E+00
    0.99996838664368359328E+00
    0.99997391792361767227E+00
    0.99998834443960371576E+00
    0.99996730462727589916E+00
    0.99996703602080561080E+00
    0.99996833995019596131E+00
    0.99991700656792237289E+00
    0.99995851366730270637E+00
    0.99995452848291488390E+00
    0.99996882085365657034E+00
    0.99997661550657024332E+00
    0.99995987212531478594E+00
    0.99996083043386885247E+00
    0.99995663213716201589E+00
    0.99990584901053847222E+00
    0.99993233320509755657E+00
    0.99992942362286696412E+00
    0.99993872109258563619E+00
    0.99995376923480527864E+00
    0.99995740714253711356E+00
    0.99997709543723323211E+00
    0.99999025726387036350E+00
    0.99996542478577554736E+00
    0.99997464016030035427E+00
    0.99998822779759599655E+00
    0.99996566045846435600E+00
    0.99997640485793137799E+00
    0.99998893644117858859E+00
    0.99997240682693433467E+00
    0.99997477565982573200E+00
    0.99998664214320820420E+00
    0.99996730312046422373E+00
    0.99997669829062174607E+00
    0.99997791820103565374E+00
    0.99991573413389678304E+00
    0.99995626629518208350E+00
    0.99995156606563928570E+00
    0.99996846375287351538E+00
    0.99997664016652809682E+00
    0.99995749235222486373E+00
    0.99995988948033465160E+00
    0.99995608348516784591E+00
    0.99990600043500577065E+00
    0.99993192186099988383E+00
    0.99992632026790451150E+00
    0.99993759766713941062E+00
    0.99995055645691810486E+00
    0.99995538833510777543E+00
    0.99996448803393467308E+00
    0.99996724736811359868E+00
    0.99991004283876772085E+00
    0.99990708241327952432E+00
    0.99995501457883162466E+00
    0.99993476925698332458E+00
    0.99996750963521907618E+00
    0.99998709210601322006E+00
    0.99996930487066182369E+00
    0.99997114709966528068E+00
    0.99998397257052318299E+00
    0.99996401080213892509E+00
    0.99996678555291340640E+00
    0.99996650658839714154E+00
    0.99994586384052741579E+00
    0.99994468790245227829E+00
    0.99986093095285011323E+00
    0.99987121820675317618E+00
    0.99994000424173745678E+00
    0.99992904873480736860E+00
    0.99996549671547607652E+00
    0.99998460721906134996E+00
    0.99997124938896797541E+00
    0.99997423575850730160E+00
    0.99998430453471931489E+00
    0.99996469999987236399E+00
    0.99995794225626999374E+00
    0.99995847905196577621E+00
    0.99959755934830651913E+00
    0.99955036064076729918E+00
    0.99910395098380500034E+00
    0.99918475312227361673E+00
    0.99960061791028020917E+00
    0.99969051315250145873E+00
    0.99985984390791249332E+00
    0.99987822371659873522E+00
    0.99992534118029563484E+00
    0.99992366886066541554E+00
    0.99986487082095187873E+00
    0.99981522091076246994E+00
    0.99974904512906870302E+00
    0.99975896446461820499E+00
    0.99970902708568620820E+00
    0.99960431644763203529E+00
    0.99916930744991450108E+00
    0.99910941456831325880E+00
    0.99954316829922618126E+00
    0.99957968482988501790E+00
    0.99981315820267646632E+00
    0.99986245623885583456E+00
    0.99992482554787265325E+00
    0.99993006351064750437E+00
    0.99987618894243424084E+00
    0.99985754676636628968E+00
    0.99975650079238909118E+00
    0.99974708141904422565E+00
    0.99728667723059394312E+00
    0.99656364176822020973E+00
    0.99332307167479871879E+00
    0.99333345569245112827E+00
    0.99655734267743112387E+00
    0.99726623211287945825E+00
    0.99871207340467416103E+00
    0.99883968379105581015E+00
    0.99944294971092384472E+00
    0.99944422186393744312E+00
    0.99884185420647619846E+00
    0.99871288323353257788E+00
    0.99798761249450362865E+00
    0.99798747014858690818E+00
    0.99996567958691007227E+00
    0.99997386071150373699E+00
    0.99994784018196580799E+00
    0.99995750245157888347E+00
    0.99995569933854289157E+00
    0.99990416971717532846E+00
    0.99993214654238660177E+00
    0.99992165909734687101E+00
    0.99993342903304971436E+00
    0.99991550334034595693E+00
    0.99995679705324125308E+00
    0.99995714558555004459E+00
    0.99994945715113858764E+00
    0.99994580974469970958E+00
    0.99993484088709971846E+00
    0.99995252916696530932E+00
    0.99990547119559147760E+00
    0.99993043814056659091E+00
    0.99994255322816616438E+00
    0.99989970163845132145E+00
    0.99993015755257752541E+00
    0.99991702536050108829E+00
    0.99993015466910961653E+00
    0.99991105015125902877E+00
    0.99995596994463942231E+00
    0.99994797819100822434E+00
    0.99994181868032006033E+00
    0.99993633590903874264E+00
    0.99977987103193965979E+00
    0.99980475100368215724E+00
    0.99961224640774815065E+00
    0.99970027571632269492E+00
    0.99985787245293711312E+00
    0.99988692559661662695E+00
    0.99993953184881412266E+00
    0.99995217791917734296E+00
    0.99995453519123422836E+00
    0.99995449710202233273E+00
    0.99994091107570981514E+00
    0.99989575611936798438E+00
    0.99989070856396344844E+00
    0.99990100875994736285E+00
    0.99921199899543045042E+00
    0.99934408933479224046E+00
    0.99886985254511539978E+00
    0.99916745617302082927E+00
    0.99959262812159677125E+00
    0.99974285801272788632E+00
    0.99986775677132522233E+00
    0.99985405961346718318E+00
    0.99990166670673064075E+00
    0.99988150829152455668E+00
    0.99976925970746677308E+00
    0.99962358192831468617E+00
    0.99965758092218959252E+00
    0.99970565669360811345E+00
    0.99986711916758874708E+00
    0.99990783673811556298E+00
    0.99983908884224226288E+00
    0.99988984632588284729E+00
    0.99992235785524152814E+00
    0.99989126530688687833E+00
    0.99992405381803772801E+00
    0.99990888244060960321E+00
    0.99992539931360069350E+00
    0.99990428705418454847E+00
    0.99994061231738984308E+00
    0.99991770508270894080E+00
    0.99992128690886494802E+00
    0.99991966960761635708E+00
    0.99979312095611050371E+00
    0.99986684174208739773E+00
    0.99979196633881106671E+00
    0.99986230290747335481E+00
    0.99990802957923197170E+00
    0.99988584792746548757E+00
    0.99992160269577701204E+00
    0.99990450220345050703E+00
    0.99992179740234776730E+00
    0.99989761434355906022E+00
    0.99992072594746328473E+00
    0.99987748138773202555E+00
    0.99990089819733452003E+00
    0.99990476170655873123E+00
    0.99808441397509917170E+00
    0.99854650839132963469E+00
    0.99774910368481439793E+00
    0.99843388382833064831E+00
    0.99920799016039063556E+00
    0.99955213285828659053E+00
    0.99976012028571137336E+00
    0.99968652262568791222E+00
    0.99979569642489585224E+00
    0.99972569353406970372E+00
    0.99942312389042042842E+00
    0.99903180522396139995E+00
    0.99924593837398711926E+00
    0.99937762319136413947E+00
    0.99685797559301969617E+00
    0.99783299804490299678E+00
    0.99696897375516646544E+00
    0.99800838782724632381E+00
    0.99895860942016712070E+00
    0.99945669327251251968E+00
    0.99968698170609004983E+00
    0.99954122815277746117E+00
    0.99968115158933068543E+00
    0.99953930386671419051E+00
    0.99903811889188232076E+00
    0.99830452253345580704E+00
    0.99886793723707356651E+00
    0.99909927254795261042E+00
    0.99767011537423722078E+00
    0.99764226457634241907E+00
    0.99575790398757391131E+00
    0.99642082237162032943E+00
    0.99819165432960177409E+00
    0.99878626411670856644E+00
    0.99941259045973063202E+00
    0.99937172674168872621E+00
    0.99967053210857015344E+00
    0.99962258474332099656E+00
    0.99918495155586573020E+00
    0.99890228608865005988E+00
    0.99871766424097718762E+00
    0.99882269058866735012E+00
    0.99108356218387527736E+00
    0.99199349442147899403E+00
    0.98691892997125263420E+00
    0.98969392178756643297E+00
    0.99461916721490239990E+00
    0.99667668225790406744E+00
    0.99827817469491886282E+00
    0.99792424623239484038E+00
    0.99883955892102993523E+00
    0.99856307957274337284E+00
    0.99689736385153160381E+00
    0.99554184950990864955E+00
    0.99562897246745840629E+00
    0.99614951545430185931E+00
    0.98030912976767048406E+00
    0.97835869050580748230E+00
    0.95966128462439725944E+00
    0.96553966685826686511E+00
    0.98233358562142480963E+00
    0.98767584630646432231E+00
    0.99382079592163430348E+00
    0.99363835357624796796E+00
    0.99676175495680319205E+00
    0.99648146923954306065E+00
    0.99250381565256884375E+00
    0.99077076993339996402E+00
    0.98803581515612537434E+00
    0.98875012610821289005E+00
    0.91432857666510314321E+00
    0.92446765634988470328E+00
    0.88325801527055991524E+00
    0.90570061365843990142E+00
    0.94754004145528381020E+00
    0.96536124430646064187E+00
    0.98103231236096188894E+00
    0.97807441110637616255E+00
    0.98751273712594278553E+00
    0.98515604019703306715E+00
    0.96915614258163962358E+00
    0.95676836937141440664E+00
    0.95698224193028536000E+00
    0.96161186930302133824E+00
    0.97786816877181170771E+00
    0.98209301119826164506E+00
    0.97354360217364410701E+00
    0.98033007731021570841E+00
    0.98934943501192684767E+00
    0.99384002373299107358E+00
    0.99657482174257649987E+00
    0.99542694145138399531E+00
    0.99718723369565709369E+00
    0.99627619617854445977E+00
    0.99222062992056436759E+00
    0.98808492285898430474E+00
    0.99009107125926976156E+00
    0.99159190592373280815E+00
    0.96359583000738713299E+00
    0.97322574165957786985E+00
    0.96427134288501736847E+00
    0.97488604585162885741E+00
    0.98588513656828702381E+00
    0.99232079196272227062E+00
    0.99540167781113930712E+00
    0.99323181174151919937E+00
    0.99538268082992009678E+00
    0.99349532667427742361E+00
    0.98695473515401532794E+00
    0.97880868199397985663E+00
    0.98495185109416283353E+00
    0.98767916693342094892E+00
    0.82700040525134088654E+00
    0.85388263084313342777E+00
    0.80319792831913683351E+00
    0.83934639257235565957E+00
    0.90223852282622285514E+00
    0.93678362145025029228E+00
    0.96211292839331630233E+00
    0.95224608572288882424E+00
    0.96914593028144846443E+00
    0.96114855592009185159E+00
    0.92646049706837774185E+00
    0.89437259599059115711E+00
    0.90855503434068973778E+00
    0.91984683370896846988E+00
    0.75742844715585078141E+00
    0.80199564427226355257E+00
    0.75717000853349225586E+00
    0.80544543094155762741E+00
    0.87473318005408218223E+00
    0.92187281566888512607E+00
    0.94926789377838660666E+00
    0.93040695960727670677E+00
    0.94949031083684942711E+00
    0.93322589480450623967E+00
    0.88377584733036318454E+00
    0.83058627503388293700E+00
    0.86827744471549128669E+00
    0.88691636045273702926E+00
    0.99991535729403180355E+00
    0.99995464402375033863E+00
    0.99994332597187762790E+00
    0.99995399275416596563E+00
    0.99996891090548956083E+00
    0.99994933527258778039E+00
    0.99995714041603678268E+00
    0.99995342754944549490E+00
    0.99990434852269460819E+00
    0.99992989138748722411E+00
    0.99992242000332132168E+00
    0.99993658198189561137E+00
    0.99994538451059378215E+00
    0.99995054754966083976E+00
    0.99990393186260384528E+00
    0.99986106880324765456E+00
    0.99968519739771943833E+00
    0.99961749345279715673E+00
    0.99980031936586832852E+00
    0.99976576802892080931E+00
    0.99989310520805130267E+00
    0.99993807345915197704E+00
    0.99995417901036731667E+00
    0.99995836611837218832E+00
    0.99995139446881453615E+00
    0.99993794298750693361E+00
    0.99989871374087824218E+00
    0.99988912226473170008E+00
    0.99991057054598719844E+00
    0.99994197872672208049E+00
    0.99991515746733772296E+00
    0.99991076478865492660E+00
    0.99994830111877286427E+00
    0.99991993385594279964E+00
    0.99994558060579730174E+00
    0.99995020721581184819E+00
    0.99990112818194276656E+00
    0.99992601945893566651E+00
    0.99991688501560049840E+00
    0.99993257126810120017E+00
    0.99993468874212532160E+00
    0.99994078828260557490E+00
    0.99976059074030809715E+00
    0.99959587761336587963E+00
    0.99915204380930855432E+00
    0.99887509586094724856E+00
    0.99934041282954177987E+00
    0.99919880539277472487E+00
    0.99962015893549283074E+00
    0.99976656403705899123E+00
    0.99988316451944214691E+00
    0.99990685390051492476E+00
    0.99985362378162911945E+00
    0.99986604450609428696E+00
    0.99970336337289456008E+00
    0.99965608221083790408E+00
    0.99880568450029949545E+00
    0.99819532316397174831E+00
    0.99640488090568979374E+00
    0.99576198482981859161E+00
    0.99763460345914178884E+00
    0.99765374956542640650E+00
    0.99889786828129401020E+00
    0.99918235164019497674E+00
    0.99962596033503492432E+00
    0.99967710126559394812E+00
    0.99937202657195312039E+00
    0.99941146630404997797E+00
    0.99882024346627662492E+00
    0.99871528713394197574E+00
    0.98769560687406821042E+00
    0.98233750329410618463E+00
    0.96552436762604321174E+00
    0.95966555097813799335E+00
    0.97835033820793193549E+00
    0.98029051968878300194E+00
    0.99076794595927597520E+00
    0.99250195425396969817E+00
    0.99648616055049388240E+00
    0.99676814670010915886E+00
    0.99363865297567799395E+00
    0.99381927567406780355E+00
    0.98874765263073993715E+00
    0.98803332378152408655E+00
    0.99669644520210132210E+00
    0.99462313706306193506E+00
    0.98967825750426929865E+00
    0.98692365599499465301E+00
    0.99198969110218881973E+00
    0.99107054410044337356E+00
    0.99553773645404541881E+00
    0.99689542770704298036E+00
    0.99856754798740332557E+00
    0.99884724404943214804E+00
    0.99792511732700728277E+00
    0.99827718485214333999E+00
    0.99614772868864487343E+00
    0.99562774490703331853E+00
    0.96538071853087548124E+00
    0.94754452434643476888E+00
    0.90568667816219794453E+00
    0.88326147916389485815E+00
    0.92446404626759726142E+00
    0.91431667350656842252E+00
    0.95676431100795022999E+00
    0.96915471139445619198E+00
    0.98516131793334993372E+00
    0.98752073889300884257E+00
    0.97807566000803158879E+00
    0.98103129983479842036E+00
    0.96161047706785740541E+00
    0.95698128148749839195E+00
    0.99989980217868645873E+00
    0.99992146746994092776E+00
    0.99987437481625507374E+00
    0.99984431822454722383E+00
    0.99990404762408524597E+00
    0.99985285571143811545E+00
    0.99991396126321863136E+00
    0.99993355818645157651E+00
    0.99989446022385353174E+00
    0.99992043613796921520E+00
    0.99990941198687488534E+00
    0.99992473748008481316E+00
    0.99991750741368468081E+00
    0.99991955863514847547E+00
    0.99956998453651157988E+00
    0.99921119972421534872E+00
    0.99841837634460639528E+00
    0.99775429746005461773E+00
    0.99854286925614055281E+00
    0.99807139531474153848E+00
    0.99902806863650672753E+00
    0.99942053791094864756E+00
    0.99972823700291024718E+00
    0.99980174445109326609E+00
    0.99968632845036264900E+00
    0.99975839507838260012E+00
    0.99937530136634766809E+00
    0.99924440165470507225E+00
    0.99989191407783439836E+00
    0.99990785937526582838E+00
    0.99985045038300734976E+00
    0.99979763151013190114E+00
    0.99986329414705699126E+00
    0.99977911330602631246E+00
    0.99987348719931556928E+00
    0.99991287778268689301E+00
    0.99988850198502576827E+00
    0.99991802156042008942E+00
    0.99990472841611910404E+00
    0.99992211344462178513E+00
    0.99990264897325897842E+00
    0.99989902383404327679E+00
    0.99946077860704485296E+00
    0.99895949363958314038E+00
    0.99799254342592669254E+00
    0.99697218344401328238E+00
    0.99782899225590171444E+00
    0.99684490247049939438E+00
    0.99830069332651938385E+00
    0.99903554773655778298E+00
    0.99954204786811495786E+00
    0.99968745970093753073E+00
    0.99954076932297319935E+00
    0.99968329033585556775E+00
    0.99909661000292082633E+00
    0.99886627959399709731E+00
    0.99385980559509401466E+00
    0.98935350722137282986E+00
    0.98031455897257890886E+00
    0.97354812280234326316E+00
    0.98208932942092752594E+00
    0.97785548002251654331E+00
    0.98808087591372539826E+00
    0.99221890986327510031E+00
    0.99628111131480290297E+00
    0.99719524565088080159E+00
    0.99542802074551028912E+00
    0.99657387800646946019E+00
    0.99159025511313436674E+00
    0.99008996823683070865E+00
    0.93680223607425505694E+00
    0.90224347514689950955E+00
    0.83933403491996239065E+00
    0.80320013666590184265E+00
    0.85387938466636748025E+00
    0.82698958812134482077E+00
    0.89436895175733599483E+00
    0.92645956752005043100E+00
    0.96115404077978272568E+00
    0.96915380543801010749E+00
    0.95224754554893464853E+00
    0.96211194051205428668E+00