# vtk DataFile Version 3.0
LAPLACIEN  2D
ASCII
DATASET UNSTRUCTURED_GRID
 POINTS        1857  float
   3.1250000000000000E-002  0.93750000000000000        0.0000000000000000     
   6.2500000000000000E-002  0.93750000000000000        0.0000000000000000     
   6.2500000000000000E-002  0.96875000000000000        0.0000000000000000     
   1.8749999999999999E-002  0.95625000000000004        0.0000000000000000     
   4.0625000000000001E-002  0.95937499999999998        0.0000000000000000     
   4.3749999999999997E-002  0.98124999999999996        0.0000000000000000     
   2.1874999999999999E-002  0.97812500000000002        0.0000000000000000     
   9.3750000000000000E-002  0.93750000000000000        0.0000000000000000     
  0.12500000000000000       0.93750000000000000        0.0000000000000000     
  0.12500000000000000       0.96875000000000000        0.0000000000000000     
   8.1250000000000003E-002  0.95625000000000004        0.0000000000000000     
  0.10312499999999999       0.95937499999999998        0.0000000000000000     
  0.10625000000000000       0.98124999999999996        0.0000000000000000     
   8.4375000000000006E-002  0.97812500000000002        0.0000000000000000     
   3.1250000000000000E-002  0.87500000000000000        0.0000000000000000     
   6.2500000000000000E-002  0.87500000000000000        0.0000000000000000     
   6.2500000000000000E-002  0.90625000000000000        0.0000000000000000     
   1.8749999999999999E-002  0.89375000000000004        0.0000000000000000     
   4.0625000000000001E-002  0.89687499999999998        0.0000000000000000     
   4.3749999999999997E-002  0.91874999999999996        0.0000000000000000     
   2.1874999999999999E-002  0.91562500000000002        0.0000000000000000     
   9.3750000000000000E-002  0.87500000000000000        0.0000000000000000     
  0.12500000000000000       0.87500000000000000        0.0000000000000000     
  0.12500000000000000       0.90625000000000000        0.0000000000000000     
   8.1250000000000003E-002  0.89375000000000004        0.0000000000000000     
  0.10312499999999999       0.89687499999999998        0.0000000000000000     
  0.10625000000000000       0.91874999999999996        0.0000000000000000     
   8.4375000000000006E-002  0.91562500000000002        0.0000000000000000     
  0.15625000000000000       0.93750000000000000        0.0000000000000000     
  0.18750000000000000       0.93750000000000000        0.0000000000000000     
  0.18750000000000000       0.96875000000000000        0.0000000000000000     
  0.14374999999999999       0.95625000000000004        0.0000000000000000     
  0.16562499999999999       0.95937499999999998        0.0000000000000000     
  0.16875000000000001       0.98124999999999996        0.0000000000000000     
  0.14687500000000001       0.97812500000000002        0.0000000000000000     
  0.21875000000000000       0.93750000000000000        0.0000000000000000     
  0.25000000000000000       0.93750000000000000        0.0000000000000000     
  0.25000000000000000       0.96875000000000000        0.0000000000000000     
  0.20624999999999999       0.95625000000000004        0.0000000000000000     
  0.22812499999999999       0.95937499999999998        0.0000000000000000     
  0.23125000000000001       0.98124999999999996        0.0000000000000000     
  0.20937500000000001       0.97812500000000002        0.0000000000000000     
  0.15625000000000000       0.87500000000000000        0.0000000000000000     
  0.18750000000000000       0.87500000000000000        0.0000000000000000     
  0.18750000000000000       0.90625000000000000        0.0000000000000000     
  0.14374999999999999       0.89375000000000004        0.0000000000000000     
  0.16562499999999999       0.89687499999999998        0.0000000000000000     
  0.16875000000000001       0.91874999999999996        0.0000000000000000     
  0.14687500000000001       0.91562500000000002        0.0000000000000000     
  0.21875000000000000       0.87500000000000000        0.0000000000000000     
  0.25000000000000000       0.87500000000000000        0.0000000000000000     
  0.25000000000000000       0.90625000000000000        0.0000000000000000     
  0.20624999999999999       0.89375000000000004        0.0000000000000000     
  0.22812499999999999       0.89687499999999998        0.0000000000000000     
  0.23125000000000001       0.91874999999999996        0.0000000000000000     
  0.20937500000000001       0.91562500000000002        0.0000000000000000     
   3.1250000000000000E-002  0.81250000000000000        0.0000000000000000     
   6.2500000000000000E-002  0.81250000000000000        0.0000000000000000     
   6.2500000000000000E-002  0.84375000000000000        0.0000000000000000     
   1.8749999999999999E-002  0.83125000000000004        0.0000000000000000     
   4.0625000000000001E-002  0.83437499999999998        0.0000000000000000     
   4.3749999999999997E-002  0.85624999999999996        0.0000000000000000     
   2.1874999999999999E-002  0.85312500000000002        0.0000000000000000     
   9.3750000000000000E-002  0.81250000000000000        0.0000000000000000     
  0.12500000000000000       0.81250000000000000        0.0000000000000000     
  0.12500000000000000       0.84375000000000000        0.0000000000000000     
   8.1250000000000003E-002  0.83125000000000004        0.0000000000000000     
  0.10312499999999999       0.83437499999999998        0.0000000000000000     
  0.10625000000000000       0.85624999999999996        0.0000000000000000     
   8.4375000000000006E-002  0.85312500000000002        0.0000000000000000     
   3.1250000000000000E-002  0.75000000000000000        0.0000000000000000     
   6.2500000000000000E-002  0.75000000000000000        0.0000000000000000     
   6.2500000000000000E-002  0.78125000000000000        0.0000000000000000     
   1.8749999999999999E-002  0.76875000000000004        0.0000000000000000     
   4.0625000000000001E-002  0.77187499999999998        0.0000000000000000     
   4.3749999999999997E-002  0.79374999999999996        0.0000000000000000     
   2.1874999999999999E-002  0.79062500000000002        0.0000000000000000     
   9.3750000000000000E-002  0.75000000000000000        0.0000000000000000     
  0.12500000000000000       0.75000000000000000        0.0000000000000000     
  0.12500000000000000       0.78125000000000000        0.0000000000000000     
   8.1250000000000003E-002  0.76875000000000004        0.0000000000000000     
  0.10312499999999999       0.77187499999999998        0.0000000000000000     
  0.10625000000000000       0.79374999999999996        0.0000000000000000     
   8.4375000000000006E-002  0.79062500000000002        0.0000000000000000     
  0.15625000000000000       0.81250000000000000        0.0000000000000000     
  0.18750000000000000       0.81250000000000000        0.0000000000000000     
  0.18750000000000000       0.84375000000000000        0.0000000000000000     
  0.14374999999999999       0.83125000000000004        0.0000000000000000     
  0.16562499999999999       0.83437499999999998        0.0000000000000000     
  0.16875000000000001       0.85624999999999996        0.0000000000000000     
  0.14687500000000001       0.85312500000000002        0.0000000000000000     
  0.21875000000000000       0.81250000000000000        0.0000000000000000     
  0.25000000000000000       0.81250000000000000        0.0000000000000000     
  0.25000000000000000       0.84375000000000000        0.0000000000000000     
  0.20624999999999999       0.83125000000000004        0.0000000000000000     
  0.22812499999999999       0.83437499999999998        0.0000000000000000     
  0.23125000000000001       0.85624999999999996        0.0000000000000000     
  0.20937500000000001       0.85312500000000002        0.0000000000000000     
  0.15625000000000000       0.75000000000000000        0.0000000000000000     
  0.18750000000000000       0.75000000000000000        0.0000000000000000     
  0.18750000000000000       0.78125000000000000        0.0000000000000000     
  0.14374999999999999       0.76875000000000004        0.0000000000000000     
  0.16562499999999999       0.77187499999999998        0.0000000000000000     
  0.16875000000000001       0.79374999999999996        0.0000000000000000     
  0.14687500000000001       0.79062500000000002        0.0000000000000000     
  0.21875000000000000       0.75000000000000000        0.0000000000000000     
  0.25000000000000000       0.75000000000000000        0.0000000000000000     
  0.25000000000000000       0.78125000000000000        0.0000000000000000     
  0.20624999999999999       0.76875000000000004        0.0000000000000000     
  0.22812499999999999       0.77187499999999998        0.0000000000000000     
  0.23125000000000001       0.79374999999999996        0.0000000000000000     
  0.20937500000000001       0.79062500000000002        0.0000000000000000     
  0.28125000000000000       0.93750000000000000        0.0000000000000000     
  0.31250000000000000       0.93750000000000000        0.0000000000000000     
  0.31250000000000000       0.96875000000000000        0.0000000000000000     
  0.26874999999999999       0.95625000000000004        0.0000000000000000     
  0.29062500000000002       0.95937499999999998        0.0000000000000000     
  0.29375000000000001       0.98124999999999996        0.0000000000000000     
  0.27187499999999998       0.97812500000000002        0.0000000000000000     
  0.34375000000000000       0.93750000000000000        0.0000000000000000     
  0.37500000000000000       0.93750000000000000        0.0000000000000000     
  0.37500000000000000       0.96875000000000000        0.0000000000000000     
  0.33124999999999999       0.95625000000000004        0.0000000000000000     
  0.35312500000000002       0.95937499999999998        0.0000000000000000     
  0.35625000000000001       0.98124999999999996        0.0000000000000000     
[...]
 CELL_DATA        3584
 SCALARS Endothelial_cells float
 LOOKUP_TABLE default
    0.99995279960261185259E+00
    0.99999250702756248277E+00
    0.99998142811106771610E+00
    0.99999039666220701505E+00
    0.99999298307559170151E+00
    0.99994297321114522514E+00
    0.99996864062283308261E+00
    0.99996523845681206666E+00
    0.99996453248388339485E+00
    0.99996804917796577872E+00
    0.99996744751752741909E+00
    0.99997227582169412319E+00
    0.99998661978304792530E+00
    0.99998748534405001998E+00
    0.99999860690007313924E+00
    0.10000056866617375029E+01
    0.99998659330313255378E+00
    0.99999279451304612376E+00
    0.99999347778980762769E+00
    0.99994388636571240880E+00
    0.99996845042647419799E+00
    0.99996162290997747668E+00
    0.99996975242558805430E+00
    0.99995161856493031127E+00
    0.99999272043931430876E+00
    0.99998737166042572788E+00
    0.99998710191170214756E+00
    0.99998640496166668612E+00
    0.99995366033838573028E+00
    0.99999324963016478218E+00
    0.99998369517692009545E+00
    0.99999462809825057086E+00
    0.10000033493185136457E+01
    0.99998333153236285131E+00
    0.99998827874721585296E+00
    0.99999004648154588004E+00
    0.99994129103844830997E+00
    0.99996657473796557447E+00
    0.99996203127032790015E+00
    0.99997153786860171198E+00
    0.99998638471318979093E+00
    0.99998889659663503515E+00
    0.99999935083584179374E+00
    0.10000083286480174749E+01
    0.99998919360175153592E+00
    0.99999727540794558500E+00
    0.10000062580440249871E+01
    0.99998555709690783999E+00
    0.99999418942233453400E+00
    0.10000074846215807334E+01
    0.99999119285176296668E+00
    0.99999758581314368566E+00
    0.10000096080623384065E+01
    0.99999166238145387187E+00
    0.99999481095491760119E+00
    0.99999547839556224282E+00
    0.99999984022705989961E+00
    0.10000064994175146271E+01
    0.99998707164555356020E+00
    0.99999313400978884214E+00
    0.99999390590429260151E+00
    0.99994418557610498244E+00
    0.99996889786053155813E+00
    0.99996233682904678286E+00
    0.99997079551471890202E+00
    0.99995276847818226340E+00
    0.99999395741836749618E+00
    0.99998916923773417675E+00
    0.99998792467740715839E+00
    0.99998709374444605391E+00
    0.99999998929159694683E+00
    0.10000065847207444403E+01
    0.99998711323736000356E+00
    0.99999316106407576399E+00
    0.99999394458049717382E+00
    0.99994420989693189039E+00
    0.99996894001684444309E+00
    0.99996241791315576553E+00
    0.99997094119033258508E+00
    0.99995297939880012361E+00
    0.99999412423316880183E+00
    0.99998941247489558926E+00
    0.99998801668938996912E+00
    0.99998716685472999188E+00
    0.99999973858773438806E+00
    0.10000090474135150398E+01
    0.99998967233788882414E+00
    0.99999762047994245062E+00
    0.10000067012268227806E+01
    0.99998587150095552545E+00
    0.99999467241876793810E+00
    0.10000082618642551768E+01
    0.99999223109412471722E+00
    0.99999762360724309129E+00
    0.10000082918839041657E+01
    0.99999245511003287401E+00
    0.99999534003474066512E+00
    0.99999613189836100702E+00
    0.99999988596250721784E+00
    0.10000091307056588885E+01
    0.99998970875981996187E+00
    0.99999764386800182869E+00
    0.10000067385834763289E+01
    0.99998589511115698603E+00
    0.99999471410194074039E+00
    0.10000083432368458425E+01
    0.99999237981315636237E+00
    0.99999784161170734986E+00
    0.10000084606357719785E+01
    0.99999270083303182233E+00
    0.99999543154457859462E+00
    0.99999620440656100673E+00
    0.99995394916728963519E+00
    0.99999366353669660867E+00
    0.99998400259264741408E+00
    0.99999489187944345936E+00
    0.10000040620372345757E+01
    0.99998402330126434645E+00
    0.99999002999834563088E+00
    0.99999129833631350550E+00
    0.99994243761709356022E+00
    0.99996762167546093814E+00
    0.99996273921013389963E+00
    0.99997197528597181471E+00
    0.99998706298094208744E+00
    0.99998970591070723835E+00
    0.99999870554079350882E+00
    0.10000086234819691722E+01
    0.99998950966474686730E+00
    0.99999772529580366331E+00
    0.10000070307992536822E+01
    0.99998673085799327787E+00
    0.99999606664748930118E+00
    0.10000085735107246965E+01
    0.99999164673063045683E+00
    0.99999674861516196778E+00
    0.10000075623813409198E+01
    0.99999093302477326528E+00
    0.99999513058506728225E+00
    0.99999618398341028058E+00
    0.99995397196234070414E+00
    0.99999369975138030497E+00
    0.99998402764966454193E+00
    0.99999493060167199410E+00
    0.10000041418500593693E+01
    0.99998416224368591454E+00
    0.99999025875387625995E+00
    0.99999145665754707313E+00
    0.99994263973695907133E+00
    0.99996776055127400973E+00
    0.99996281600530168010E+00
    0.99997201502246479965E+00
    0.99998713185951615401E+00
    0.99998979265579357456E+00
    0.99999872957577728982E+00
    0.10000087070804750677E+01
    0.99998953285164060567E+00
    0.99999776026285058794E+00
    0.10000071566813195645E+01
    0.99998686910066691969E+00
    0.99999629635749665013E+00
    0.10000087708339069348E+01
    0.99999171435105671524E+00
    0.99999687992605978959E+00
    0.10000076867398219882E+01
    0.99999097393120184307E+00
    0.99999576129582923301E+00
    0.99999683215318790896E+00
    0.10000000271556357401E+01
    0.10000094636908223311E+01
    0.99998998352956924851E+00
    0.99999806068418428673E+00
    0.10000074803456018291E+01
    0.99998704326670528886E+00
    0.99999655341914828188E+00
    0.10000093896373234426E+01
    0.99999284944815580722E+00
    0.99999859637395460688E+00
    0.10000090029234383060E+01
    0.99999290196683598975E+00
    0.99999602282794619601E+00
    0.99999693272056455751E+00
    0.10000000945549163411E+01
    0.10000094403487853612E+01
    0.99998970256131380907E+00
    0.99999780413976113724E+00
    0.10000074334545387966E+01
    0.99998702399672867447E+00
    0.99999658365515464720E+00
    0.10000094597202411340E+01
    0.99999299448132172863E+00
    0.99999880997537038407E+00
    0.10000091571512432775E+01
    0.99999312677663720894E+00
    0.99999607939983359284E+00
    0.99999697355246652819E+00
    0.10000000054549158524E+01
    0.10000094130961179051E+01
    0.99998972793693463590E+00
    0.99999775665943835268E+00
    0.10000074493881088156E+01
    0.99998709890499759556E+00
    0.99999676038159845959E+00
    0.10000095308678840222E+01
    0.99999304642935216147E+00
    0.99999872991028670999E+00
    0.10000090660825990962E+01
    0.99999292854475230197E+00
    0.99999605729515483876E+00
    0.99999698154868721378E+00
    0.99999904487116686447E+00
    0.10000085754240435332E+01
    0.99997878760403724474E+00
    0.99998828489359781191E+00
    0.10000057685083316716E+01
    0.99998524981006664536E+00
    0.99999668398435037631E+00
    0.10000090366566720679E+01
    0.99999304301787994564E+00
    0.99999879454654938549E+00
    0.10000086431842245549E+01
    0.99999248232162296635E+00
    0.99999481461550054906E+00
    0.99999570667971471316E+00
    0.99999999835602471077E+00
    0.10000065892200205031E+01
    0.99998711468832712779E+00
    0.99999316189250009312E+00
    0.99999394624873894077E+00
    0.99994421085384244119E+00
    0.99996894193596119749E+00
    0.99996242230124399164E+00
    0.99997095036798699930E+00
    0.99995299449306351836E+00
    0.99999413516303337079E+00
    0.99998943002211493347E+00
    0.99998802178462675716E+00
    0.99998717064091890983E+00
    0.99999999711570208838E+00
    0.10000065883801334543E+01
    0.99998711205118351319E+00
    0.99999316071026711494E+00
    0.99999394596752433362E+00
    0.99994421078041506590E+00
    0.99996894194655294719E+00
    0.99996242237537524833E+00
    0.99997095063814422922E+00
    0.99995299500512602187E+00
    0.99999413538542680779E+00
    0.99998943028524611698E+00
    0.99998802168037981275E+00
    0.99998717058122288392E+00
    0.99999986976190669008E+00
    0.10000091123355605571E+01
    0.99998964228850628633E+00
    0.99999760399269477240E+00
    0.10000067287414409201E+01
    0.99998589181808683612E+00
    0.99999471489098656907E+00
    0.10000083461026452181E+01
    0.99999238853719729647E+00
    0.99999785587165934686E+00
    0.10000084684152992232E+01
    0.99999271196604466727E+00
    0.99999543006279967283E+00
    0.99999620322081805845E+00
    0.99999961799564007769E+00
    0.10000089341981248658E+01
    0.99998922174600779478E+00
    0.99999736719806164853E+00
    0.10000066579382633769E+01
    0.99998586852335213937E+00
    0.99999470814094315596E+00
    0.10000083350497817047E+01
    0.99999238535182088938E+00
    0.99999785023216281044E+00
    0.10000084401598678951E+01
    0.99999264634878415325E+00
    0.99999537781923075741E+00
    0.99999616668366941852E+00
    0.99999999074756507067E+00
    0.10000065851683122009E+01
    0.99998710467689111425E+00
    0.99999315780439412826E+00
    0.99999394515372108661E+00
    0.99994421056751792154E+00
    0.99996894185824225509E+00
    0.99996242222867659510E+00
    0.99997095057729856737E+00
    0.99995299489701139350E+00
    0.99999413483050880735E+00
    0.99998942864892204074E+00
    0.99998802083455617939E+00
    0.99998717007605764096E+00
    0.99999997988160216345E+00
    0.10000065809881111267E+01
    0.99998709767997151499E+00
    0.99999315554722179034E+00
    0.99999394446737654985E+00
    0.99994421041733205779E+00
    0.99996894177826822769E+00
    0.99996242204661267561E+00
    0.99997095046797013218E+00
    0.99995299467305642782E+00
    0.99999413385421709322E+00
    0.99998942547195057706E+00
    0.99998801969950834589E+00
    0.99998716946407584238E+00
    0.99999948697895180150E+00
    0.10000083258214693682E+01
    0.99998819871916433399E+00
    0.99999696008357163990E+00
    0.10000064666459620444E+01
    0.99998581342875247913E+00
    0.99999468976057448444E+00
    0.10000082975316197942E+01
    0.99999237101555671359E+00
    0.99999782112864876726E+00
    0.10000083146625591279E+01
    0.99999233585155067328E+00
    0.99999519040305329121E+00
    0.99999604548919729385E+00
    0.99999906926004222818E+00
    0.10000082663525571292E+01
    0.99998747788586861418E+00
    0.99999702580256677464E+00
    0.10000063131159431240E+01
    0.99998577373367802945E+00
    0.99999467259873475733E+00
    0.10000082496002358212E+01
    0.99999234657090063649E+00
    0.99999776347626212480E+00
    0.10000080891284439666E+01
    0.99999174843815252789E+00
    0.99999493219049728765E+00
    0.99999589311322401031E+00
    0.99999954947326052945E+00
    0.10000094901718754592E+01
    0.99998660024709051797E+00
    0.99999727626324197427E+00
    0.10000076823903691903E+01
    0.99998651057947696152E+00
    0.99999642800913146612E+00
    0.10000092773858229034E+01
    0.99999295102182528261E+00
    0.99999875364102686071E+00
    0.10000088635708972440E+01
    0.99999264741044802118E+00
    0.99999549258770825677E+00
    0.99999649340717422508E+00
    0.99998218294046892218E+00
    0.99999736044330922446E+00
    0.99994890079006115702E+00
    0.99997684702248323951E+00
    0.10000012901987314073E+01
    0.99998426376162352636E+00
    0.99999614133095926505E+00
    0.10000091886430404475E+01
    0.99999241884734302310E+00
    0.99999795848379402496E+00
    0.10000086769951233023E+01
    0.99998970671188380788E+00
    0.99999196219803632157E+00
    0.99999413558479088859E+00
    0.99984073190338651482E+00
    0.99982057718383321454E+00
    0.99913338459973377592E+00
    0.99961705927907207325E+00
    0.99991417610956001560E+00
    0.99994650538711671306E+00
    0.99998630998850157603E+00
    0.10000005629269932417E+01
    0.99999069378257365859E+00
    0.99999469521251715953E+00
    0.99999747535649519126E+00
    0.99996632584071909466E+00
    0.99995292799494395197E+00
    0.99996377069674324822E+00
    0.99625515855575330626E+00
    0.99819712367579405132E+00
    0.99502293715069367597E+00
    0.99782365318260768383E+00
    0.99933221742970379520E+00
    0.99970025434423570587E+00
    0.99990201012589730034E+00
    0.99988779155100959706E+00
    0.99995274693754365725E+00
    0.99993642522078851620E+00
    0.99974977259232633564E+00
    0.99927509984269724530E+00
    0.99950793174364960247E+00
    0.99964775763393920460E+00
    0.99988247502210514384E+00
    0.99993512719498256480E+00
    0.99982005169730625571E+00
    0.99991156571383421614E+00
    0.99997873510576096301E+00
    0.99997698545665192338E+00
    0.99999389700995522379E+00
    0.10000059612787968177E+01
    0.99999113234276681972E+00
    0.99999432286050449203E+00
    0.99999829328290923414E+00
    0.99996042155996300860E+00
    0.99997275989059253298E+00
    0.99998106448432066973E+00
    0.99968821344215130775E+00
    0.99984234234733149194E+00
    0.99968420974215999042E+00
    0.99985441643544914481E+00
    0.99995691547882081807E+00
    0.99997113575596185964E+00
    0.99999126948097460943E+00
    0.99999954445967442762E+00
    0.99998810559975859213E+00
    0.99998625808294205886E+00
    0.99997076832416653680E+00
    0.99988826750180603842E+00
    0.99994083940730682514E+00
    0.99996133414488042046E+00
    0.99051037295315014219E+00
    0.99448731091753217459E+00
    0.98843254070786912280E+00
    0.99387917162701766571E+00
    0.99774126003618313074E+00
    0.99906007742121361037E+00
    0.99963969866906421391E+00
    0.99945788285904668680E+00
    0.99976380010080390104E+00
    0.99963271076871285103E+00
    0.99875299437537179426E+00
    0.99721794612951264458E+00
    0.99805936422109864381E+00
    0.99855869285846565742E+00
    0.98085776149251557854E+00
    0.98915777768489843158E+00
    0.98139663034381363627E+00
    0.99049368334286036486E+00
    0.99619899586939941738E+00
    0.99856884267052792303E+00
    0.99937089746815954694E+00
    0.99884957625654069435E+00
    0.99940174065467679565E+00
    0.99895531611060472965E+00
    0.99677871754470359633E+00
    0.99288784514539840664E+00
    0.99584738354250312842E+00
    0.99705688102508061021E+00
    0.99995397282658426974E+00
    0.99999370126877917819E+00
    0.99998402841236189165E+00
    0.99999493188664634324E+00
    0.10000041459236417296E+01
    0.99998417050608179313E+00
    0.99999027493351566598E+00
    0.99999146676276007284E+00
    0.99994265385998593043E+00
    0.99996776909096318775E+00
    0.99996282005144709881E+00
    0.99997201677524971686E+00
    0.99998713532349814415E+00
    0.99998979732154769096E+00
    0.99999872634023034834E+00
    0.10000086996276509321E+01
    0.99998949302235073944E+00
    0.99999769367665936048E+00
    0.10000071403507813095E+01
    0.99998685205921189478E+00
    0.99999630614867629497E+00
    0.10000087801287529388E+01
    0.99999172766728405826E+00
    0.99999688799840891207E+00
    0.10000076917537286114E+01
    0.99999097472060882730E+00
    0.99999577153568930399E+00
    0.99999684195874793957E+00
    0.99995397274958341960E+00
    0.99999370098027084985E+00
    0.99998402722250945285E+00
    0.99999492921299948378E+00
    0.10000041450603054383E+01
    0.99998416919888177823E+00
    0.99999027513999294570E+00
    0.99999146694498475263E+00
    0.99994265431542284084E+00
    0.99996776932752173828E+00
    0.99996282010879677937E+00
    0.99997201677805991338E+00
    0.99998713524878224401E+00
    0.99998979719676384104E+00
    0.99999870260904233366E+00
    0.10000086276360919957E+01
    0.99998925433475416291E+00
    0.99999723311789134872E+00
    0.10000069599602183779E+01
    0.99998659974684456220E+00
    0.99999624024897737495E+00
    0.10000087506800003911E+01
    0.99999172178354023277E+00
    0.99999688457996260826E+00
    0.10000076795488805903E+01
    0.99999096775252560576E+00
    0.99999563964002902150E+00
    0.99999669426842729969E+00
    0.99999947363656638277E+00
    0.10000096138826066738E+01
    0.99998732906931464548E+00
    0.99999552003689173851E+00
    0.10000072929713710312E+01
    0.99998562608408037011E+00
    0.99999665053552322380E+00
    0.10000092412542598286E+01
    0.99999298855737495106E+00
    0.99999868537502711874E+00
    0.10000088819963006692E+01
    0.99999277183531798396E+00
    0.99999554249664157624E+00
    0.99999641565140628963E+00
    0.99996195121199626943E+00
    0.99991790748250852783E+00
    0.99960441265468891192E+00
    0.99914043016304543432E+00
    0.99981575130125044382E+00
    0.99982517380439850374E+00
    0.99996829893183392102E+00
    0.99999722986981587347E+00
    0.99999011333153264847E+00
    0.99999530682977866292E+00
    0.10000001096755142260E+01
    0.99998364882196910663E+00
    0.99996239047270596423E+00
    0.99995279772551104447E+00
    0.99999731099003641432E+00
    0.10000043168532057880E+01
    0.99996539173598009143E+00
    0.99995637475884668888E+00
    0.99999354309663757157E+00
    0.99996767470258784982E+00
    0.99999298033796557572E+00
    0.10000091239716586422E+01
    0.99999223858830654788E+00
    0.99999814754464622091E+00
    0.10000086906181335777E+01
    0.99999172061985130977E+00
    0.99999271382904419969E+00
    0.99999221560593554159E+00
    0.99971693104314085510E+00
    0.99933613938891485695E+00
    0.99780996125644383365E+00
    0.99502909725202948188E+00
    0.99819314439142925455E+00
    0.99624108301512381836E+00
    0.99927478787895018808E+00
    0.99974835511001192145E+00
    0.99993576422805208193E+00
    0.99995848573250034619E+00
    0.99988740129735109718E+00
    0.99989991804043532042E+00
    0.99964610506290818570E+00
    0.99950724333683060863E+00
    0.99995397253655415870E+00
    0.99999370016615440893E+00
    0.99998402430719801615E+00
    0.99999492163206971096E+00
    0.10000041418306975238E+01
    0.99998416260161260283E+00
    0.99999027349321090163E+00
    0.99999146638918123831E+00
    0.99994265420540950906E+00
    0.99996776926458941226E+00
    0.99996281996155422789E+00
    0.99997201669029645021E+00
    0.99998713474329581352E+00
    0.99998979635002416266E+00
    0.99999864500991664240E+00
    0.10000083889868474074E+01
    0.99998870857282251556E+00
    0.99999731162462424106E+00
    0.10000065997556619735E+01
    0.99998549310342221830E+00
    0.99999591388703013006E+00
    0.10000085738265576119E+01
    0.99999169026085421574E+00
    0.99999686785519792398E+00
    0.10000075909236267879E+01
    0.99999094685936373850E+00
    0.99999503761916563871E+00
    0.99999602363148965001E+00
    0.99995397239649441712E+00
    0.99999369948723693113E+00
    0.99998402205602365811E+00
    0.99999491464210266134E+00
    0.10000041376549431149E+01
    0.99998415173545551760E+00
    0.99999027031530529630E+00
    0.99999146541414252187E+00
    0.99994265398304771342E+00
    0.99996776915759777449E+00
    0.99996281978325696205E+00
    0.99997201661557355568E+00
    0.99998713413502959835E+00
    0.99998979521813113891E+00
    0.99999860534952300650E+00
    0.10000082263936116433E+01
    0.99998829909298114771E+00
    0.99999676434185791329E+00
    0.10000062608842921197E+01
    0.99998433500660466322E+00
    0.99999589223894946866E+00
    0.10000083586488071052E+01
    0.99999163249421973987E+00
    0.99999684340269590077E+00
    0.10000075430040789026E+01
    0.99999092970613479014E+00
    0.99999488567141003870E+00
    0.99999577411985107744E+00
    0.99999016366345250262E+00
    0.99998204654135380842E+00
    0.99989960590199877810E+00
    0.99982715729557603002E+00
    0.99993213182124507377E+00
    0.99986889994630034906E+00
    0.99996182518765153180E+00
    0.99999749482202415773E+00
    0.99999004542691372066E+00
    0.99999691221862774260E+00
    0.10000054170795404929E+01
    0.99999028912370224731E+00
    0.99997955674206628895E+00
    0.99997269539604183297E+00
    0.99907720010208600492E+00
    0.99774527171283933225E+00
    0.99386522643784047659E+00
    0.98843854471923442429E+00
    0.99448391353223353217E+00
    0.99049701402360312841E+00
    0.99721672666944904950E+00
    0.99875142718992027113E+00
    0.99963359645453742086E+00
    0.99977035736995378823E+00
    0.99945768683665869858E+00
    0.99963771853660765565E+00