# vtk DataFile Version 3.0
LAPLACIEN  2D
ASCII
DATASET UNSTRUCTURED_GRID
 POINTS        1857  float
   3.1250000000000000E-002  0.93750000000000000        0.0000000000000000     
   6.2500000000000000E-002  0.93750000000000000        0.0000000000000000     
   6.2500000000000000E-002  0.96875000000000000        0.0000000000000000     
   1.8749999999999999E-002  0.95625000000000004        0.0000000000000000     
   4.0625000000000001E-002  0.95937499999999998        0.0000000000000000     
   4.3749999999999997E-002  0.98124999999999996        0.0000000000000000     
   2.1874999999999999E-002  0.97812500000000002        0.0000000000000000     
   9.3750000000000000E-002  0.93750000000000000        0.0000000000000000     
  0.12500000000000000       0.93750000000000000        0.0000000000000000     
  0.12500000000000000       0.96875000000000000        0.0000000000000000     
   8.1250000000000003E-002  0.95625000000000004        0.0000000000000000     
  0.10312499999999999       0.95937499999999998        0.0000000000000000     
  0.10625000000000000       0.98124999999999996        0.0000000000000000     
   8.4375000000000006E-002  0.97812500000000002        0.0000000000000000     
   3.1250000000000000E-002  0.87500000000000000        0.0000000000000000     
   6.2500000000000000E-002  0.87500000000000000        0.0000000000000000     
   6.2500000000000000E-002  0.90625000000000000        0.0000000000000000     
   1.8749999999999999E-002  0.89375000000000004        0.0000000000000000     
   4.0625000000000001E-002  0.89687499999999998        0.0000000000000000     
   4.3749999999999997E-002  0.91874999999999996        0.0000000000000000     
   2.1874999999999999E-002  0.91562500000000002        0.0000000000000000     
   9.3750000000000000E-002  0.87500000000000000        0.0000000000000000     
  0.12500000000000000       0.87500000000000000        0.0000000000000000     
  0.12500000000000000       0.90625000000000000        0.0000000000000000     
   8.1250000000000003E-002  0.89375000000000004        0.0000000000000000     
  0.10312499999999999       0.89687499999999998        0.0000000000000000     
  0.10625000000000000       0.91874999999999996        0.0000000000000000     
   8.4375000000000006E-002  0.91562500000000002        0.0000000000000000     
  0.15625000000000000       0.93750000000000000        0.0000000000000000     
  0.18750000000000000       0.93750000000000000        0.0000000000000000     
  0.18750000000000000       0.96875000000000000        0.0000000000000000     
  0.14374999999999999       0.95625000000000004        0.0000000000000000     
  0.16562499999999999       0.95937499999999998        0.0000000000000000     
  0.16875000000000001       0.98124999999999996        0.0000000000000000     
  0.14687500000000001       0.97812500000000002        0.0000000000000000     
  0.21875000000000000       0.93750000000000000        0.0000000000000000     
  0.25000000000000000       0.93750000000000000        0.0000000000000000     
  0.25000000000000000       0.96875000000000000        0.0000000000000000     
  0.20624999999999999       0.95625000000000004        0.0000000000000000     
  0.22812499999999999       0.95937499999999998        0.0000000000000000     
  0.23125000000000001       0.98124999999999996        0.0000000000000000     
  0.20937500000000001       0.97812500000000002        0.0000000000000000     
  0.15625000000000000       0.87500000000000000        0.0000000000000000     
  0.18750000000000000       0.87500000000000000        0.0000000000000000     
  0.18750000000000000       0.90625000000000000        0.0000000000000000     
  0.14374999999999999       0.89375000000000004        0.0000000000000000     
  0.16562499999999999       0.89687499999999998        0.0000000000000000     
  0.16875000000000001       0.91874999999999996        0.0000000000000000     
  0.14687500000000001       0.91562500000000002        0.0000000000000000     
  0.21875000000000000       0.87500000000000000        0.0000000000000000     
  0.25000000000000000       0.87500000000000000        0.0000000000000000     
  0.25000000000000000       0.90625000000000000        0.0000000000000000     
  0.20624999999999999       0.89375000000000004        0.0000000000000000     
  0.22812499999999999       0.89687499999999998        0.0000000000000000     
  0.23125000000000001       0.91874999999999996        0.0000000000000000     
  0.20937500000000001       0.91562500000000002        0.0000000000000000     
   3.1250000000000000E-002  0.81250000000000000        0.0000000000000000     
   6.2500000000000000E-002  0.81250000000000000        0.0000000000000000     
   6.2500000000000000E-002  0.84375000000000000        0.0000000000000000     
   1.8749999999999999E-002  0.83125000000000004        0.0000000000000000     
   4.0625000000000001E-002  0.83437499999999998        0.0000000000000000     
   4.3749999999999997E-002  0.85624999999999996        0.0000000000000000     
   2.1874999999999999E-002  0.85312500000000002        0.0000000000000000     
   9.3750000000000000E-002  0.81250000000000000        0.0000000000000000     
  0.12500000000000000       0.81250000000000000        0.0000000000000000     
  0.12500000000000000       0.84375000000000000        0.0000000000000000     
   8.1250000000000003E-002  0.83125000000000004        0.0000000000000000     
  0.10312499999999999       0.83437499999999998        0.0000000000000000     
  0.10625000000000000       0.85624999999999996        0.0000000000000000     
   8.4375000000000006E-002  0.85312500000000002        0.0000000000000000     
   3.1250000000000000E-002  0.75000000000000000        0.0000000000000000     
   6.2500000000000000E-002  0.75000000000000000        0.0000000000000000     
   6.2500000000000000E-002  0.78125000000000000        0.0000000000000000     
   1.8749999999999999E-002  0.76875000000000004        0.0000000000000000     
   4.0625000000000001E-002  0.77187499999999998        0.0000000000000000     
   4.3749999999999997E-002  0.79374999999999996        0.0000000000000000     
   2.1874999999999999E-002  0.79062500000000002        0.0000000000000000     
   9.3750000000000000E-002  0.75000000000000000        0.0000000000000000     
  0.12500000000000000       0.75000000000000000        0.0000000000000000     
  0.12500000000000000       0.78125000000000000        0.0000000000000000     
   8.1250000000000003E-002  0.76875000000000004        0.0000000000000000     
  0.10312499999999999       0.77187499999999998        0.0000000000000000     
  0.10625000000000000       0.79374999999999996        0.0000000000000000     
   8.4375000000000006E-002  0.79062500000000002        0.0000000000000000     
  0.15625000000000000       0.81250000000000000        0.0000000000000000     
  0.18750000000000000       0.81250000000000000        0.0000000000000000     
  0.18750000000000000       0.84375000000000000        0.0000000000000000     
  0.14374999999999999       0.83125000000000004        0.0000000000000000     
  0.16562499999999999       0.83437499999999998        0.0000000000000000     
  0.16875000000000001       0.85624999999999996        0.0000000000000000     
  0.14687500000000001       0.85312500000000002        0.0000000000000000     
  0.21875000000000000       0.81250000000000000        0.0000000000000000     
  0.25000000000000000       0.81250000000000000        0.0000000000000000     
  0.25000000000000000       0.84375000000000000        0.0000000000000000     
  0.20624999999999999       0.83125000000000004        0.0000000000000000     
  0.22812499999999999       0.83437499999999998        0.0000000000000000     
  0.23125000000000001       0.85624999999999996        0.0000000000000000     
  0.20937500000000001       0.85312500000000002        0.0000000000000000     
  0.15625000000000000       0.75000000000000000        0.0000000000000000     
  0.18750000000000000       0.75000000000000000        0.0000000000000000     
  0.18750000000000000       0.78125000000000000        0.0000000000000000     
  0.14374999999999999       0.76875000000000004        0.0000000000000000     
  0.16562499999999999       0.77187499999999998        0.0000000000000000     
  0.16875000000000001       0.79374999999999996        0.0000000000000000     
  0.14687500000000001       0.79062500000000002        0.0000000000000000     
  0.21875000000000000       0.75000000000000000        0.0000000000000000     
  0.25000000000000000       0.75000000000000000        0.0000000000000000     
  0.25000000000000000       0.78125000000000000        0.0000000000000000     
  0.20624999999999999       0.76875000000000004        0.0000000000000000     
  0.22812499999999999       0.77187499999999998        0.0000000000000000     
  0.23125000000000001       0.79374999999999996        0.0000000000000000     
  0.20937500000000001       0.79062500000000002        0.0000000000000000     
  0.28125000000000000       0.93750000000000000        0.0000000000000000     
  0.31250000000000000       0.93750000000000000        0.0000000000000000     
  0.31250000000000000       0.96875000000000000        0.0000000000000000     
  0.26874999999999999       0.95625000000000004        0.0000000000000000     
  0.29062500000000002       0.95937499999999998        0.0000000000000000     
  0.29375000000000001       0.98124999999999996        0.0000000000000000     
  0.27187499999999998       0.97812500000000002        0.0000000000000000     
  0.34375000000000000       0.93750000000000000        0.0000000000000000     
  0.37500000000000000       0.93750000000000000        0.0000000000000000     
  0.37500000000000000       0.96875000000000000        0.0000000000000000     
  0.33124999999999999       0.95625000000000004        0.0000000000000000     
  0.35312500000000002       0.95937499999999998        0.0000000000000000     
  0.35625000000000001       0.98124999999999996        0.0000000000000000     
[...]
 CELL_DATA        3584
 SCALARS Endothelial_cells float
 LOOKUP_TABLE default
    0.99992387535022742018E+00
    0.99996140871729199961E+00
    0.99995759924479254988E+00
    0.99996695147087832911E+00
    0.99996275679010637738E+00
    0.99991555071189264225E+00
    0.99994262951096490877E+00
    0.99993442155819101114E+00
    0.99994252477007450342E+00
    0.99994649117418943352E+00
    0.99993812128582615362E+00
    0.99994642966961944097E+00
    0.99995119711134272666E+00
    0.99995154288292920075E+00
    0.99998147252611169211E+00
    0.99998596511683301991E+00
    0.99996918432079295869E+00
    0.99997298497493058989E+00
    0.99996848271185401202E+00
    0.99991793036131459971E+00
    0.99994463118722387573E+00
    0.99993729601201131185E+00
    0.99994333269303770084E+00
    0.99992408052127546014E+00
    0.99996725033616240541E+00
    0.99996594481808354082E+00
    0.99996383669066413180E+00
    0.99996234920787485656E+00
    0.99992573435498943724E+00
    0.99996676812316476202E+00
    0.99996312978050472253E+00
    0.99997818211987254955E+00
    0.99998420221837747146E+00
    0.99996693203092457125E+00
    0.99996547998163365367E+00
    0.99996334131720321370E+00
    0.99991335492984978472E+00
    0.99993990432027013426E+00
    0.99993721563107229588E+00
    0.99994681470909552168E+00
    0.99996156763013521740E+00
    0.99996493347362158666E+00
    0.99998708588342721804E+00
    0.99999570272009608018E+00
    0.99997566624876332853E+00
    0.99998373662594908229E+00
    0.99999338197757892122E+00
    0.99997244509987293082E+00
    0.99997815254152278008E+00
    0.99999331270847657827E+00
    0.99997653165352684557E+00
    0.99998319520777656511E+00
    0.99999815816838966143E+00
    0.99997883741406468072E+00
    0.99998429769692487312E+00
    0.99998438197915917591E+00
    0.99998356584076708575E+00
    0.99998738132657127853E+00
    0.99996994940234207316E+00
    0.99997351701552061876E+00
    0.99996933422060052532E+00
    0.99991857530437422419E+00
    0.99994553375732764255E+00
    0.99993858210898600714E+00
    0.99994500486997117683E+00
    0.99992605556417879509E+00
    0.99996949820809821752E+00
    0.99996982236256259924E+00
    0.99996534802194392277E+00
    0.99996364413011717964E+00
    0.99998247875374357552E+00
    0.99998700636247161988E+00
    0.99996899309395004263E+00
    0.99997225925239219269E+00
    0.99996890663939197452E+00
    0.99991842056022184337E+00
    0.99994547554338353290E+00
    0.99993774356514919521E+00
    0.99994526546169759662E+00
    0.99992652327494202513E+00
    0.99996974154206419438E+00
    0.99996946291839106102E+00
    0.99996511419939804188E+00
    0.99996280164506223809E+00
    0.99998531676928104073E+00
    0.99999521900838661548E+00
    0.99997437096645236387E+00
    0.99998411156145561307E+00
    0.99999400214429212674E+00
    0.99997152109260967201E+00
    0.99997864915485168424E+00
    0.99999421282294587154E+00
    0.99997830178073721097E+00
    0.99998487630763166489E+00
    0.99999711655942857824E+00
    0.99997942700997255461E+00
    0.99998426647905114262E+00
    0.99998461392334703213E+00
    0.99998098450641781376E+00
    0.99999200069120652845E+00
    0.99996092084445442616E+00
    0.99997480791052828497E+00
    0.99999006236477683274E+00
    0.99996869290119394513E+00
    0.99997809705804752145E+00
    0.99999352067822622203E+00
    0.99997715030064249220E+00
    0.99998286055757490409E+00
    0.99999463094589069456E+00
    0.99997807157521712007E+00
    0.99998195149393387382E+00
    0.99998238375297499037E+00
    0.99992632081738375138E+00
    0.99996738552456276850E+00
    0.99996300099023038843E+00
    0.99997672097347367615E+00
    0.99998443116247082152E+00
    0.99996701524649322934E+00
    0.99996863530632440487E+00
    0.99996526076023184437E+00
    0.99991505936996905035E+00
    0.99994145737470108148E+00
    0.99993841455550291908E+00
    0.99994767399541140129E+00
    0.99996265426388974973E+00
    0.99996608070970705029E+00
    0.99998330661385359530E+00
    0.99999430183163318109E+00
    0.99997416259347782219E+00
    0.99998474438484241666E+00
    0.99999524442619436293E+00
    0.99997291499311380392E+00
    0.99998193049346906225E+00
    0.99999548791406689396E+00
    0.99997876585986888998E+00
    0.99998146912240759576E+00
    0.99999370340550575165E+00
    0.99997494758154226169E+00
    0.99998410390789593816E+00
    0.99998538881891474439E+00
    0.99992618550255374377E+00
    0.99996714930818797473E+00
    0.99996221637339799404E+00
    0.99997572393168843163E+00
    0.99998408911965508405E+00
    0.99996657993220561256E+00
    0.99996866169867548724E+00
    0.99996547695022175439E+00
    0.99991549364606557848E+00
    0.99994178190273297346E+00
    0.99993854957397587668E+00
    0.99994770138577560026E+00
    0.99996266386497045797E+00
    0.99996609236094768924E+00
    0.99998192387810924675E+00
    0.99999303746095657974E+00
    0.99996272038116174041E+00
    0.99996846225901114824E+00
    0.99998840497146168627E+00
    0.99996626977816538417E+00
    0.99998104429333456444E+00
    0.99999509846463530138E+00
    0.99997651358445416303E+00
    0.99998040186471448543E+00
    0.99999282008578238568E+00
    0.99997331374028863848E+00
    0.99998144203260019847E+00
    0.99998258923806104814E+00
    0.99997994344509022469E+00
    0.99998824788751483617E+00
    0.99994810220572494242E+00
    0.99995801684660157171E+00
    0.99998446106916583087E+00
    0.99996514329825136880E+00
    0.99998054154501603286E+00
    0.99999594857919016366E+00
    0.99997845728694301215E+00
    0.99998386610926293105E+00
    0.99999598556789004444E+00
    0.99997828282546741274E+00
    0.99998152157026964915E+00
    0.99998211971807593468E+00
    0.99985804770926722806E+00
    0.99984692498097160751E+00
    0.99965467815387409889E+00
    0.99969510552491835931E+00
    0.99986365830402501587E+00
    0.99988307242009988318E+00
    0.99994874686374790596E+00
    0.99996560405315382258E+00
    0.99996877689900243169E+00
    0.99997070406193255820E+00
    0.99996544592141090035E+00
    0.99993636366250526759E+00
    0.99991517681030939180E+00
    0.99991874804527158815E+00
    0.99990050319119061495E+00
    0.99986733638804048407E+00
    0.99968065863140131988E+00
    0.99966076161753913976E+00
    0.99984082499339910211E+00
    0.99984124521428507926E+00
    0.99993546662567167616E+00
    0.99996350714902515477E+00
    0.99996898118000865363E+00
    0.99997226391414517632E+00
    0.99996550859500743513E+00
    0.99994807330746215968E+00
    0.99991703758365324539E+00
    0.99991404099933900440E+00
    0.99883422125573106953E+00
    0.99848748387863606180E+00
    0.99684768492382647143E+00
    0.99685807209013110874E+00
    0.99848165891970508401E+00
    0.99881465020031279245E+00
    0.99948450646380104789E+00
    0.99954997474012607928E+00
    0.99979173209812366441E+00
    0.99979345198451108345E+00
    0.99955201797229431548E+00
    0.99948522944726725381E+00
    0.99916061095847719109E+00
    0.99916058971432852864E+00
    0.99998021345758325573E+00
    0.99998630958468870400E+00
    0.99996640725765506552E+00
    0.99997071967875439391E+00
    0.99996693076991483018E+00
    0.99991734604824811239E+00
    0.99994442208171419040E+00
    0.99993484524675613212E+00
    0.99994455851013286374E+00
    0.99992619262854653961E+00
    0.99996857584954879083E+00
    0.99996718663719463827E+00
    0.99996286997627759074E+00
    0.99995974418707778142E+00
    0.99997345382038571593E+00
    0.99998372140868219127E+00
    0.99995700835942769036E+00
    0.99996711697332629765E+00
    0.99996559219411162989E+00
    0.99991517071214452983E+00
    0.99994252057724064553E+00
    0.99993211600284359619E+00
    0.99994316318619180795E+00
    0.99992492974042401777E+00
    0.99996568968343113593E+00
    0.99996440923893159525E+00
    0.99995930069977478905E+00
    0.99995629106618855175E+00
    0.99992652041463325752E+00
    0.99994344086570607910E+00
    0.99985885007682617776E+00
    0.99989942445479684796E+00
    0.99995744615620230089E+00
    0.99995078043981899807E+00
    0.99997116964809196205E+00
    0.99998765817619783558E+00
    0.99997397796430431693E+00
    0.99997790880757597698E+00
    0.99998819013764816965E+00
    0.99996233363740827382E+00
    0.99996272896619053938E+00
    0.99996602869742801101E+00
    0.99970313736970828344E+00
    0.99976565763851665825E+00
    0.99955068620206088958E+00
    0.99968651904807381836E+00
    0.99985936271817876797E+00
    0.99990079249039853782E+00
    0.99994917056770959984E+00
    0.99995668701609941031E+00
    0.99995954586343882564E+00
    0.99995603122804066487E+00
    0.99993164296055947471E+00
    0.99986666380697042378E+00
    0.99988075873446502495E+00
    0.99989855339675537405E+00
    0.99995330540652005435E+00
    0.99997211872218005890E+00
    0.99993636957691633960E+00
    0.99995591232921465785E+00
    0.99996043299634707058E+00
    0.99991224419849911165E+00
    0.99994001515467623165E+00
    0.99992885823509591869E+00
    0.99994089175500699973E+00
    0.99992252709153395251E+00
    0.99996523334389553206E+00
    0.99995915872861484974E+00
    0.99995509430090645520E+00
    0.99995159018414858654E+00
    0.99992813631153409926E+00
    0.99995922563219530321E+00
    0.99992024486731478916E+00
    0.99994564924733930766E+00
    0.99995629956988685283E+00
    0.99991053968666121499E+00
    0.99993834588280416931E+00
    0.99992625154416947542E+00
    0.99993859858581601863E+00
    0.99991972864240874497E+00
    0.99996052138093050043E+00
    0.99994792738587690017E+00
    0.99994934550617231572E+00
    0.99994730173992019129E+00
    0.99920161774967142243E+00
    0.99941997224285838985E+00
    0.99903811116473162368E+00
    0.99936488012279078852E+00
    0.99970222697712285420E+00
    0.99982799259952048754E+00
    0.99991173867103266826E+00
    0.99989573612964643967E+00
    0.99992424327972728726E+00
    0.99990102330949204301E+00
    0.99979725995476931288E+00
    0.99962448008915716358E+00
    0.99971541552498366379E+00
    0.99976981831606370754E+00
    0.99861493959479052940E+00
    0.99909054683489217918E+00
    0.99866216431760679306E+00
    0.99916835576565954380E+00
    0.99959460014277357054E+00
    0.99978786377274952990E+00
    0.99988445755747490384E+00
    0.99983913989943562495E+00
    0.99988241478299821896E+00
    0.99982923821070535109E+00
    0.99963515317632933854E+00
    0.99930175160766843145E+00
    0.99955291140890656365E+00
    0.99965322221503793987E+00
    0.99901327928469507711E+00
    0.99900480196729335436E+00
    0.99808378135511843787E+00
    0.99842088580521970442E+00
    0.99925492630495493795E+00
    0.99950932082082544206E+00
    0.99977978119484967046E+00
    0.99977267303352235217E+00
    0.99988012230824940829E+00
    0.99986349270349672569E+00
    0.99969997628840712167E+00
    0.99956915953221170401E+00
    0.99948980963663458521E+00
    0.99953606717923182412E+00
    0.99564410167741723701E+00
    0.99612921961644929070E+00
    0.99332202412820636006E+00
    0.99488951968349403909E+00
    0.99749226054073891756E+00
    0.99851891086342925430E+00
    0.99928344659002465988E+00
    0.99912832008560925612E+00
    0.99953679892339342139E+00
    0.99941485388341377849E+00
    0.99864731757341185236E+00
    0.99797165367117623980E+00
    0.99801200386971022915E+00
    0.99827285186564740371E+00
    0.98937519295470388592E+00
    0.98818511272942433088E+00
    0.97594480377902281809E+00
    0.98031750465828515484E+00
    0.99066713989584187505E+00
    0.99376926218701655547E+00
    0.99708562607069040062E+00
    0.99699918149264543654E+00
    0.99857342378447289111E+00
    0.99843732778893767854E+00
    0.99640707634115532887E+00
    0.99544862477064566253E+00
    0.99395271036634447182E+00
    0.99437113089904161090E+00
    0.94292432586743735179E+00
    0.95170372495972943572E+00
    0.91993404172498405291E+00
    0.93871514347483253626E+00
    0.96844430474516718377E+00
    0.98027590930089292254E+00
    0.98988445674385849848E+00
    0.98813621079627567134E+00
    0.99367117754645772898E+00
    0.99232888956143627812E+00
    0.98261879187341816255E+00
    0.97429577792153843063E+00
    0.97478838908585396794E+00
    0.97791163342337938946E+00
    0.98800272650832943189E+00
    0.99050586458098643927E+00
    0.98532000863453850226E+00
    0.98948952032370696141E+00
    0.99463911556065942587E+00
    0.99706744570159655527E+00
    0.99846581209285800718E+00
    0.99789680378227652024E+00
    0.99877091792635108725E+00
    0.99832361331614039024E+00
    0.99623075836099117542E+00
    0.99396714056807489168E+00
    0.99506361730523817943E+00
    0.99588725513861930949E+00
    0.97899720992067684744E+00
    0.98509677622727387369E+00
    0.97940702724239248056E+00
    0.98617646726380359112E+00
    0.99266642717971964593E+00
    0.99625780029444821473E+00
    0.99787427824952346089E+00
    0.99674674516051553486E+00
    0.99787222248555862425E+00
    0.99688826309018996330E+00
    0.99329072276037422284E+00
    0.98854601618039683597E+00
    0.99213664806875423441E+00
    0.99370752837785480960E+00
    0.87324666598013900298E+00
    0.89677112591527963215E+00
    0.85308529441605962518E+00
    0.88566679549091897883E+00
    0.93547219115203084083E+00
    0.96093346982673122358E+00
    0.97799881864223581207E+00
    0.97148573978699426235E+00
    0.98264318931684535574E+00
    0.97754483091498733938E+00
    0.95361011306583287617E+00
    0.92989562112741996902E+00
    0.94056460111765916032E+00
    0.94892594556900844438E+00
    0.80958266958384750289E+00
    0.85122396436205605141E+00
    0.81040179489767938392E+00
    0.85595785962101744726E+00
    0.91365958720215956212E+00
    0.95015423561253686824E+00
    0.96936800233277409244E+00
    0.95614246705777294899E+00
    0.96970146979490301486E+00
    0.95842649792361467309E+00
    0.92090996849875794705E+00
    0.87791430646139079208E+00
    0.90884757986112363337E+00
    0.92367366420860186338E+00
    0.99992519093341825087E+00
    0.99996513500185046919E+00
    0.99995933885186194523E+00
    0.99997492595443016050E+00
    0.99998379005372395323E+00
    0.99996414384444898271E+00
    0.99996794873427963246E+00
    0.99996467673355649008E+00
    0.99991522246698283372E+00
    0.99994117271921822976E+00
    0.99993575704348558464E+00
    0.99994676286235251172E+00
    0.99995972604114835569E+00
    0.99996413309209031262E+00
    0.99996579065498214511E+00
    0.99996051615885239716E+00
    0.99988554790617079071E+00
    0.99986477124877104483E+00
    0.99993843622993994202E+00
    0.99991175040245805494E+00
    0.99996158658452294343E+00
    0.99998615770737386832E+00
    0.99997395623698592804E+00
    0.99997660324244863617E+00
    0.99998679141359581024E+00
    0.99996884642091921069E+00
    0.99996422621324432267E+00
    0.99996179570288457050E+00
    0.99992362771275544731E+00
    0.99996456773752773195E+00
    0.99995402536239563762E+00
    0.99996360071563350491E+00
    0.99997902091983481565E+00
    0.99995723671489522566E+00
    0.99996535826593646590E+00
    0.99996248850115121432E+00
    0.99991404013016804697E+00
    0.99993981659404651552E+00
    0.99993297621219279225E+00
    0.99994542601982150387E+00
    0.99995590715623428046E+00
    0.99996000158979536643E+00
    0.99991694770145611582E+00
    0.99986243061154267409E+00
    0.99967196775607314319E+00
    0.99955641706534248403E+00
    0.99976228373941899985E+00
    0.99968995564560703126E+00
    0.99986440659061759373E+00
    0.99992901627668262510E+00
    0.99995565994554835854E+00
    0.99996363883740346790E+00
    0.99995599325294293180E+00
    0.99994740473745113984E+00
    0.99989644652988873830E+00
    0.99987959504958612289E+00
    0.99952787417504418421E+00
    0.99925854549322901121E+00
    0.99840554431372385835E+00
    0.99808846074470525256E+00
    0.99899781884438354496E+00
    0.99899732353369941062E+00
    0.99956578881809854398E+00
    0.99969750125977585586E+00
    0.99986556049144703628E+00
    0.99988586659180012095E+00
    0.99977283712978692876E+00
    0.99977878999867275667E+00
    0.99953385849824682996E+00
    0.99948785252754823727E+00
    0.99378875503446495454E+00
    0.99067102124542771868E+00
    0.98030219629239145895E+00
    0.97594956694221679516E+00
    0.98817716910843855782E+00
    0.98935681520193774485E+00
    0.99544602100936574463E+00
    0.99640506958306895857E+00
    0.99844120686762583006E+00
    0.99857969145014646717E+00
    0.99699948604019617004E+00
    0.99708431064627267570E+00
    0.99436877882298324582E+00
    0.99395041763240821187E+00
    0.99853797246970477097E+00
    0.99749604463021723788E+00
    0.99487411268624581506E+00
    0.99332706348323196455E+00
    0.99612556063628043823E+00
    0.99563104725730222633E+00
    0.99796806508990165696E+00
    0.99864522251316822921E+00
    0.99941832759393467445E+00
    0.99954393164359467416E+00
    0.99912891976909345981E+00
    0.99928245007701954616E+00
    0.99827099033463762012E+00
    0.99801078586651481572E+00
    0.98029540512916246708E+00
    0.96844853172114375717E+00
    0.93870057973907983229E+00
    0.91993801432031441223E+00
    0.95170005407543023512E+00
    0.94291202647213057109E+00
    0.97429186921830790435E+00
    0.98261709937760788325E+00
    0.99233363761414083992E+00
    0.99367898802041143558E+00
    0.98813724081785481168E+00
    0.98988344147906026649E+00
    0.97791002865004161837E+00
    0.97478728678994353007E+00
    0.99992209483811311799E+00
    0.99995981625764329692E+00
    0.99994261005565687750E+00
    0.99994258235544142277E+00
    0.99996877969050657065E+00
    0.99993877413778320395E+00
    0.99995821338724855121E+00
    0.99996086266118455743E+00
    0.99991163262442683823E+00
    0.99993757670258986980E+00
    0.99992964515468585329E+00
    0.99994440742556389701E+00
    0.99995048807817255021E+00
    0.99995523778313710750E+00
    0.99984432346942531122E+00
    0.99970522059547883842E+00
    0.99935015121175696517E+00
    0.99904376751033929782E+00
    0.99941667918039600593E+00
    0.99918867702656355423E+00
    0.99962159617081369767E+00
    0.99979459129921310900E+00
    0.99990190701366721271E+00
    0.99992927243559115436E+00
    0.99989520661815656233E+00
    0.99990992416445623192E+00
    0.99976757555054474036E+00
    0.99971409755770024308E+00
    0.99992066825974990074E+00
    0.99995604541504146123E+00
    0.99993515779796382503E+00
    0.99992657597164924521E+00
    0.99995630081101039011E+00
    0.99991410937342284360E+00
    0.99994651034101067477E+00
    0.99995539994930404681E+00
    0.99990879431357559959E+00
    0.99993527424238604073E+00
    0.99992698473299346240E+00
    0.99994295638829588935E+00
    0.99994597942053997652E+00
    0.99994922738322633560E+00
    0.99979788085562826261E+00
    0.99959708512646927581E+00
    0.99915436951778857644E+00
    0.99866691569967580566E+00
    0.99908721872746875103E+00
    0.99860207491797425838E+00
    0.99929871347081267174E+00
    0.99963247616792794137E+00
    0.99983038878543339933E+00
    0.99988784332015900880E+00
    0.99983862116544730547E+00
    0.99988182256958679783E+00
    0.99965097826260562730E+00
    0.99955161135862824473E+00
    0.99708663304259403937E+00
    0.99464297164322523770E+00
    0.98947415025718277182E+00
    0.98532492187251996540E+00
    0.99050231868417504266E+00
    0.98798996217058709934E+00
    0.99396340338501698586E+00
    0.99622883536936224225E+00
    0.99832772676744896412E+00
    0.99877855251853087104E+00
    0.99789763969719491588E+00
    0.99846485265320294999E+00
    0.99588549098314405050E+00
    0.99506248443512934632E+00
    0.96095249886412625884E+00
    0.93547681129743887052E+00
    0.88565344710682092355E+00
    0.85308818102673855677E+00
    0.89676777747437863564E+00
    0.87323534386135792662E+00
    0.92989186073799590115E+00
    0.95360880911539036564E+00
    0.97754995485637108388E+00
    0.98265112191564829569E+00
    0.97148703048139684046E+00
    0.97799787504942403693E+00