# vtk DataFile Version 3.0
LAPLACIEN  2D
ASCII
DATASET UNSTRUCTURED_GRID
 POINTS        1857  float
   3.1250000000000000E-002  0.93750000000000000        0.0000000000000000     
   6.2500000000000000E-002  0.93750000000000000        0.0000000000000000     
   6.2500000000000000E-002  0.96875000000000000        0.0000000000000000     
   1.8749999999999999E-002  0.95625000000000004        0.0000000000000000     
   4.0625000000000001E-002  0.95937499999999998        0.0000000000000000     
   4.3749999999999997E-002  0.98124999999999996        0.0000000000000000     
   2.1874999999999999E-002  0.97812500000000002        0.0000000000000000     
   9.3750000000000000E-002  0.93750000000000000        0.0000000000000000     
  0.12500000000000000       0.93750000000000000        0.0000000000000000     
  0.12500000000000000       0.96875000000000000        0.0000000000000000     
   8.1250000000000003E-002  0.95625000000000004        0.0000000000000000     
  0.10312499999999999       0.95937499999999998        0.0000000000000000     
  0.10625000000000000       0.98124999999999996        0.0000000000000000     
   8.4375000000000006E-002  0.97812500000000002        0.0000000000000000     
   3.1250000000000000E-002  0.87500000000000000        0.0000000000000000     
   6.2500000000000000E-002  0.87500000000000000        0.0000000000000000     
   6.2500000000000000E-002  0.90625000000000000        0.0000000000000000     
   1.8749999999999999E-002  0.89375000000000004        0.0000000000000000     
   4.0625000000000001E-002  0.89687499999999998        0.0000000000000000     
   4.3749999999999997E-002  0.91874999999999996        0.0000000000000000     
   2.1874999999999999E-002  0.91562500000000002        0.0000000000000000     
   9.3750000000000000E-002  0.87500000000000000        0.0000000000000000     
  0.12500000000000000       0.87500000000000000        0.0000000000000000     
  0.12500000000000000       0.90625000000000000        0.0000000000000000     
   8.1250000000000003E-002  0.89375000000000004        0.0000000000000000     
  0.10312499999999999       0.89687499999999998        0.0000000000000000     
  0.10625000000000000       0.91874999999999996        0.0000000000000000     
   8.4375000000000006E-002  0.91562500000000002        0.0000000000000000     
  0.15625000000000000       0.93750000000000000        0.0000000000000000     
  0.18750000000000000       0.93750000000000000        0.0000000000000000     
  0.18750000000000000       0.96875000000000000        0.0000000000000000     
  0.14374999999999999       0.95625000000000004        0.0000000000000000     
  0.16562499999999999       0.95937499999999998        0.0000000000000000     
  0.16875000000000001       0.98124999999999996        0.0000000000000000     
  0.14687500000000001       0.97812500000000002        0.0000000000000000     
  0.21875000000000000       0.93750000000000000        0.0000000000000000     
  0.25000000000000000       0.93750000000000000        0.0000000000000000     
  0.25000000000000000       0.96875000000000000        0.0000000000000000     
  0.20624999999999999       0.95625000000000004        0.0000000000000000     
  0.22812499999999999       0.95937499999999998        0.0000000000000000     
  0.23125000000000001       0.98124999999999996        0.0000000000000000     
  0.20937500000000001       0.97812500000000002        0.0000000000000000     
  0.15625000000000000       0.87500000000000000        0.0000000000000000     
  0.18750000000000000       0.87500000000000000        0.0000000000000000     
  0.18750000000000000       0.90625000000000000        0.0000000000000000     
  0.14374999999999999       0.89375000000000004        0.0000000000000000     
  0.16562499999999999       0.89687499999999998        0.0000000000000000     
  0.16875000000000001       0.91874999999999996        0.0000000000000000     
  0.14687500000000001       0.91562500000000002        0.0000000000000000     
  0.21875000000000000       0.87500000000000000        0.0000000000000000     
  0.25000000000000000       0.87500000000000000        0.0000000000000000     
  0.25000000000000000       0.90625000000000000        0.0000000000000000     
  0.20624999999999999       0.89375000000000004        0.0000000000000000     
  0.22812499999999999       0.89687499999999998        0.0000000000000000     
  0.23125000000000001       0.91874999999999996        0.0000000000000000     
  0.20937500000000001       0.91562500000000002        0.0000000000000000     
   3.1250000000000000E-002  0.81250000000000000        0.0000000000000000     
   6.2500000000000000E-002  0.81250000000000000        0.0000000000000000     
   6.2500000000000000E-002  0.84375000000000000        0.0000000000000000     
   1.8749999999999999E-002  0.83125000000000004        0.0000000000000000     
   4.0625000000000001E-002  0.83437499999999998        0.0000000000000000     
   4.3749999999999997E-002  0.85624999999999996        0.0000000000000000     
   2.1874999999999999E-002  0.85312500000000002        0.0000000000000000     
   9.3750000000000000E-002  0.81250000000000000        0.0000000000000000     
  0.12500000000000000       0.81250000000000000        0.0000000000000000     
  0.12500000000000000       0.84375000000000000        0.0000000000000000     
   8.1250000000000003E-002  0.83125000000000004        0.0000000000000000     
  0.10312499999999999       0.83437499999999998        0.0000000000000000     
  0.10625000000000000       0.85624999999999996        0.0000000000000000     
   8.4375000000000006E-002  0.85312500000000002        0.0000000000000000     
   3.1250000000000000E-002  0.75000000000000000        0.0000000000000000     
   6.2500000000000000E-002  0.75000000000000000        0.0000000000000000     
   6.2500000000000000E-002  0.78125000000000000        0.0000000000000000     
   1.8749999999999999E-002  0.76875000000000004        0.0000000000000000     
   4.0625000000000001E-002  0.77187499999999998        0.0000000000000000     
   4.3749999999999997E-002  0.79374999999999996        0.0000000000000000     
   2.1874999999999999E-002  0.79062500000000002        0.0000000000000000     
   9.3750000000000000E-002  0.75000000000000000        0.0000000000000000     
  0.12500000000000000       0.75000000000000000        0.0000000000000000     
  0.12500000000000000       0.78125000000000000        0.0000000000000000     
   8.1250000000000003E-002  0.76875000000000004        0.0000000000000000     
  0.10312499999999999       0.77187499999999998        0.0000000000000000     
  0.10625000000000000       0.79374999999999996        0.0000000000000000     
   8.4375000000000006E-002  0.79062500000000002        0.0000000000000000     
  0.15625000000000000       0.81250000000000000        0.0000000000000000     
  0.18750000000000000       0.81250000000000000        0.0000000000000000     
  0.18750000000000000       0.84375000000000000        0.0000000000000000     
  0.14374999999999999       0.83125000000000004        0.0000000000000000     
  0.16562499999999999       0.83437499999999998        0.0000000000000000     
  0.16875000000000001       0.85624999999999996        0.0000000000000000     
  0.14687500000000001       0.85312500000000002        0.0000000000000000     
  0.21875000000000000       0.81250000000000000        0.0000000000000000     
  0.25000000000000000       0.81250000000000000        0.0000000000000000     
  0.25000000000000000       0.84375000000000000        0.0000000000000000     
  0.20624999999999999       0.83125000000000004        0.0000000000000000     
  0.22812499999999999       0.83437499999999998        0.0000000000000000     
  0.23125000000000001       0.85624999999999996        0.0000000000000000     
  0.20937500000000001       0.85312500000000002        0.0000000000000000     
  0.15625000000000000       0.75000000000000000        0.0000000000000000     
  0.18750000000000000       0.75000000000000000        0.0000000000000000     
  0.18750000000000000       0.78125000000000000        0.0000000000000000     
  0.14374999999999999       0.76875000000000004        0.0000000000000000     
  0.16562499999999999       0.77187499999999998        0.0000000000000000     
  0.16875000000000001       0.79374999999999996        0.0000000000000000     
  0.14687500000000001       0.79062500000000002        0.0000000000000000     
  0.21875000000000000       0.75000000000000000        0.0000000000000000     
  0.25000000000000000       0.75000000000000000        0.0000000000000000     
  0.25000000000000000       0.78125000000000000        0.0000000000000000     
  0.20624999999999999       0.76875000000000004        0.0000000000000000     
  0.22812499999999999       0.77187499999999998        0.0000000000000000     
  0.23125000000000001       0.79374999999999996        0.0000000000000000     
  0.20937500000000001       0.79062500000000002        0.0000000000000000     
  0.28125000000000000       0.93750000000000000        0.0000000000000000     
  0.31250000000000000       0.93750000000000000        0.0000000000000000     
  0.31250000000000000       0.96875000000000000        0.0000000000000000     
  0.26874999999999999       0.95625000000000004        0.0000000000000000     
  0.29062500000000002       0.95937499999999998        0.0000000000000000     
  0.29375000000000001       0.98124999999999996        0.0000000000000000     
  0.27187499999999998       0.97812500000000002        0.0000000000000000     
  0.34375000000000000       0.93750000000000000        0.0000000000000000     
  0.37500000000000000       0.93750000000000000        0.0000000000000000     
  0.37500000000000000       0.96875000000000000        0.0000000000000000     
  0.33124999999999999       0.95625000000000004        0.0000000000000000     
  0.35312500000000002       0.95937499999999998        0.0000000000000000     
  0.35625000000000001       0.98124999999999996        0.0000000000000000     
[...]
 CELL_DATA        3584
 SCALARS Endothelial_cells float
 LOOKUP_TABLE default
    0.99993711634719928405E+00
    0.99997578621397908982E+00
    0.99996937504888760984E+00
    0.99997866678984059785E+00
    0.99997687699124060412E+00
    0.99992837305958359728E+00
    0.99995588702380278079E+00
    0.99994866163696161099E+00
    0.99995416060852038154E+00
    0.99995823939869099561E+00
    0.99995260221896209440E+00
    0.99995973057055465016E+00
    0.99996729429100661424E+00
    0.99996753461937726293E+00
    0.99999011536322812699E+00
    0.99999549814594845820E+00
    0.99997799786662588950E+00
    0.99998282618743705719E+00
    0.99997983653766253642E+00
    0.99992975023250396660E+00
    0.99995644255602489370E+00
    0.99994890107512757194E+00
    0.99995589282556951449E+00
    0.99993667475416336821E+00
    0.99997897344265307407E+00
    0.99997672041879903659E+00
    0.99997450674275478733E+00
    0.99997329472507867631E+00
    0.99993819867933941836E+00
    0.99997855461228302154E+00
    0.99997312893783996124E+00
    0.99998670285887070186E+00
    0.99999367334021183051E+00
    0.99997554664098942112E+00
    0.99997658709116898912E+00
    0.99997538612052638829E+00
    0.99992611451940160983E+00
    0.99995274250451060549E+00
    0.99994916945353340409E+00
    0.99995902096219713151E+00
    0.99997284993347146376E+00
    0.99997589186081126122E+00
    0.99999369542634763963E+00
    0.10000021062781039305E+01
    0.99998265245957795866E+00
    0.99999072321784043815E+00
    0.99999997037898868957E+00
    0.99997911475231815448E+00
    0.99998617406263534679E+00
    0.10000004169816643085E+01
    0.99998418350179429925E+00
    0.99999093235863512064E+00
    0.10000047189140244264E+01
    0.99998611367918743831E+00
    0.99998993741999742113E+00
    0.99999017756042241079E+00
    0.99999170487038613331E+00
    0.99999667595234820183E+00
    0.99997876124070927961E+00
    0.99998340487470638305E+00
    0.99998053531770381142E+00
    0.99993026180708577400E+00
    0.99995715475006485828E+00
    0.99994994260889713544E+00
    0.99995725413890257371E+00
    0.99993812341872223559E+00
    0.99998070495852908746E+00
    0.99997950201588470254E+00
    0.99997572210383678382E+00
    0.99997433831170801088E+00
    0.99999196310741866878E+00
    0.99999684390568788217E+00
    0.99997881799756349608E+00
    0.99998344547619988365E+00
    0.99998062285523159343E+00
    0.99993032516535984566E+00
    0.99995725855423334139E+00
    0.99995011796564770012E+00
    0.99995753834112111047E+00
    0.99993850699478681321E+00
    0.99998102231626284642E+00
    0.99997993731990297839E+00
    0.99997591388249296163E+00
    0.99997449780305736056E+00
    0.99999297758891958487E+00
    0.10000024782419925096E+01
    0.99998319431659732359E+00
    0.99999115240317781872E+00
    0.10000005472728641376E+01
    0.99997938346049464187E+00
    0.99998690506317433613E+00
    0.10000013668270471001E+01
    0.99998539571502742529E+00
    0.99999206060346434999E+00
    0.10000041174495868379E+01
    0.99998625777803817893E+00
    0.99999023926715358002E+00
    0.99999079284524161615E+00
    0.99999257789894213655E+00
    0.10000019228703782570E+01
    0.99998178345693333746E+00
    0.99999019378919062895E+00
    0.10000001013633934566E+01
    0.99997915781901081100E+00
    0.99998691296058217493E+00
    0.10000014290860537169E+01
    0.99998551361678422733E+00
    0.99999110435484250825E+00
    0.10000023094173247085E+01
    0.99998634865856017573E+00
    0.99998995810204971413E+00
    0.99999066152511961736E+00
    0.99993868529289331448E+00
    0.99997916441232914675E+00
    0.99997334845393082148E+00
    0.99998603364251004155E+00
    0.99999420228824287271E+00
    0.99997571613493463349E+00
    0.99997891205305777795E+00
    0.99997697678446517688E+00
    0.99992744777855990801E+00
    0.99995406191564817355E+00
    0.99995017924288831512E+00
    0.99995971170218256319E+00
    0.99997381908536842055E+00
    0.99997695534864550204E+00
    0.99999136070249394770E+00
    0.10000019928070724706E+01
    0.99998299077117402955E+00
    0.99999130755232235046E+00
    0.10000011704052476080E+01
    0.99998058812098677972E+00
    0.99998918600520214639E+00
    0.10000021689334777086E+01
    0.99998549034996919715E+00
    0.99998928272802167783E+00
    0.10000010303723330107E+01
    0.99998335446929487169E+00
    0.99999065616375260035E+00
    0.99999178152442125267E+00
    0.99993874508605118390E+00
    0.99997924700307683210E+00
    0.99997338663385737512E+00
    0.99998609339193533785E+00
    0.99999435211258547174E+00
    0.99997589852574664260E+00
    0.99997921503125020148E+00
    0.99997726353577132130E+00
    0.99992781345791903469E+00
    0.99995433354115126345E+00
    0.99995034622638501176E+00
    0.99995981028187053141E+00
    0.99997396981198904964E+00
    0.99997713456235770568E+00
    0.99999116317901226569E+00
    0.10000016908682143324E+01
    0.99998189375012747071E+00
    0.99999135362676772054E+00
    0.10000014281599389765E+01
    0.99998020588131952824E+00
    0.99998936639728985831E+00
    0.10000022302376072592E+01
    0.99998475954247723063E+00
    0.99998930161338395184E+00
    0.10000011828620680721E+01
    0.99998338458397273421E+00
    0.99999073691995976620E+00
    0.99999184525094808595E+00
    0.99999266915434492642E+00
    0.10000029791763702658E+01
    0.99998198024425177799E+00
    0.99999186751667867856E+00
    0.10000022610990286775E+01
    0.99998034629999221767E+00
    0.99998966272594780325E+00
    0.10000028655751462825E+01
    0.99998647777203453213E+00
    0.99999212979201546059E+00
    0.10000029959997800422E+01
    0.99998660028338359762E+00
    0.99999063107911201342E+00
    0.99999156582986736819E+00
    0.99998380299978117947E+00
    0.99999249140411772263E+00
    0.99994997029725884996E+00
    0.99996456257231691733E+00
    0.99999155101716175054E+00
    0.99997391388764711451E+00
    0.99998837777061477805E+00
    0.10000027090419387754E+01
    0.99998567158056816950E+00
    0.99999129488131766053E+00
    0.10000023477154933449E+01
    0.99998477789420980866E+00
    0.99998722407912221666E+00
    0.99998828681064944046E+00
    0.99998808239454062274E+00
    0.99999467225051041908E+00
    0.99995245155855716490E+00
    0.99995749780091602865E+00
    0.99998860753249541045E+00
    0.99996914721551510841E+00
    0.99998807227758235161E+00
    0.10000033975378677109E+01
    0.99998567161000484482E+00
    0.99999129396455033181E+00
    0.10000026507524970576E+01
    0.99998526758266736980E+00
    0.99998706159897465806E+00
    0.99998738689971711224E+00
    0.99981126297988731633E+00
    0.99974778179753098772E+00
    0.99936530758142794184E+00
    0.99937558752231636650E+00
    0.99974300778509994636E+00
    0.99979396614839088908E+00
    0.99992591273480224690E+00
    0.99995064602526773090E+00
    0.99996889730197535684E+00
    0.99997176083097738530E+00
    0.99995176692735099344E+00
    0.99992568152272098825E+00
    0.99987105520679553372E+00
    0.99987141044018157388E+00
    0.99999182594426350157E+00
    0.99999671951829693928E+00
    0.99997849187343057498E+00
    0.99998308913744315962E+00
    0.99998054587955576000E+00
    0.99993029435085623025E+00
    0.99995725128719914476E+00
    0.99995011948558620851E+00
    0.99995756436881566565E+00
    0.99993854688128669395E+00
    0.99998103066381816006E+00
    0.99997993739660606671E+00
    0.99997588268423653890E+00
    0.99997447249120907653E+00
    0.99999003430879307430E+00
    0.99999605458012452708E+00
    0.99997744213794581558E+00
    0.99998220206757748585E+00
    0.99998025706317106298E+00
    0.99993017707933973259E+00
    0.99995719037312069677E+00
    0.99995004968513256927E+00
    0.99995752934946890988E+00
    0.99993850107177595365E+00
    0.99998080121738031067E+00
    0.99997867502903514669E+00
    0.99997565462504134359E+00
    0.99997430413476240396E+00
    0.99999019237280195593E+00
    0.10000014266757768500E+01
    0.99997552737884110030E+00
    0.99998842257488107510E+00
    0.99999988732865741081E+00
    0.99997770951376852011E+00
    0.99998630781055153349E+00
    0.10000006896272568557E+01
    0.99998524483018591535E+00
    0.99999074654696606945E+00
    0.10000010889093702282E+01
    0.99998496081712640038E+00
    0.99998844627727667689E+00
    0.99998936834297513787E+00
    0.99996445902492536728E+00
    0.99998371396847518522E+00
    0.99993303684533263453E+00
    0.99996303046245826884E+00
    0.99998998828552532192E+00
    0.99997399930593044992E+00
    0.99998546528852694237E+00
    0.10000005012568604634E+01
    0.99998372664196000237E+00
    0.99998887460769703139E+00
    0.10000012937658733225E+01
    0.99997983139393797902E+00
    0.99998309711243082987E+00
    0.99998537476173210425E+00
    0.99998902838093983725E+00
    0.99999469003223184771E+00
    0.99997576239500840511E+00
    0.99998129542379377011E+00
    0.99997956494876494293E+00
    0.99992997435360042591E+00
    0.99995691987246282384E+00
    0.99994846090079614331E+00
    0.99995728786857929205E+00
    0.99993835193626545710E+00
    0.99998026946710683038E+00
    0.99997736004599613313E+00
    0.99997469793025861584E+00
    0.99997270029855056528E+00
    0.99998794298671778158E+00
    0.99999483434370195489E+00
    0.99997496862398804751E+00
    0.99998116625333288709E+00
    0.99997914121684905453E+00
    0.99992984902202186603E+00
    0.99995673073116320140E+00
    0.99994774146226717004E+00
    0.99995707230925534592E+00
    0.99993814704650252345E+00
    0.99997967449394631334E+00
    0.99997606447124498530E+00
    0.99997393892661801118E+00
    0.99997187266679188333E+00
    0.99988142018413928014E+00
    0.99993071692521384719E+00
    0.99984243217591428632E+00
    0.99991201271788232585E+00
    0.99996886538569129677E+00
    0.99996576063630826514E+00
    0.99998208643792396710E+00
    0.99999536229459207171E+00
    0.99998147448174345975E+00
    0.99998352466511064573E+00
    0.99998765747014906058E+00
    0.99994874572772451948E+00
    0.99996314092880433932E+00
    0.99997085854045753006E+00
    0.99976697337211883898E+00
    0.99987166678816330467E+00
    0.99976754590084671026E+00
    0.99987502779685499821E+00
    0.99995214884483563100E+00
    0.99996041073595332005E+00
    0.99997916178879875382E+00
    0.99998887690191562427E+00
    0.99997762837143944203E+00
    0.99997502575380048384E+00
    0.99996454716583171862E+00
    0.99989607580029449263E+00
    0.99993866516256524335E+00
    0.99995448462367730880E+00
    0.99984497259220961318E+00
    0.99985252534955293413E+00
    0.99964932194672173615E+00
    0.99973221415865087813E+00
    0.99989529426522394395E+00
    0.99992023181622746719E+00
    0.99996887491305752604E+00
    0.99998167903767010145E+00
    0.99997915065313591754E+00
    0.99998066126030971112E+00
    0.99997553730375987602E+00
    0.99994006080013697613E+00
    0.99992930528217183195E+00
    0.99993724564489261386E+00
    0.99907067070916166784E+00
    0.99920080015739398682E+00
    0.99843118461539348552E+00
    0.99887985602764406412E+00
    0.99952114474747177919E+00
    0.99973165842826217098E+00
    0.99988848753123205082E+00
    0.99987288074078040090E+00
    0.99993066207792091760E+00
    0.99991247157711493632E+00
    0.99978462808386314720E+00
    0.99962671660422330877E+00
    0.99963634481912899687E+00
    0.99969394849950454773E+00
    0.99713558774565347331E+00
    0.99674540168879977031E+00
    0.99189462855560661669E+00
    0.99410979240586183625E+00
    0.99763694373376587965E+00
    0.99855728834795021154E+00
    0.99941683138376136153E+00
    0.99940886316692900682E+00
    0.99974989557573978871E+00
    0.99972325193481348382E+00
    0.99926794116299300086E+00
    0.99899215794018025871E+00
    0.99859733057202726414E+00
    0.99872935549694719093E+00
    0.97623708777613427134E+00
    0.98205915618420291935E+00
    0.96561059136240456890E+00
    0.97684279278881225306E+00
    0.98972653122000942005E+00
    0.99422629952444929735E+00
    0.99739830491035841309E+00
    0.99686830814924098920E+00
    0.99853111684579409779E+00
    0.99814370698163301654E+00
    0.99500190060194226849E+00
    0.99158041410596908793E+00
    0.99215634681745312751E+00
    0.99341168492092535303E+00
    0.99682578753271455785E+00
    0.99761043684424122180E+00
    0.99592280549797163047E+00
    0.99731105554640298028E+00
    0.99879021072931728487E+00
    0.99940159756449520323E+00
    0.99972634427342899066E+00
    0.99961336258275290678E+00
    0.99978978426866449425E+00
    0.99969708632063936093E+00
    0.99922146889062068986E+00
    0.99861140670369330508E+00
    0.99890521425344869222E+00
    0.99912474046583787946E+00
    0.99371716900854079046E+00
    0.99586242543962899543E+00
    0.99384095800694105538E+00
    0.99624558506726201834E+00
    0.99823314792532891193E+00
    0.99920341556885838852E+00
    0.99959646950437608393E+00
    0.99933935013473518261E+00
    0.99959771612105763339E+00
    0.99936465373413874147E+00
    0.99842244522013812169E+00
    0.99699359703527712373E+00
    0.99807711739798143924E+00
    0.99853658733204142539E+00
    0.93926908663704122837E+00
    0.95445196719211555791E+00
    0.92716339349776699663E+00
    0.94905382410283167793E+00
    0.97499600215686632598E+00
    0.98661876209587440201E+00
    0.99330729292188757462E+00
    0.99085668267836846113E+00
    0.99503905247519330857E+00
    0.99322345756767560498E+00
    0.98352896900211206344E+00
    0.97239165629736357133E+00
    0.97761847492350562039E+00
    0.98152660718776685300E+00
    0.89592584752672876913E+00
    0.92608020123398493428E+00
    0.89733665245809313138E+00
    0.93074601206390794594E+00
    0.96373615229202325150E+00
    0.98186345625805315773E+00
    0.98996174885641718966E+00
    0.98441767666530533010E+00
    0.99020207027180184856E+00
    0.98553952889328677589E+00
    0.96761467760837072127E+00
    0.94411024926515885181E+00
    0.96139592273617047180E+00
    0.96926057258030440256E+00
    0.99993871453251914616E+00
    0.99997917931343549558E+00
    0.99997318142466606883E+00
    0.99998577617756090330E+00
    0.99999422697413775651E+00
    0.99997575890718959357E+00
    0.99997921247420584745E+00
    0.99997726977390410941E+00
    0.99992785078643675600E+00
    0.99995435770948570831E+00
    0.99995034662927306801E+00
    0.99995980237545778468E+00
    0.99997394390873206582E+00
    0.99997710212907453542E+00
    0.99998971827279559133E+00
    0.10000021236799787605E+01
    0.99997727096028299343E+00
    0.99998364153817131950E+00
    0.99999874661814935894E+00
    0.99997614177751337206E+00
    0.99998878336112584364E+00
    0.10000010114688793195E+01
    0.99998440730215609751E+00
    0.99998902543138323828E+00
    0.10000003321721910865E+01
    0.99998276938300345584E+00
    0.99998854121942259976E+00
    0.99998935520740417360E+00
    0.99993860181183991109E+00
    0.99997892038927616021E+00
    0.99997248862291976401E+00
    0.99998495606102733024E+00
    0.99999363906078353459E+00
    0.99997494115654783631E+00
    0.99997893096196233120E+00
    0.99997712884658562782E+00
    0.99992780841996897756E+00
    0.99995432271966866455E+00
    0.99995027701166616652E+00
    0.99995974171293111610E+00
    0.99997377941650922306E+00
    0.99997688492391778592E+00
    0.99998645371886929478E+00
    0.99999267987587270312E+00
    0.99995061713112309842E+00
    0.99993999995927151936E+00
    0.99998051554429623344E+00
    0.99995088451339786406E+00
    0.99998102667954225087E+00
    0.10000003051672190502E+01
    0.99998256016138187263E+00
    0.99998762036560850941E+00
    0.99999982431433698249E+00
    0.99998106127181241032E+00
    0.99998384572766496614E+00
    0.99998299849823579777E+00
    0.99993641156953338989E+00
    0.99989864749075663131E+00
    0.99971829098130537972E+00
    0.99965531662806805802E+00
    0.99984705069919266318E+00
    0.99982983885631393495E+00
    0.99993946187173077256E+00
    0.99997371900218312568E+00
    0.99997884805947057085E+00
    0.99998399303766538626E+00
    0.99998159784414397677E+00
    0.99996753251710812638E+00
    0.99993553723860795213E+00
    0.99992838331514644068E+00
    0.99857572212322953664E+00
    0.99764073547929499330E+00
    0.99409486950714265330E+00
    0.99190028171008770563E+00
    0.99673851592412854306E+00
    0.99711807439192345903E+00
    0.99899042211979627304E+00
    0.99926581997396157764E+00
    0.99972496385802955832E+00
    0.99975581855906259232E+00
    0.99940904425082521811E+00
    0.99941564483952505249E+00
    0.99872732313913981095E+00
    0.99859561640655458703E+00
    0.99974885564643967140E+00
    0.99952460566043066503E+00
    0.99886529571367521640E+00
    0.99843696590647634803E+00
    0.99919745254912961663E+00
    0.99905752435128702960E+00
    0.99962465637758257664E+00
    0.99978245469448767668E+00
    0.99991333669137671958E+00
    0.99993668849570560564E+00
    0.99987302671800426523E+00
    0.99988724910668791424E+00
    0.99969212324234524303E+00
    0.99963536697276034193E+00
    0.99424520537420579824E+00
    0.98973042451419224186E+00
    0.97682775848199110413E+00
    0.96561549274644908891E+00
    0.98205551052664041833E+00
    0.97622421826661487376E+00
    0.99157719816920653066E+00
    0.99499986772837822890E+00
    0.99814695692685084794E+00
    0.99853845041193101117E+00
    0.99686893485303829099E+00
    0.99739715305317655503E+00
    0.99340987970067595736E+00
    0.99215517666208830061E+00
    0.99993841401599015128E+00
    0.99997835831696746389E+00
    0.99997149810590590935E+00
    0.99998466862705692737E+00
    0.99999316138915861352E+00
    0.99997312199082688533E+00
    0.99997829771632906759E+00
    0.99997674180649354092E+00
    0.99992767736577237159E+00
    0.99995415636780204949E+00
    0.99994944566437504729E+00
    0.99995955218458243419E+00
    0.99997283914704349073E+00
    0.99997617323398291234E+00
    0.99997813535074042690E+00
    0.99997157169226591478E+00
    0.99989925057746564807E+00
    0.99984916771969079008E+00
    0.99992800552002536474E+00
    0.99986849072463157562E+00
    0.99994842903528324829E+00
    0.99998554990777210882E+00
    0.99997976562736623496E+00
    0.99998568043736291155E+00
    0.99999458286685316555E+00
    0.99997876152405706929E+00
    0.99996902683846455862E+00
    0.99996258647145996878E+00
    0.99993829468361694612E+00
    0.99997792285989028915E+00
    0.99997086013590463782E+00
    0.99998370517325940732E+00
    0.99999273855320403026E+00
    0.99997171864647182993E+00
    0.99997783065580359008E+00
    0.99997625745113549733E+00
    0.99992748727901581418E+00
    0.99995395304896672606E+00
    0.99994874282313761515E+00
    0.99995937548435120945E+00
    0.99997202723794331725E+00
    0.99997544609149346950E+00
    0.99997122857015163788E+00
    0.99995537498927200559E+00
    0.99986449551787270895E+00
    0.99977443861931625246E+00
    0.99986917840041333871E+00
    0.99975427487202672694E+00
    0.99989537034027264895E+00
    0.99996220205962771388E+00
    0.99997193408620876909E+00
    0.99998195999046657345E+00
    0.99998818470455252960E+00
    0.99997618007779787153E+00
    0.99995268866788566964E+00
    0.99993805374796229657E+00
    0.99941908410588953249E+00
    0.99879371390243643081E+00
    0.99729633375356263603E+00
    0.99592850133385579792E+00
    0.99760725269778360857E+00
    0.99681295439554595816E+00
    0.99860875828513762098E+00
    0.99921931541239927821E+00
    0.99969907968007964971E+00
    0.99979661142993014877E+00
    0.99961372185253571931E+00
    0.99972510749230825144E+00
    0.99912292006887581941E+00
    0.99890422154036029312E+00
    0.98663768428036280334E+00
    0.97500010026831196441E+00
    0.94903931233847627080E+00
    0.92716766605556844016E+00
    0.95444862298542931800E+00
    0.93925699000051188214E+00
    0.97238820895988087312E+00
    0.98352716149298757831E+00
    0.99322741170314599035E+00
    0.99504688426216525432E+00
    0.99085760028689495726E+00
    0.99330622405205970527E+00