# vtk DataFile Version 3.0
LAPLACIEN  2D
ASCII
DATASET UNSTRUCTURED_GRID
 POINTS        1857  float
   3.1250000000000000E-002  0.93750000000000000        0.0000000000000000     
   6.2500000000000000E-002  0.93750000000000000        0.0000000000000000     
   6.2500000000000000E-002  0.96875000000000000        0.0000000000000000     
   1.8749999999999999E-002  0.95625000000000004        0.0000000000000000     
   4.0625000000000001E-002  0.95937499999999998        0.0000000000000000     
   4.3749999999999997E-002  0.98124999999999996        0.0000000000000000     
   2.1874999999999999E-002  0.97812500000000002        0.0000000000000000     
   9.3750000000000000E-002  0.93750000000000000        0.0000000000000000     
  0.12500000000000000       0.93750000000000000        0.0000000000000000     
  0.12500000000000000       0.96875000000000000        0.0000000000000000     
   8.1250000000000003E-002  0.95625000000000004        0.0000000000000000     
  0.10312499999999999       0.95937499999999998        0.0000000000000000     
  0.10625000000000000       0.98124999999999996        0.0000000000000000     
   8.4375000000000006E-002  0.97812500000000002        0.0000000000000000     
   3.1250000000000000E-002  0.87500000000000000        0.0000000000000000     
   6.2500000000000000E-002  0.87500000000000000        0.0000000000000000     
   6.2500000000000000E-002  0.90625000000000000        0.0000000000000000     
   1.8749999999999999E-002  0.89375000000000004        0.0000000000000000     
   4.0625000000000001E-002  0.89687499999999998        0.0000000000000000     
   4.3749999999999997E-002  0.91874999999999996        0.0000000000000000     
   2.1874999999999999E-002  0.91562500000000002        0.0000000000000000     
   9.3750000000000000E-002  0.87500000000000000        0.0000000000000000     
  0.12500000000000000       0.87500000000000000        0.0000000000000000     
  0.12500000000000000       0.90625000000000000        0.0000000000000000     
   8.1250000000000003E-002  0.89375000000000004        0.0000000000000000     
  0.10312499999999999       0.89687499999999998        0.0000000000000000     
  0.10625000000000000       0.91874999999999996        0.0000000000000000     
   8.4375000000000006E-002  0.91562500000000002        0.0000000000000000     
  0.15625000000000000       0.93750000000000000        0.0000000000000000     
  0.18750000000000000       0.93750000000000000        0.0000000000000000     
  0.18750000000000000       0.96875000000000000        0.0000000000000000     
  0.14374999999999999       0.95625000000000004        0.0000000000000000     
  0.16562499999999999       0.95937499999999998        0.0000000000000000     
  0.16875000000000001       0.98124999999999996        0.0000000000000000     
  0.14687500000000001       0.97812500000000002        0.0000000000000000     
  0.21875000000000000       0.93750000000000000        0.0000000000000000     
  0.25000000000000000       0.93750000000000000        0.0000000000000000     
  0.25000000000000000       0.96875000000000000        0.0000000000000000     
  0.20624999999999999       0.95625000000000004        0.0000000000000000     
  0.22812499999999999       0.95937499999999998        0.0000000000000000     
  0.23125000000000001       0.98124999999999996        0.0000000000000000     
  0.20937500000000001       0.97812500000000002        0.0000000000000000     
  0.15625000000000000       0.87500000000000000        0.0000000000000000     
  0.18750000000000000       0.87500000000000000        0.0000000000000000     
  0.18750000000000000       0.90625000000000000        0.0000000000000000     
  0.14374999999999999       0.89375000000000004        0.0000000000000000     
  0.16562499999999999       0.89687499999999998        0.0000000000000000     
  0.16875000000000001       0.91874999999999996        0.0000000000000000     
  0.14687500000000001       0.91562500000000002        0.0000000000000000     
  0.21875000000000000       0.87500000000000000        0.0000000000000000     
  0.25000000000000000       0.87500000000000000        0.0000000000000000     
  0.25000000000000000       0.90625000000000000        0.0000000000000000     
  0.20624999999999999       0.89375000000000004        0.0000000000000000     
  0.22812499999999999       0.89687499999999998        0.0000000000000000     
  0.23125000000000001       0.91874999999999996        0.0000000000000000     
  0.20937500000000001       0.91562500000000002        0.0000000000000000     
   3.1250000000000000E-002  0.81250000000000000        0.0000000000000000     
   6.2500000000000000E-002  0.81250000000000000        0.0000000000000000     
   6.2500000000000000E-002  0.84375000000000000        0.0000000000000000     
   1.8749999999999999E-002  0.83125000000000004        0.0000000000000000     
   4.0625000000000001E-002  0.83437499999999998        0.0000000000000000     
   4.3749999999999997E-002  0.85624999999999996        0.0000000000000000     
   2.1874999999999999E-002  0.85312500000000002        0.0000000000000000     
   9.3750000000000000E-002  0.81250000000000000        0.0000000000000000     
  0.12500000000000000       0.81250000000000000        0.0000000000000000     
  0.12500000000000000       0.84375000000000000        0.0000000000000000     
   8.1250000000000003E-002  0.83125000000000004        0.0000000000000000     
  0.10312499999999999       0.83437499999999998        0.0000000000000000     
  0.10625000000000000       0.85624999999999996        0.0000000000000000     
   8.4375000000000006E-002  0.85312500000000002        0.0000000000000000     
   3.1250000000000000E-002  0.75000000000000000        0.0000000000000000     
   6.2500000000000000E-002  0.75000000000000000        0.0000000000000000     
   6.2500000000000000E-002  0.78125000000000000        0.0000000000000000     
   1.8749999999999999E-002  0.76875000000000004        0.0000000000000000     
   4.0625000000000001E-002  0.77187499999999998        0.0000000000000000     
   4.3749999999999997E-002  0.79374999999999996        0.0000000000000000     
   2.1874999999999999E-002  0.79062500000000002        0.0000000000000000     
   9.3750000000000000E-002  0.75000000000000000        0.0000000000000000     
  0.12500000000000000       0.75000000000000000        0.0000000000000000     
  0.12500000000000000       0.78125000000000000        0.0000000000000000     
   8.1250000000000003E-002  0.76875000000000004        0.0000000000000000     
  0.10312499999999999       0.77187499999999998        0.0000000000000000     
  0.10625000000000000       0.79374999999999996        0.0000000000000000     
   8.4375000000000006E-002  0.79062500000000002        0.0000000000000000     
  0.15625000000000000       0.81250000000000000        0.0000000000000000     
  0.18750000000000000       0.81250000000000000        0.0000000000000000     
  0.18750000000000000       0.84375000000000000        0.0000000000000000     
  0.14374999999999999       0.83125000000000004        0.0000000000000000     
  0.16562499999999999       0.83437499999999998        0.0000000000000000     
  0.16875000000000001       0.85624999999999996        0.0000000000000000     
  0.14687500000000001       0.85312500000000002        0.0000000000000000     
  0.21875000000000000       0.81250000000000000        0.0000000000000000     
  0.25000000000000000       0.81250000000000000        0.0000000000000000     
  0.25000000000000000       0.84375000000000000        0.0000000000000000     
  0.20624999999999999       0.83125000000000004        0.0000000000000000     
  0.22812499999999999       0.83437499999999998        0.0000000000000000     
  0.23125000000000001       0.85624999999999996        0.0000000000000000     
  0.20937500000000001       0.85312500000000002        0.0000000000000000     
  0.15625000000000000       0.75000000000000000        0.0000000000000000     
  0.18750000000000000       0.75000000000000000        0.0000000000000000     
  0.18750000000000000       0.78125000000000000        0.0000000000000000     
  0.14374999999999999       0.76875000000000004        0.0000000000000000     
  0.16562499999999999       0.77187499999999998        0.0000000000000000     
  0.16875000000000001       0.79374999999999996        0.0000000000000000     
  0.14687500000000001       0.79062500000000002        0.0000000000000000     
  0.21875000000000000       0.75000000000000000        0.0000000000000000     
  0.25000000000000000       0.75000000000000000        0.0000000000000000     
  0.25000000000000000       0.78125000000000000        0.0000000000000000     
  0.20624999999999999       0.76875000000000004        0.0000000000000000     
  0.22812499999999999       0.77187499999999998        0.0000000000000000     
  0.23125000000000001       0.79374999999999996        0.0000000000000000     
  0.20937500000000001       0.79062500000000002        0.0000000000000000     
  0.28125000000000000       0.93750000000000000        0.0000000000000000     
  0.31250000000000000       0.93750000000000000        0.0000000000000000     
  0.31250000000000000       0.96875000000000000        0.0000000000000000     
  0.26874999999999999       0.95625000000000004        0.0000000000000000     
  0.29062500000000002       0.95937499999999998        0.0000000000000000     
  0.29375000000000001       0.98124999999999996        0.0000000000000000     
  0.27187499999999998       0.97812500000000002        0.0000000000000000     
  0.34375000000000000       0.93750000000000000        0.0000000000000000     
  0.37500000000000000       0.93750000000000000        0.0000000000000000     
  0.37500000000000000       0.96875000000000000        0.0000000000000000     
  0.33124999999999999       0.95625000000000004        0.0000000000000000     
  0.35312500000000002       0.95937499999999998        0.0000000000000000     
  0.35625000000000001       0.98124999999999996        0.0000000000000000     
[...]
 CELL_DATA        3584
 SCALARS Endothelial_cells float
 LOOKUP_TABLE default
    0.99993697445125906409E+00
    0.99997562790150495982E+00
    0.99996925290538940523E+00
    0.99997854502829097711E+00
    0.99997672274151128136E+00
    0.99992823784186601888E+00
    0.99995574819892385499E+00
    0.99994850318925943000E+00
    0.99995404283415312285E+00
    0.99995812113037496616E+00
    0.99995244004844496821E+00
    0.99995959224583008673E+00
    0.99996710932108268111E+00
    0.99996735184873641877E+00
    0.99999002800117464673E+00
    0.99999539835080575312E+00
    0.99997790801113273229E+00
    0.99998272352334849344E+00
    0.99997971284604392217E+00
    0.99992962374701388484E+00
    0.99995631809734697448E+00
    0.99994877886182353954E+00
    0.99995575772230849143E+00
    0.99993653944603744232E+00
    0.99997884677096626760E+00
    0.99997660977839575303E+00
    0.99997439568491519601E+00
    0.99997318004406610115E+00
    0.99993806278976604673E+00
    0.99997842498199129846E+00
    0.99997302453228753549E+00
    0.99998661704858804455E+00
    0.99999357520648979314E+00
    0.99997546118826841077E+00
    0.99997647073786144478E+00
    0.99997525481370652667E+00
    0.99992597831849916457E+00
    0.99995260500168670070E+00
    0.99994904371316317704E+00
    0.99995889209092891914E+00
    0.99997273139759368377E+00
    0.99997577713845020586E+00
    0.99999363155294374028E+00
    0.10000020429850564607E+01
    0.99998258388517857753E+00
    0.99999065350103089056E+00
    0.99999990408011096843E+00
    0.99997905117460528235E+00
    0.99998609153054818233E+00
    0.10000003452922006097E+01
    0.99998410876366150557E+00
    0.99999085606264048742E+00
    0.10000046566758176159E+01
    0.99998604426621773289E+00
    0.99998988760506424267E+00
    0.99999012503954609610E+00
    0.99999162193296808887E+00
    0.99999657920602202932E+00
    0.99997867343383051164E+00
    0.99998330411594105183E+00
    0.99998041395274894771E+00
    0.99993013718106937837E+00
    0.99995703260795243406E+00
    0.99994982321093184297E+00
    0.99995712202148190340E+00
    0.99993799242370506875E+00
    0.99998058330235550795E+00
    0.99997940203684587690E+00
    0.99997561448167637810E+00
    0.99997422668894442310E+00
    0.99999187928560162586E+00
    0.99999674703644125806E+00
    0.99997872847800772789E+00
    0.99998334349272766097E+00
    0.99998050144473882295E+00
    0.99993020064014093151E+00
    0.99995713685902831713E+00
    0.99994999931292360973E+00
    0.99995740742128458312E+00
    0.99993837749703939899E+00
    0.99998090184479249132E+00
    0.99997983869875073371E+00
    0.99997580685895892660E+00
    0.99997438671104477148E+00
    0.99999290823664599426E+00
    0.10000024104681628501E+01
    0.99998312025873314912E+00
    0.99999107741505055547E+00
    0.10000004789108174474E+01
    0.99997931168635978416E+00
    0.99998682330584276468E+00
    0.10000012963083466655E+01
    0.99998532752228186382E+00
    0.99999200747084471264E+00
    0.10000040797731011288E+01
    0.99998619386877241055E+00
    0.99999019175423908834E+00
    0.99999073990053932715E+00
    0.99999248281619945722E+00
    0.10000018273974460303E+01
    0.99998165496296487209E+00
    0.99999013131291236700E+00
    0.10000000128200945415E+01
    0.99997907443732481081E+00
    0.99998682743058475708E+00
    0.10000013539137604379E+01
    0.99998543975857445698E+00
    0.99999103042563131094E+00
    0.10000022372849250996E+01
    0.99998627205447110367E+00
    0.99998989295505125163E+00
    0.99999059654877497927E+00
    0.99993855101848427847E+00
    0.99997903583269542871E+00
    0.99997324182609836907E+00
    0.99998593952748160429E+00
    0.99999410122147580626E+00
    0.99997562827209740544E+00
    0.99997880308529241145E+00
    0.99997684862661639915E+00
    0.99992731433300563459E+00
    0.99995392676441452462E+00
    0.99995005591361563191E+00
    0.99995958499401649267E+00
    0.99997370251567385679E+00
    0.99997684208797732452E+00
    0.99999128559642025404E+00
    0.10000019245094626807E+01
    0.99998291715727516404E+00
    0.99999123271235812460E+00
    0.10000011050424040260E+01
    0.99998051987300418109E+00
    0.99998911476159135781E+00
    0.10000021045753435533E+01
    0.99998542575998228266E+00
    0.99998920416025960378E+00
    0.10000009600189021519E+01
    0.99998327256146901654E+00
    0.99999060616429891191E+00
    0.99999173236630312100E+00
    0.99993861089335167591E+00
    0.99997911835587671714E+00
    0.99997327878882225072E+00
    0.99998599760884487875E+00
    0.99999425073381786877E+00
    0.99997580943763053618E+00
    0.99997910549337409858E+00
    0.99997713613970173885E+00
    0.99992768136977328020E+00
    0.99995419952292030619E+00
    0.99995022360063268163E+00
    0.99995968399404122628E+00
    0.99997385371303981749E+00
    0.99997702177773695187E+00
    0.99999107665112507703E+00
    0.10000016028706539828E+01
    0.99998178400636339447E+00
    0.99999131267258178912E+00
    0.10000014028297017354E+01
    0.99998011413476828313E+00
    0.99998928665391673132E+00
    0.10000021576979718496E+01
    0.99998468647420712951E+00
    0.99998921959896092115E+00
    0.10000011076128818566E+01
    0.99998329898054139075E+00
    0.99999066050541562944E+00
    0.99999177079155698866E+00
    0.99999257255995832594E+00
    0.10000029869002873273E+01
    0.99998190569495681856E+00
    0.99999177679931361418E+00
    0.10000022101890306825E+01
    0.99998025261902778738E+00
    0.99998958174189944703E+00
    0.10000027912954485565E+01
    0.99998640966023100152E+00
    0.99999205823634396140E+00
    0.10000029225940822997E+01
    0.99998652261872533753E+00
    0.99999056452538082063E+00
    0.99999150085727883663E+00
    0.99998332147043567097E+00
    0.99999193390755380939E+00
    0.99994872963469427773E+00
    0.99996345560641297645E+00
    0.99999105774090191190E+00
    0.99997356844156404243E+00
    0.99998821673627047435E+00
    0.10000026074602743620E+01
    0.99998556788829906505E+00
    0.99999118392113195419E+00
    0.10000022325991242411E+01
    0.99998461111257297418E+00
    0.99998701163144998461E+00
    0.99998808284093798626E+00
    0.99998777423871143544E+00
    0.99999419035992187510E+00
    0.99995130975590174049E+00
    0.99995623361262997442E+00
    0.99998801953814386856E+00
    0.99996864204229751749E+00
    0.99998789779824537316E+00
    0.10000033276779860536E+01
    0.99998556732578236517E+00
    0.99999118645478279888E+00
    0.10000025509125978207E+01
    0.99998515971988155560E+00
    0.99998685302192713564E+00
    0.99998716204580573308E+00
    0.99980630461270558751E+00
    0.99974113231331995788E+00
    0.99935085247178934154E+00
    0.99936113499661893833E+00
    0.99973634473013317514E+00
    0.99978897488936324667E+00
    0.99992389523861613387E+00
    0.99994884754799595594E+00
    0.99996818329872161346E+00
    0.99997102716015084933E+00
    0.99994998866298967499E+00
    0.99992368670625930704E+00
    0.99986761052866279798E+00
    0.99986795982196552401E+00
    0.99999173517777273368E+00
    0.99999661665855688053E+00
    0.99997838861747601058E+00
    0.99998297119843093661E+00
    0.99998042042928114714E+00
    0.99993016811911550334E+00
    0.99995712880857612337E+00
    0.99995000011850920796E+00
    0.99995743328550001916E+00
    0.99993841725748877636E+00
    0.99998090905640579784E+00
    0.99997983665966094780E+00
    0.99997577344430099711E+00
    0.99997435955220603798E+00
    0.99998988971281255189E+00
    0.99999592563087902342E+00
    0.99997730433040921127E+00
    0.99998205811334295312E+00
    0.99998011496665883957E+00
    0.99993004570449506296E+00
    0.99995706127898953408E+00
    0.99994986905410410127E+00
    0.99995739296148422603E+00
    0.99993836909101252441E+00
    0.99998066923560280372E+00
    0.99997853892264587650E+00
    0.99997552311132920089E+00
    0.99997413225579567797E+00
    0.99998995971436677177E+00
    0.10000012374930189463E+01
    0.99997511836296171239E+00
    0.99998814953201198286E+00
    0.99999974200550745262E+00
    0.99997757561052569297E+00
    0.99998619915999198415E+00
    0.10000005873965198688E+01
    0.99998515906043261570E+00
    0.99999065695512523444E+00
    0.10000009735908321762E+01
    0.99998489106206089883E+00
    0.99998833315246016262E+00
    0.99998926251274666832E+00
    0.99996336528637619345E+00
    0.99998284420849903320E+00
    0.99993133635347675181E+00
    0.99996188549126929779E+00
    0.99998948257114750326E+00
    0.99997372589526756226E+00
    0.99998531732942641526E+00
    0.10000003684656875169E+01
    0.99998358934845887891E+00
    0.99998872624687629163E+00
    0.10000011201708240982E+01
    0.99997945759716000413E+00
    0.99998276948601882985E+00
    0.99998509925061984660E+00
    0.99998888221373527507E+00
    0.99999451960425134178E+00
    0.99997560171028654352E+00
    0.99998116084584642849E+00
    0.99997939950660341690E+00
    0.99992983384966049876E+00
    0.99995677996249499042E+00
    0.99994827052871215756E+00
    0.99995714189603646105E+00
    0.99993821323495735154E+00
    0.99998011956141208412E+00
    0.99997720518576838078E+00
    0.99997453624160848040E+00
    0.99997251384936691743E+00
    0.99998774241802501628E+00
    0.99999480565747522753E+00
    0.99997482787353852984E+00
    0.99998099840240506353E+00
    0.99997896567725830241E+00
    0.99992970364079958312E+00
    0.99995658573594248253E+00
    0.99994755091973297478E+00
    0.99995691993657109808E+00
    0.99993800012318989623E+00
    0.99997950540666047381E+00
    0.99997587617099459312E+00
    0.99997376183450503717E+00
    0.99997167881566106917E+00
    0.99987811470555953974E+00
    0.99992834865087631968E+00
    0.99983841945063478551E+00
    0.99990946752864440228E+00
    0.99996772537489864163E+00
    0.99996520799666699375E+00
    0.99998180135927428047E+00
    0.99999499354458165623E+00
    0.99998127433926364827E+00
    0.99998320068401080896E+00
    0.99998692703778424562E+00
    0.99994736161897601612E+00
    0.99996213701691627485E+00
    0.99997006811472710641E+00
    0.99976092729160148664E+00
    0.99986780083220916371E+00
    0.99976176732551225168E+00
    0.99987161671411839414E+00
    0.99995055120898845846E+00
    0.99995969352904656713E+00
    0.99997878071610812878E+00
    0.99998828537552597595E+00
    0.99997727264567326522E+00
    0.99997443331167301661E+00
    0.99996313304899464569E+00
    0.99989327085182888588E+00
    0.99993696630313244622E+00
    0.99995320595971337596E+00
    0.99984083078256402732E+00
    0.99984828765563504849E+00
    0.99964084677298858939E+00
    0.99972531391195518236E+00
    0.99989219715842903025E+00
    0.99991835369874926265E+00
    0.99996809513556228488E+00
    0.99998081436296237801E+00
    0.99997878214470981018E+00
    0.99998019994304143676E+00
    0.99997438689418216562E+00
    0.99993843160731299413E+00
    0.99992732228721137311E+00
    0.99993545747163758985E+00
    0.99905003754596755083E+00
    0.99918251195751550675E+00
    0.99839865137068273260E+00
    0.99885536040135625147E+00
    0.99950963241822565752E+00
    0.99972523662969536851E+00
    0.99988556240927517482E+00
    0.99986917948484954621E+00
    0.99992888233650445429E+00
    0.99991013062941314082E+00
    0.99977869466115532049E+00
    0.99961765294343829513E+00
    0.99962745432707134086E+00
    0.99968631610068336979E+00
    0.99708276669335005327E+00
    0.99668624893801049947E+00
    0.99177248880914004037E+00
    0.99400911857070217703E+00
    0.99759063964898386789E+00
    0.99852723247627372949E+00
    0.99940343589461699825E+00
    0.99939496857538245855E+00
    0.99974373521294357392E+00
    0.99971642861276488468E+00
    0.99925110154148921726E+00
    0.99897059012485234231E+00
    0.99856816258970937383E+00
    0.99870233412194020506E+00
    0.97594606769981118166E+00
    0.98180492675445685258E+00
    0.96519418971611947722E+00
    0.97651635325989427638E+00
    0.98956056907748013440E+00
    0.99412450861056822493E+00
    0.99734772157879258980E+00
    0.99680844691419634440E+00
    0.99850046706726036660E+00
    0.99810611624435141565E+00
    0.99491281726509694927E+00
    0.99144804995463531316E+00
    0.99202528315456928176E+00
    0.99329725459082796046E+00
    0.99676512408905015850E+00
    0.99756288673345794304E+00
    0.99584775476686893114E+00
    0.99725822985237932983E+00
    0.99876420618524119899E+00
    0.99938806143943537119E+00
    0.99971959415076305788E+00
    0.99960377898050711831E+00
    0.99978452143905838234E+00
    0.99968967103412298414E+00
    0.99920360824207088424E+00
    0.99858212428945181127E+00
    0.99888149585141428055E+00
    0.99910522950378588547E+00
    0.99360778439780361726E+00
    0.99578586042707195602E+00
    0.99373383207321586141E+00
    0.99617499872491155344E+00
    0.99819685002753388847E+00
    0.99918580425843062098E+00
    0.99958684990373403156E+00
    0.99932403522542412322E+00
    0.99958812893118231813E+00
    0.99935016153626499147E+00
    0.99838938724049874907E+00
    0.99693571867566954658E+00
    0.99803812031378891234E+00
    0.99850581326148157846E+00
    0.93860870331145251910E+00
    0.95390049979781355027E+00
    0.92640061304201004599E+00
    0.94844172525095371551E+00
    0.97464956017428161505E+00
    0.98641126409581558754E+00
    0.99319266395380567669E+00
    0.99070663812673198656E+00
    0.99494984926383478463E+00
    0.99310685468040116319E+00
    0.98328146810694772029E+00
    0.97201763088874026941E+00
    0.97730024590966191322E+00
    0.98125339154134683106E+00
    0.89496568159139655574E+00
    0.92529836232321349687E+00
    0.89637862501306775354E+00
    0.92998261346371224878E+00
    0.96327175861410008206E+00
    0.98159684304435812496E+00
    0.98979990634123760085E+00
    0.98418346732346639882E+00
    0.99004230606746634891E+00
    0.98531839145711597183E+00
    0.96718880698151343811E+00
    0.94345985325149606116E+00
    0.96090633767238653462E+00
    0.96884934095996566583E+00
    0.99993857870258562315E+00
    0.99997904737838627653E+00
    0.99997306485998638248E+00
    0.99998566741619043796E+00
    0.99999411964514350881E+00
    0.99997566281345406924E+00
    0.99997910081228236212E+00
    0.99997714123105396755E+00
    0.99992771855727990982E+00
    0.99995422351590657062E+00
    0.99995022328407789924E+00
    0.99995967530244178612E+00
    0.99997382600567796818E+00
    0.99997698712800953125E+00
    0.99998958372473689682E+00
    0.10000020032320136032E+01
    0.99997696118095003026E+00
    0.99998319922382084002E+00
    0.99999851606849043950E+00
    0.99997589788140073264E+00
    0.99998866206532377454E+00
    0.10000009013266299984E+01
    0.99998431862797287906E+00
    0.99998893121651644122E+00
    0.10000002266065115553E+01
    0.99998266051467066262E+00
    0.99998842119246900140E+00
    0.99998921906538162929E+00
    0.99993846108704331765E+00
    0.99997877794205669577E+00
    0.99997234705167947766E+00
    0.99998486775527994919E+00
    0.99999350963730615494E+00
    0.99997481485260109046E+00
    0.99997880782857495596E+00
    0.99997699426178721094E+00
    0.99992767412290051166E+00
    0.99995418679542602547E+00
    0.99995015051994162736E+00
    0.99995961185493764667E+00
    0.99997365457725451154E+00
    0.99997676095659038253E+00
    0.99998622237101331134E+00
    0.99999217991429412145E+00
    0.99994944059462587127E+00
    0.99993827979654414939E+00
    0.99997965008270028875E+00
    0.99994980390694576666E+00
    0.99998059442137754438E+00
    0.10000000925000531726E+01
    0.99998241097777973430E+00
    0.99998748078845345333E+00
    0.99999968466187116878E+00
    0.99998095996504365868E+00
    0.99998356333174309718E+00
    0.99998265452267154352E+00
    0.99993456919406642491E+00
    0.99989555484839365285E+00
    0.99971136949223693424E+00
    0.99964682292860951307E+00
    0.99984279222857630476E+00
    0.99982568733331445010E+00
    0.99993778918293829694E+00
    0.99997255201609569486E+00
    0.99997845508652927204E+00
    0.99998363870345474691E+00
    0.99998073574417756237E+00
    0.99996676821498642340E+00
    0.99993374278743807348E+00
    0.99992638501111830163E+00
    0.99854568353370531941E+00
    0.99759443229062594316E+00
    0.99399418745447243317E+00
    0.99177813063220954248E+00
    0.99667934815359804368E+00
    0.99706524016520214904E+00
    0.99896883835005201302E+00
    0.99924897909890741943E+00
    0.99971817367532478382E+00
    0.99974966453157243507E+00
    0.99939515292293235049E+00
    0.99940225062749665774E+00
    0.99870029705164442557E+00
    0.99856643921762111571E+00
    0.99974246209073280856E+00
    0.99951309695291234991E+00
    0.99884078594225522707E+00
    0.99840442178438060239E+00
    0.99917916132702644383E+00
    0.99903689406743889645E+00
    0.99961556718167510205E+00
    0.99977651864019601025E+00
    0.99991103570942063694E+00
    0.99993492196429789587E+00
    0.99986933090780294453E+00
    0.99988433057996239928E+00
    0.99968448897157780042E+00
    0.99962647135339621762E+00
    0.99414342589380588766E+00
    0.98956446499531314220E+00
    0.97650131951003871222E+00
    0.96519907966581997005E+00
    0.98180128062521698773E+00
    0.97593320530650540245E+00
    0.99144482090178165379E+00
    0.99491078672437727182E+00
    0.99810938930978521100E+00
    0.99850780812281503263E+00
    0.99680907936653428969E+00
    0.99734657301786933115E+00
    0.99329545050438294851E+00
    0.99202411227197007104E+00
    0.99993826498402171854E+00
    0.99997818912138314307E+00
    0.99997132970500779425E+00
    0.99998453559599820295E+00
    0.99999305490438128441E+00
    0.99997298236565557161E+00
    0.99997819073201488216E+00
    0.99997659145304162998E+00
    0.99992753710837845027E+00
    0.99995400902786579778E+00
    0.99994925665344813748E+00
    0.99995940960264007025E+00
    0.99997265241121813251E+00
    0.99997601250958545460E+00
    0.99997763933389161028E+00
    0.99997043279866582033E+00
    0.99989667575339136185E+00
    0.99984513942042285706E+00
    0.99992563221725483391E+00
    0.99986518863624385123E+00
    0.99994700190182306265E+00
    0.99998480019112356842E+00
    0.99997952729539485439E+00
    0.99998547350227484642E+00
    0.99999421341693317533E+00
    0.99997851686430994089E+00
    0.99996823046189953210E+00
    0.99996157014360642634E+00
    0.99993814068413977569E+00
    0.99997774090025959293E+00
    0.99997066909943499446E+00
    0.99998350838814720198E+00
    0.99999269847795213551E+00
    0.99997157081997389838E+00
    0.99997767381964375311E+00
    0.99997609072989046552E+00
    0.99992733916886944456E+00
    0.99995379934459804883E+00
    0.99994855358767564812E+00
    0.99995922780153767562E+00
    0.99997183314640458729E+00
    0.99997526810705339440E+00
    0.99997050844375079404E+00
    0.99995377561204434880E+00
    0.99986103582308327731E+00
    0.99976864057207326386E+00
    0.99986530529736705741E+00
    0.99974822978190569511E+00
    0.99989252659791050259E+00
    0.99996077434216668056E+00
    0.99997141295977942654E+00
    0.99998159642007655723E+00
    0.99998759375020140894E+00
    0.99997582636128867772E+00
    0.99995140593931841622E+00
    0.99993634442931200734E+00
    0.99940557400833229806E+00
    0.99876771295875876877E+00
    0.99724349643193099801E+00
    0.99585343990437480421E+00
    0.99755969801441557454E+00
    0.99675229264485087910E+00
    0.99857945671321124426E+00
    0.99920145528184267647E+00
    0.99969169675182412149E+00
    0.99979136000800283846E+00
    0.99960414475378345234E+00
    0.99971836382784995401E+00
    0.99910340851119239236E+00
    0.99888049956193869505E+00
    0.98643019311714330577E+00
    0.97465366300111488940E+00
    0.94842722202471940740E+00
    0.92640486834402935301E+00
    0.95389715481809922437E+00
    0.93859661605584054911E+00
    0.97201417480224694412E+00
    0.98327966479335537908E+00
    0.99311082741757794601E+00
    0.99495768425107089517E+00
    0.99070756145976934803E+00
    0.99319159860648131843E+00