# vtk DataFile Version 3.0
LAPLACIEN  2D
ASCII
DATASET UNSTRUCTURED_GRID
 POINTS        1857  float
   3.1250000000000000E-002  0.93750000000000000        0.0000000000000000     
   6.2500000000000000E-002  0.93750000000000000        0.0000000000000000     
   6.2500000000000000E-002  0.96875000000000000        0.0000000000000000     
   1.8749999999999999E-002  0.95625000000000004        0.0000000000000000     
   4.0625000000000001E-002  0.95937499999999998        0.0000000000000000     
   4.3749999999999997E-002  0.98124999999999996        0.0000000000000000     
   2.1874999999999999E-002  0.97812500000000002        0.0000000000000000     
   9.3750000000000000E-002  0.93750000000000000        0.0000000000000000     
  0.12500000000000000       0.93750000000000000        0.0000000000000000     
  0.12500000000000000       0.96875000000000000        0.0000000000000000     
   8.1250000000000003E-002  0.95625000000000004        0.0000000000000000     
  0.10312499999999999       0.95937499999999998        0.0000000000000000     
  0.10625000000000000       0.98124999999999996        0.0000000000000000     
   8.4375000000000006E-002  0.97812500000000002        0.0000000000000000     
   3.1250000000000000E-002  0.87500000000000000        0.0000000000000000     
   6.2500000000000000E-002  0.87500000000000000        0.0000000000000000     
   6.2500000000000000E-002  0.90625000000000000        0.0000000000000000     
   1.8749999999999999E-002  0.89375000000000004        0.0000000000000000     
   4.0625000000000001E-002  0.89687499999999998        0.0000000000000000     
   4.3749999999999997E-002  0.91874999999999996        0.0000000000000000     
   2.1874999999999999E-002  0.91562500000000002        0.0000000000000000     
   9.3750000000000000E-002  0.87500000000000000        0.0000000000000000     
  0.12500000000000000       0.87500000000000000        0.0000000000000000     
  0.12500000000000000       0.90625000000000000        0.0000000000000000     
   8.1250000000000003E-002  0.89375000000000004        0.0000000000000000     
  0.10312499999999999       0.89687499999999998        0.0000000000000000     
  0.10625000000000000       0.91874999999999996        0.0000000000000000     
   8.4375000000000006E-002  0.91562500000000002        0.0000000000000000     
  0.15625000000000000       0.93750000000000000        0.0000000000000000     
  0.18750000000000000       0.93750000000000000        0.0000000000000000     
  0.18750000000000000       0.96875000000000000        0.0000000000000000     
  0.14374999999999999       0.95625000000000004        0.0000000000000000     
  0.16562499999999999       0.95937499999999998        0.0000000000000000     
  0.16875000000000001       0.98124999999999996        0.0000000000000000     
  0.14687500000000001       0.97812500000000002        0.0000000000000000     
  0.21875000000000000       0.93750000000000000        0.0000000000000000     
  0.25000000000000000       0.93750000000000000        0.0000000000000000     
  0.25000000000000000       0.96875000000000000        0.0000000000000000     
  0.20624999999999999       0.95625000000000004        0.0000000000000000     
  0.22812499999999999       0.95937499999999998        0.0000000000000000     
  0.23125000000000001       0.98124999999999996        0.0000000000000000     
  0.20937500000000001       0.97812500000000002        0.0000000000000000     
  0.15625000000000000       0.87500000000000000        0.0000000000000000     
  0.18750000000000000       0.87500000000000000        0.0000000000000000     
  0.18750000000000000       0.90625000000000000        0.0000000000000000     
  0.14374999999999999       0.89375000000000004        0.0000000000000000     
  0.16562499999999999       0.89687499999999998        0.0000000000000000     
  0.16875000000000001       0.91874999999999996        0.0000000000000000     
  0.14687500000000001       0.91562500000000002        0.0000000000000000     
  0.21875000000000000       0.87500000000000000        0.0000000000000000     
  0.25000000000000000       0.87500000000000000        0.0000000000000000     
  0.25000000000000000       0.90625000000000000        0.0000000000000000     
  0.20624999999999999       0.89375000000000004        0.0000000000000000     
  0.22812499999999999       0.89687499999999998        0.0000000000000000     
  0.23125000000000001       0.91874999999999996        0.0000000000000000     
  0.20937500000000001       0.91562500000000002        0.0000000000000000     
   3.1250000000000000E-002  0.81250000000000000        0.0000000000000000     
   6.2500000000000000E-002  0.81250000000000000        0.0000000000000000     
   6.2500000000000000E-002  0.84375000000000000        0.0000000000000000     
   1.8749999999999999E-002  0.83125000000000004        0.0000000000000000     
   4.0625000000000001E-002  0.83437499999999998        0.0000000000000000     
   4.3749999999999997E-002  0.85624999999999996        0.0000000000000000     
   2.1874999999999999E-002  0.85312500000000002        0.0000000000000000     
   9.3750000000000000E-002  0.81250000000000000        0.0000000000000000     
  0.12500000000000000       0.81250000000000000        0.0000000000000000     
  0.12500000000000000       0.84375000000000000        0.0000000000000000     
   8.1250000000000003E-002  0.83125000000000004        0.0000000000000000     
  0.10312499999999999       0.83437499999999998        0.0000000000000000     
  0.10625000000000000       0.85624999999999996        0.0000000000000000     
   8.4375000000000006E-002  0.85312500000000002        0.0000000000000000     
   3.1250000000000000E-002  0.75000000000000000        0.0000000000000000     
   6.2500000000000000E-002  0.75000000000000000        0.0000000000000000     
   6.2500000000000000E-002  0.78125000000000000        0.0000000000000000     
   1.8749999999999999E-002  0.76875000000000004        0.0000000000000000     
   4.0625000000000001E-002  0.77187499999999998        0.0000000000000000     
   4.3749999999999997E-002  0.79374999999999996        0.0000000000000000     
   2.1874999999999999E-002  0.79062500000000002        0.0000000000000000     
   9.3750000000000000E-002  0.75000000000000000        0.0000000000000000     
  0.12500000000000000       0.75000000000000000        0.0000000000000000     
  0.12500000000000000       0.78125000000000000        0.0000000000000000     
   8.1250000000000003E-002  0.76875000000000004        0.0000000000000000     
  0.10312499999999999       0.77187499999999998        0.0000000000000000     
  0.10625000000000000       0.79374999999999996        0.0000000000000000     
   8.4375000000000006E-002  0.79062500000000002        0.0000000000000000     
  0.15625000000000000       0.81250000000000000        0.0000000000000000     
  0.18750000000000000       0.81250000000000000        0.0000000000000000     
  0.18750000000000000       0.84375000000000000        0.0000000000000000     
  0.14374999999999999       0.83125000000000004        0.0000000000000000     
  0.16562499999999999       0.83437499999999998        0.0000000000000000     
  0.16875000000000001       0.85624999999999996        0.0000000000000000     
  0.14687500000000001       0.85312500000000002        0.0000000000000000     
  0.21875000000000000       0.81250000000000000        0.0000000000000000     
  0.25000000000000000       0.81250000000000000        0.0000000000000000     
  0.25000000000000000       0.84375000000000000        0.0000000000000000     
  0.20624999999999999       0.83125000000000004        0.0000000000000000     
  0.22812499999999999       0.83437499999999998        0.0000000000000000     
  0.23125000000000001       0.85624999999999996        0.0000000000000000     
  0.20937500000000001       0.85312500000000002        0.0000000000000000     
  0.15625000000000000       0.75000000000000000        0.0000000000000000     
  0.18750000000000000       0.75000000000000000        0.0000000000000000     
  0.18750000000000000       0.78125000000000000        0.0000000000000000     
  0.14374999999999999       0.76875000000000004        0.0000000000000000     
  0.16562499999999999       0.77187499999999998        0.0000000000000000     
  0.16875000000000001       0.79374999999999996        0.0000000000000000     
  0.14687500000000001       0.79062500000000002        0.0000000000000000     
  0.21875000000000000       0.75000000000000000        0.0000000000000000     
  0.25000000000000000       0.75000000000000000        0.0000000000000000     
  0.25000000000000000       0.78125000000000000        0.0000000000000000     
  0.20624999999999999       0.76875000000000004        0.0000000000000000     
  0.22812499999999999       0.77187499999999998        0.0000000000000000     
  0.23125000000000001       0.79374999999999996        0.0000000000000000     
  0.20937500000000001       0.79062500000000002        0.0000000000000000     
  0.28125000000000000       0.93750000000000000        0.0000000000000000     
  0.31250000000000000       0.93750000000000000        0.0000000000000000     
  0.31250000000000000       0.96875000000000000        0.0000000000000000     
  0.26874999999999999       0.95625000000000004        0.0000000000000000     
  0.29062500000000002       0.95937499999999998        0.0000000000000000     
  0.29375000000000001       0.98124999999999996        0.0000000000000000     
  0.27187499999999998       0.97812500000000002        0.0000000000000000     
  0.34375000000000000       0.93750000000000000        0.0000000000000000     
  0.37500000000000000       0.93750000000000000        0.0000000000000000     
  0.37500000000000000       0.96875000000000000        0.0000000000000000     
  0.33124999999999999       0.95625000000000004        0.0000000000000000     
  0.35312500000000002       0.95937499999999998        0.0000000000000000     
  0.35625000000000001       0.98124999999999996        0.0000000000000000     
[...]
 CELL_DATA        3584
 SCALARS Nutrients float
 LOOKUP_TABLE default
    0.50169782234385462694E+00
    0.50169787988582514870E+00
    0.50169786084694534267E+00
    0.50169786451978282127E+00
    0.50169787442142543821E+00
    0.50169781282252456922E+00
    0.50169778560115174670E+00
    0.50169781430440374415E+00
    0.50169777288503569768E+00
    0.50169777124865677642E+00
    0.50169781393396672975E+00
    0.50169779057614805051E+00
    0.50169790061966068606E+00
    0.50169790029892991079E+00
    0.50169786918883885196E+00
    0.50169787743893401455E+00
    0.50169785528551902321E+00
    0.50169785923690302099E+00
    0.50169786373852631733E+00
    0.50169780685755427374E+00
    0.50169777440890506170E+00
    0.50169779932350888618E+00
    0.50169779640842004920E+00
    0.50169781698672932801E+00
    0.50169786680401806667E+00
    0.50169785821226087208E+00
    0.50169788736782150451E+00
    0.50169788272768955917E+00
    0.50169781613085506766E+00
    0.50169786939734795084E+00
    0.50169785671719036024E+00
    0.50169786039622032980E+00
    0.50169786956603279471E+00
    0.50169785037662850691E+00
    0.50169786298273899572E+00
    0.50169786799336202332E+00
    0.50169781002625613020E+00
    0.50169778786462415621E+00
    0.50169779550354565156E+00
    0.50169777795379544294E+00
    0.50169788259796099794E+00
    0.50169788773713164254E+00
    0.50169786583609066177E+00
    0.50169787125958409391E+00
    0.50169785207953276895E+00
    0.50169785592388282947E+00
    0.50169786265359150867E+00
    0.50169784659384286662E+00
    0.50169785843632896949E+00
    0.50169787080452321604E+00
    0.50169786190982768037E+00
    0.50169786071364763647E+00
    0.50169786523805726119E+00
    0.50169785430567992446E+00
    0.50169788002891257950E+00
    0.50169788030617235020E+00
    0.50169786813416261673E+00
    0.50169787710572555373E+00
    0.50169785522572629688E+00
    0.50169785921841747456E+00
    0.50169786368683877420E+00
    0.50169780684128140180E+00
    0.50169777434123874471E+00
    0.50169779898062283330E+00
    0.50169779509503065196E+00
    0.50169781385032696797E+00
    0.50169786510357405884E+00
    0.50169785514369902302E+00
    0.50169788692870576075E+00
    0.50169788249641067424E+00
    0.50169786813321470831E+00
    0.50169787710556246196E+00
    0.50169785522570042868E+00
    0.50169785921840559517E+00
    0.50169786368680935329E+00
    0.50169780684123332914E+00
    0.50169777434120743642E+00
    0.50169779898046262812E+00
    0.50169779509406819962E+00
    0.50169781384596023877E+00
    0.50169786510202996066E+00
    0.50169785513798503818E+00
    0.50169788692847028244E+00
    0.50169788249632329968E+00
    0.50169786484813616578E+00
    0.50169787094804285665E+00
    0.50169785202369154842E+00
    0.50169785590687021593E+00
    0.50169786260800386390E+00
    0.50169784657962923635E+00
    0.50169785838128200250E+00
    0.50169787052291303642E+00
    0.50169786092446355674E+00
    0.50169785855230264460E+00
    0.50169786385930859041E+00
    0.50169785160727542461E+00
    0.50169787965788470441E+00
    0.50169788010692273339E+00
    0.50169786484578715591E+00
    0.50169787094665474481E+00
    0.50169785201301719813E+00
    0.50169785590430315825E+00
    0.50169786260772808451E+00
    0.50169784657954852314E+00
    0.50169785838124958399E+00
    0.50169787052276693107E+00
    0.50169786092359047736E+00
    0.50169785854841009165E+00
    0.50169786385785475336E+00
    0.50169785160180901951E+00
    0.50169787965755296977E+00
    0.50169788010679461365E+00
    0.50169781611514385755E+00
    0.50169786935412441498E+00
    0.50169785670551991785E+00
    0.50169786035891239528E+00
    0.50169786932714521832E+00
    0.50169784960676799823E+00
    0.50169786058456478095E+00
    0.50169786652575243391E+00
    0.50169780689410947705E+00
    0.50169778656141739148E+00
    0.50169779517201573693E+00
    0.50169777788815339559E+00
    0.50169788240134427504E+00
    0.50169788737138798496E+00
    0.50169786582866071623E+00
    0.50169787123527476158E+00
    0.50169785207140105143E+00
    0.50169785589380555546E+00
    0.50169786246687131381E+00
    0.50169784593140931417E+00
    0.50169785651410148120E+00
    0.50169786980079678074E+00
    0.50169786016474193779E+00
    0.50169785998833027474E+00
    0.50169786505522917519E+00
    0.50169785427286739399E+00
    0.50169787990944936240E+00
    0.50169788006325177765E+00
    0.50169781611514185915E+00
    0.50169786935411553319E+00
    0.50169785670551869661E+00
    0.50169786035890462372E+00
    0.50169786932705451310E+00
    0.50169784960623053927E+00
    0.50169786058084098190E+00
    0.50169786652451409115E+00
    0.50169780688960541326E+00
    0.50169778656044083931E+00
    0.50169779517187174100E+00
    0.50169777788813596509E+00
    0.50169788240128287971E+00
    0.50169788737121756572E+00
    0.50169786582862985203E+00
    0.50169787123501508042E+00
    0.50169785206884198736E+00
    0.50169785588315451985E+00
    0.50169786246559955334E+00
    0.50169784592965804837E+00
    0.50169785651172771335E+00
    0.50169786980021879863E+00
    0.50169786016290496278E+00
    0.50169785998793892112E+00
    0.50169786505516944519E+00
    0.50169785427285906731E+00
    0.50169787990937941835E+00
    0.50169788006306481609E+00
    0.50169786483745038019E+00
    0.50169787091057371775E+00
    0.50169785190046578549E+00
    0.50169785576210201850E+00
    0.50169786240820091194E+00
    0.50169784591326349599E+00
    0.50169785645927744699E+00
    0.50169786952385464485E+00
    0.50169785920622056441E+00
    0.50169785786075227207E+00
    0.50169786367298130347E+00
    0.50169785157537705178E+00
    0.50169787953619315868E+00
    0.50169787986349978492E+00
    0.50169785944237055286E+00
    0.50169786252041037589E+00
    0.50169779354968790930E+00
    0.50169783024837366625E+00
    0.50169785906730990366E+00
    0.50169784531609540323E+00
    0.50169785639710440250E+00
    0.50169786944437033682E+00
    0.50169785919807230457E+00
    0.50169785784194753653E+00
    0.50169786348001643717E+00
    0.50169785100525965404E+00
    0.50169787848100377836E+00
    0.50169787925536657447E+00
    0.50169786424033568917E+00
    0.50169786756971135322E+00
    0.50169782638673710018E+00
    0.50169779741135889228E+00
    0.50169785401815247816E+00
    0.50169784051875654374E+00
    0.50169785589207827048E+00
    0.50169786933192761502E+00
    0.50169785918981313344E+00
    0.50169785785317944082E+00
    0.50169786359359758166E+00
    0.50169785151322920935E+00
    0.50169787892811834595E+00
    0.50169787880847205308E+00
    0.50169597143686284202E+00
    0.50169240920498103797E+00
    0.50166779658174920353E+00
    0.50166780044304681851E+00
    0.50169240070178078295E+00
    0.50169595251265231006E+00
    0.50169760116626271884E+00
    0.50169767523946173782E+00
    0.50169783887764252128E+00
    0.50169783753034313811E+00
    0.50169766938765936182E+00
    0.50169759627953813830E+00
    0.50169684515401125058E+00
    0.50169684548130211166E+00
    0.50169786813318495433E+00
    0.50169787710554536453E+00
    0.50169785522566379132E+00
    0.50169785921831377973E+00
    0.50169786368677782296E+00
    0.50169780684122067260E+00
    0.50169777434119977588E+00
    0.50169779898044986055E+00
    0.50169779509403777951E+00
    0.50169781384587042172E+00
    0.50169786510200320429E+00
    0.50169785513797393595E+00
    0.50169788692846051248E+00
    0.50169788249630908883E+00
    0.50169786813315420115E+00
    0.50169787710553792603E+00
    0.50169785522564991354E+00
    0.50169785921831155928E+00
    0.50169786368677637967E+00
    0.50169780684122033954E+00
    0.50169777434119910975E+00
    0.50169779898044786215E+00
    0.50169779509403467088E+00
    0.50169781384586187301E+00
    0.50169786510198444152E+00
    0.50169785513792541920E+00
    0.50169788692845362910E+00
    0.50169788249630531407E+00
    0.50169786475238942192E+00
    0.50169787091146222924E+00
    0.50169785177959258515E+00
    0.50169785586526693955E+00
    0.50169786260348392393E+00
    0.50169784657914440196E+00
    0.50169785838118829968E+00
    0.50169787052262526661E+00
    0.50169786092353751972E+00
    0.50169785854824056059E+00
    0.50169786385663361905E+00
    0.50169785159318447398E+00
    0.50169787965397349971E+00
    0.50169788010564153602E+00
    0.50169786411615002741E+00
    0.50169787079029759536E+00
    0.50169785130189925582E+00
    0.50169785579933490194E+00
    0.50169786259601001355E+00
    0.50169784657855587273E+00
    0.50169785838111224940E+00
    0.50169787052224668056E+00
    0.50169786092344292872E+00
    0.50169785854765824862E+00
    0.50169786384870607154E+00
    0.50169785152727652822E+00
    0.50169787964110867939E+00
    0.50169788010213889340E+00
    0.50169786813314587448E+00
    0.50169787710553725990E+00
    0.50169785522564791513E+00
    0.50169785921831133724E+00
    0.50169786368677649069E+00
    0.50169780684122022851E+00
    0.50169777434119888770E+00
    0.50169779898044808419E+00
    0.50169779509403500395E+00
    0.50169781384586198403E+00
    0.50169786510198410845E+00
    0.50169785513792364284E+00
    0.50169788692845362910E+00
    0.50169788249630542509E+00
    0.50169786813314565244E+00
    0.50169787710553692683E+00
    0.50169785522564769309E+00
    0.50169785921831122621E+00
    0.50169786368677660171E+00
    0.50169780684122167180E+00
    0.50169777434119955384E+00
    0.50169779898044808419E+00
    0.50169779509403478190E+00
    0.50169781384586187301E+00
    0.50169786510198388640E+00
    0.50169785513792342080E+00
    0.50169788692845340705E+00
    0.50169788249630520305E+00
    0.50169786377445291237E+00
    0.50169787074788085857E+00
    0.50169785123567012253E+00
    0.50169785579122183616E+00
    0.50169786259506887749E+00
    0.50169784657848759402E+00
    0.50169785838109626219E+00
    0.50169787052212932998E+00
    0.50169786092339130334E+00
    0.50169785854726400842E+00
    0.50169786384396453105E+00
    0.50169785148353751580E+00
    0.50169787963654710605E+00
    0.50169788010107474463E+00
    0.50169786376343517009E+00
    0.50169787074678762195E+00
    0.50169785123518917391E+00
    0.50169785579117021079E+00
    0.50169786259506021775E+00
    0.50169784657848837117E+00
    0.50169785838109626219E+00
    0.50169787052212699852E+00
    0.50169786092338908290E+00
    0.50169785854724058272E+00
    0.50169786384373071808E+00
    0.50169785148111423201E+00
    0.50169787963642686890E+00
    0.50169788010105120790E+00
    0.50169718332412238659E+00
    0.50169746614052945777E+00
    0.50169575745137595657E+00
    0.50169731600843125996E+00
    0.50169778378443763422E+00
    0.50169783544036639089E+00
    0.50169785512480113976E+00
    0.50169786623079881682E+00
    0.50169785874968553241E+00
    0.50169785629692253970E+00
    0.50169784568298858574E+00
    0.50169776740845406504E+00
    0.50169782436114462865E+00
    0.50169785612955519749E+00
    0.50169134894747557940E+00
    0.50169592070481039414E+00
    0.50169127636279653437E+00
    0.50169644733806340042E+00
    0.50169764653173887226E+00
    0.50169782072165436393E+00
    0.50169785259846610970E+00
    0.50169785478444850479E+00
    0.50169785581754078319E+00
    0.50169784189173483036E+00
    0.50169769948921905112E+00
    0.50169691469728205924E+00
    0.50169759898400800857E+00
    0.50169777681173521877E+00
    0.50120145242359770421E+00
    0.50115862069800076739E+00
    0.49970639103072317377E+00
    0.50075806223613683610E+00
    0.50149063295725759826E+00
    0.50165149529910535442E+00
    0.50168955464219233686E+00
    0.50168309431923641117E+00
    0.50169546311217616541E+00
    0.50169316201121849641E+00
    0.50166061107675363751E+00
    0.50160894799999145022E+00
    0.50158404393341116112E+00
    0.50162537882699265168E+00
    0.49528909707705226495E+00
    0.49868893810202280514E+00
    0.49503818850597897105E+00
    0.49929061770646027130E+00
    0.50111320311897722402E+00
    0.50158862310549801045E+00
    0.50167262855961469725E+00
    0.50162181281803219779E+00
    0.50167603157566353911E+00
    0.50163078202013577922E+00
    0.50125443270539815632E+00
    0.50018432395388601197E+00
    0.50100689722789526481E+00
    0.50134200101525949744E+00
    0.50168847867748145308E+00
    0.50169544946858113388E+00
    0.50169081803834403299E+00
    0.50169637256793198077E+00
    0.50169763371018638587E+00
    0.50169781953718173284E+00
    0.50169785223868346158E+00
    0.50169785182202664142E+00
    0.50169785421445567408E+00
    0.50169783191760675134E+00
    0.50169761490981945595E+00
    0.50169634208692481803E+00
    0.50169752836141023877E+00
    0.50169775608284816748E+00
    0.50168843444766264561E+00
    0.50169544397056242691E+00
    0.50169081649698366032E+00
    0.50169637236584518902E+00
    0.50169763366179331854E+00
    0.50169781953342551528E+00
    0.50169785223604623781E+00
    0.50169785178987991170E+00
    0.50169785415869194711E+00
    0.50169783149155044999E+00
    0.50169761215432551182E+00
    0.50169631956229965297E+00
    0.50169752745314977194E+00
    0.50169775585809328611E+00
    0.49290076954540140708E+00
    0.49811793168720730485E+00
    0.49476628889594087557E+00
    0.49922831729854644234E+00
    0.50109134932963539377E+00
    0.50158577939176951510E+00
    0.50167085860842486333E+00
    0.50160957260194605212E+00
    0.50166622897391743852E+00
    0.50158727463509822364E+00
    0.50103577062104298623E+00
    0.49920660392716381670E+00
    0.50086314499827655489E+00
    0.50128572689219508263E+00
    0.49288643741250159902E+00
    0.49811561337941245853E+00
    0.49476582141779923418E+00
    0.49922823919137992998E+00
    0.50109130275976676572E+00
    0.50158577461201936387E+00
    0.50167085270965627863E+00
    0.50160951296498135221E+00
    0.50166605722786095090E+00
    0.50158625101253884182E+00
    0.50103223517958839217E+00
    0.49918509685986178770E+00
    0.50086233317430217671E+00
    0.50128547915020249537E+00
    0.50169781611514197017E+00
    0.50169786935411553319E+00
    0.50169785670551803047E+00
    0.50169786035889984976E+00
    0.50169786932705406901E+00
    0.50169784960622842984E+00
    0.50169786058084053781E+00
    0.50169786652451398012E+00
    0.50169780688960496917E+00
    0.50169778656044061727E+00
    0.50169779517187174100E+00
    0.50169777788813607611E+00
    0.50169788240128287971E+00
    0.50169788737121756572E+00
    0.50169786582824371646E+00
    0.50169787123080378244E+00
    0.50169785202988370632E+00
    0.50169785564976421277E+00
    0.50169786243042635565E+00
    0.50169784583628451724E+00
    0.50169785650311859992E+00
    0.50169786979903685520E+00
    0.50169786016282769125E+00
    0.50169785998792448822E+00
    0.50169786505505309382E+00
    0.50169785427282076462E+00
    0.50169787990824810109E+00
    0.50169788005951154730E+00
    0.50169781611514197017E+00
    0.50169786935411553319E+00
    0.50169785670551703127E+00
    0.50169786035888896958E+00
    0.50169786932705229265E+00
    0.50169784960621277570E+00
    0.50169786058083942759E+00
    0.50169786652451386910E+00
    0.50169780688960496917E+00
    0.50169778656044083931E+00
    0.50169779517187185203E+00
    0.50169777788813607611E+00
    0.50169788240128287971E+00
    0.50169788737121734368E+00
    0.50169786582765796279E+00
    0.50169787122332876184E+00
    0.50169785196394922622E+00
    0.50169785517207943215E+00
    0.50169786230926882720E+00
    0.50169784520005922257E+00
    0.50169785643724862378E+00
    0.50169786979112629410E+00
    0.50169786016225614844E+00
    0.50169785998784144354E+00
    0.50169786505467572901E+00
    0.50169785427274926626E+00
    0.50169787990474978834E+00
    0.50169788004664961356E+00
    0.50169785436462976946E+00
    0.50169779228689137529E+00
    0.50169731214698931598E+00
    0.50169576131346793613E+00
    0.50169745763830420060E+00
    0.50169716440052136708E+00
    0.50169777229528500495E+00
    0.50169785153493617891E+00
    0.50169785764487517810E+00
    0.50169785740482863989E+00
    0.50169786038005259599E+00
    0.50169785024095214787E+00
    0.50169785580233094979E+00
    0.50169782468863155511E+00
    0.50165151423440479395E+00
    0.50149064150124855743E+00
    0.50075805848189614000E+00
    0.49970639509217834595E+00
    0.50115861220867585768E+00
    0.50120143346009571328E+00
    0.50160895287877349524E+00
    0.50166061693147556699E+00
    0.50169316335980573829E+00
    0.50169546176503221346E+00
    0.50168308846915188326E+00
    0.50168954975769486371E+00
    0.50162537851008703882E+00
    0.50158404426713165680E+00
    0.50169783964592273851E+00
    0.50169765503421048791E+00
    0.50169644347662467609E+00
    0.50169128022461639826E+00
    0.50169591220235576490E+00
    0.50169133002344012962E+00
    0.50169691958409468047E+00
    0.50169770534118562910E+00
    0.50169784323970678663E+00
    0.50169785447268966383E+00
    0.50169784893370572565E+00
    0.50169784771461678474E+00
    0.50169777648451086005E+00
    0.50169759931146651333E+00
    0.50158864204240860563E+00
    0.50111321165768540897E+00
    0.49929061384694517489E+00
    0.49503819209874838636E+00
    0.49868892934641595449E+00
    0.49528907791575793595E+00
    0.50018432880614860370E+00
    0.50125443857121454450E+00
    0.50163078338223665575E+00
    0.50167603022771856125E+00
    0.50162180696177971484E+00
    0.50167262367541076706E+00
    0.50134200068210921231E+00
    0.50100689751072524647E+00
    0.50169781611514208119E+00
    0.50169786935411564421E+00
    0.50169785670551703127E+00
    0.50169786035888708220E+00
    0.50169786932705184856E+00
    0.50169784960620245062E+00
    0.50169786058083887248E+00
    0.50169786652451386910E+00
    0.50169780688960496917E+00
    0.50169778656044083931E+00
    0.50169779517187185203E+00
    0.50169777788813607611E+00
    0.50169788240128310175E+00
    0.50169788737121734368E+00
    0.50169786582759423599E+00
    0.50169787122239217769E+00
    0.50169785195583738169E+00
    0.50169785510584496979E+00
    0.50169786226685297859E+00
    0.50169784485835500210E+00
    0.50169785639350972239E+00
    0.50169786978638508668E+00
    0.50169786016186368460E+00
    0.50169785998779248271E+00
    0.50169786505456404058E+00
    0.50169785427273738687E+00
    0.50169787990368908126E+00
    0.50169788004209292520E+00
    0.50169781611513886155E+00
    0.50169786935411508910E+00
    0.50169785670551370060E+00
    0.50169786035888574993E+00
    0.50169786932705151550E+00
    0.50169784960620211756E+00
    0.50169786058083898350E+00
    0.50169786652451386910E+00
    0.50169780688960519122E+00
    0.50169778656044095033E+00
    0.50169779517187151896E+00
    0.50169777788813529895E+00
    0.50169788240128265766E+00
    0.50169788737121712163E+00
    0.50169786582758713056E+00
    0.50169787122238085342E+00
    0.50169785195577809578E+00
    0.50169785510536601958E+00
    0.50169786226575852073E+00
    0.50169784484734425423E+00
    0.50169785639108710473E+00
    0.50169786978615060757E+00
    0.50169786016184203525E+00
    0.50169785998778992919E+00
    0.50169786505456159809E+00
    0.50169785427273583256E+00
    0.50169787990366288000E+00
    0.50169788004197135578E+00
    0.50169783846144966333E+00
    0.50169764221264934179E+00
    0.50169636870647249527E+00
    0.50169082190002800559E+00
    0.50169544096597862293E+00
    0.50168845975287978955E+00
    0.50169634697362719411E+00
    0.50169762076177071286E+00
    0.50169783326557915171E+00
    0.50169785286959822646E+00
    0.50169784597128097570E+00
    0.50169784735482825244E+00
    0.50169775575561814662E+00
    0.50169752868884165409E+00
    0.50158579832832450585E+00
    0.50109135786472669416E+00
    0.49922831342720225267E+00
    0.49476629241917852164E+00
    0.49811792276892552511E+00
    0.49290074985399001672E+00
    0.49920660860091675692E+00
    0.50103577645662522588E+00
    0.50158727600002339653E+00
    0.50166622762454993190E+00
    0.50160956674224876917E+00
    0.50167085372387298925E+00