# vtk DataFile Version 3.0
LAPLACIEN  2D
ASCII
DATASET UNSTRUCTURED_GRID
 POINTS        1857  float
   3.1250000000000000E-002  0.93750000000000000        0.0000000000000000     
   6.2500000000000000E-002  0.93750000000000000        0.0000000000000000     
   6.2500000000000000E-002  0.96875000000000000        0.0000000000000000     
   1.8749999999999999E-002  0.95625000000000004        0.0000000000000000     
   4.0625000000000001E-002  0.95937499999999998        0.0000000000000000     
   4.3749999999999997E-002  0.98124999999999996        0.0000000000000000     
   2.1874999999999999E-002  0.97812500000000002        0.0000000000000000     
   9.3750000000000000E-002  0.93750000000000000        0.0000000000000000     
  0.12500000000000000       0.93750000000000000        0.0000000000000000     
  0.12500000000000000       0.96875000000000000        0.0000000000000000     
   8.1250000000000003E-002  0.95625000000000004        0.0000000000000000     
  0.10312499999999999       0.95937499999999998        0.0000000000000000     
  0.10625000000000000       0.98124999999999996        0.0000000000000000     
   8.4375000000000006E-002  0.97812500000000002        0.0000000000000000     
   3.1250000000000000E-002  0.87500000000000000        0.0000000000000000     
   6.2500000000000000E-002  0.87500000000000000        0.0000000000000000     
   6.2500000000000000E-002  0.90625000000000000        0.0000000000000000     
   1.8749999999999999E-002  0.89375000000000004        0.0000000000000000     
   4.0625000000000001E-002  0.89687499999999998        0.0000000000000000     
   4.3749999999999997E-002  0.91874999999999996        0.0000000000000000     
   2.1874999999999999E-002  0.91562500000000002        0.0000000000000000     
   9.3750000000000000E-002  0.87500000000000000        0.0000000000000000     
  0.12500000000000000       0.87500000000000000        0.0000000000000000     
  0.12500000000000000       0.90625000000000000        0.0000000000000000     
   8.1250000000000003E-002  0.89375000000000004        0.0000000000000000     
  0.10312499999999999       0.89687499999999998        0.0000000000000000     
  0.10625000000000000       0.91874999999999996        0.0000000000000000     
   8.4375000000000006E-002  0.91562500000000002        0.0000000000000000     
  0.15625000000000000       0.93750000000000000        0.0000000000000000     
  0.18750000000000000       0.93750000000000000        0.0000000000000000     
  0.18750000000000000       0.96875000000000000        0.0000000000000000     
  0.14374999999999999       0.95625000000000004        0.0000000000000000     
  0.16562499999999999       0.95937499999999998        0.0000000000000000     
  0.16875000000000001       0.98124999999999996        0.0000000000000000     
  0.14687500000000001       0.97812500000000002        0.0000000000000000     
  0.21875000000000000       0.93750000000000000        0.0000000000000000     
  0.25000000000000000       0.93750000000000000        0.0000000000000000     
  0.25000000000000000       0.96875000000000000        0.0000000000000000     
  0.20624999999999999       0.95625000000000004        0.0000000000000000     
  0.22812499999999999       0.95937499999999998        0.0000000000000000     
  0.23125000000000001       0.98124999999999996        0.0000000000000000     
  0.20937500000000001       0.97812500000000002        0.0000000000000000     
  0.15625000000000000       0.87500000000000000        0.0000000000000000     
  0.18750000000000000       0.87500000000000000        0.0000000000000000     
  0.18750000000000000       0.90625000000000000        0.0000000000000000     
  0.14374999999999999       0.89375000000000004        0.0000000000000000     
  0.16562499999999999       0.89687499999999998        0.0000000000000000     
  0.16875000000000001       0.91874999999999996        0.0000000000000000     
  0.14687500000000001       0.91562500000000002        0.0000000000000000     
  0.21875000000000000       0.87500000000000000        0.0000000000000000     
  0.25000000000000000       0.87500000000000000        0.0000000000000000     
  0.25000000000000000       0.90625000000000000        0.0000000000000000     
  0.20624999999999999       0.89375000000000004        0.0000000000000000     
  0.22812499999999999       0.89687499999999998        0.0000000000000000     
  0.23125000000000001       0.91874999999999996        0.0000000000000000     
  0.20937500000000001       0.91562500000000002        0.0000000000000000     
   3.1250000000000000E-002  0.81250000000000000        0.0000000000000000     
   6.2500000000000000E-002  0.81250000000000000        0.0000000000000000     
   6.2500000000000000E-002  0.84375000000000000        0.0000000000000000     
   1.8749999999999999E-002  0.83125000000000004        0.0000000000000000     
   4.0625000000000001E-002  0.83437499999999998        0.0000000000000000     
   4.3749999999999997E-002  0.85624999999999996        0.0000000000000000     
   2.1874999999999999E-002  0.85312500000000002        0.0000000000000000     
   9.3750000000000000E-002  0.81250000000000000        0.0000000000000000     
  0.12500000000000000       0.81250000000000000        0.0000000000000000     
  0.12500000000000000       0.84375000000000000        0.0000000000000000     
   8.1250000000000003E-002  0.83125000000000004        0.0000000000000000     
  0.10312499999999999       0.83437499999999998        0.0000000000000000     
  0.10625000000000000       0.85624999999999996        0.0000000000000000     
   8.4375000000000006E-002  0.85312500000000002        0.0000000000000000     
   3.1250000000000000E-002  0.75000000000000000        0.0000000000000000     
   6.2500000000000000E-002  0.75000000000000000        0.0000000000000000     
   6.2500000000000000E-002  0.78125000000000000        0.0000000000000000     
   1.8749999999999999E-002  0.76875000000000004        0.0000000000000000     
   4.0625000000000001E-002  0.77187499999999998        0.0000000000000000     
   4.3749999999999997E-002  0.79374999999999996        0.0000000000000000     
   2.1874999999999999E-002  0.79062500000000002        0.0000000000000000     
   9.3750000000000000E-002  0.75000000000000000        0.0000000000000000     
  0.12500000000000000       0.75000000000000000        0.0000000000000000     
  0.12500000000000000       0.78125000000000000        0.0000000000000000     
   8.1250000000000003E-002  0.76875000000000004        0.0000000000000000     
  0.10312499999999999       0.77187499999999998        0.0000000000000000     
  0.10625000000000000       0.79374999999999996        0.0000000000000000     
   8.4375000000000006E-002  0.79062500000000002        0.0000000000000000     
  0.15625000000000000       0.81250000000000000        0.0000000000000000     
  0.18750000000000000       0.81250000000000000        0.0000000000000000     
  0.18750000000000000       0.84375000000000000        0.0000000000000000     
  0.14374999999999999       0.83125000000000004        0.0000000000000000     
  0.16562499999999999       0.83437499999999998        0.0000000000000000     
  0.16875000000000001       0.85624999999999996        0.0000000000000000     
  0.14687500000000001       0.85312500000000002        0.0000000000000000     
  0.21875000000000000       0.81250000000000000        0.0000000000000000     
  0.25000000000000000       0.81250000000000000        0.0000000000000000     
  0.25000000000000000       0.84375000000000000        0.0000000000000000     
  0.20624999999999999       0.83125000000000004        0.0000000000000000     
  0.22812499999999999       0.83437499999999998        0.0000000000000000     
  0.23125000000000001       0.85624999999999996        0.0000000000000000     
  0.20937500000000001       0.85312500000000002        0.0000000000000000     
  0.15625000000000000       0.75000000000000000        0.0000000000000000     
  0.18750000000000000       0.75000000000000000        0.0000000000000000     
  0.18750000000000000       0.78125000000000000        0.0000000000000000     
  0.14374999999999999       0.76875000000000004        0.0000000000000000     
  0.16562499999999999       0.77187499999999998        0.0000000000000000     
  0.16875000000000001       0.79374999999999996        0.0000000000000000     
  0.14687500000000001       0.79062500000000002        0.0000000000000000     
  0.21875000000000000       0.75000000000000000        0.0000000000000000     
  0.25000000000000000       0.75000000000000000        0.0000000000000000     
  0.25000000000000000       0.78125000000000000        0.0000000000000000     
  0.20624999999999999       0.76875000000000004        0.0000000000000000     
  0.22812499999999999       0.77187499999999998        0.0000000000000000     
  0.23125000000000001       0.79374999999999996        0.0000000000000000     
  0.20937500000000001       0.79062500000000002        0.0000000000000000     
  0.28125000000000000       0.93750000000000000        0.0000000000000000     
  0.31250000000000000       0.93750000000000000        0.0000000000000000     
  0.31250000000000000       0.96875000000000000        0.0000000000000000     
  0.26874999999999999       0.95625000000000004        0.0000000000000000     
  0.29062500000000002       0.95937499999999998        0.0000000000000000     
  0.29375000000000001       0.98124999999999996        0.0000000000000000     
  0.27187499999999998       0.97812500000000002        0.0000000000000000     
  0.34375000000000000       0.93750000000000000        0.0000000000000000     
  0.37500000000000000       0.93750000000000000        0.0000000000000000     
  0.37500000000000000       0.96875000000000000        0.0000000000000000     
  0.33124999999999999       0.95625000000000004        0.0000000000000000     
  0.35312500000000002       0.95937499999999998        0.0000000000000000     
  0.35625000000000001       0.98124999999999996        0.0000000000000000     
[...]
 CELL_DATA        3584
 SCALARS Nutrients float
 LOOKUP_TABLE default
    0.50936199731769316035E+00
    0.50936207306373071368E+00
    0.50936211588026847341E+00
    0.50936212736311092808E+00
    0.50936207584093973200E+00
    0.50936199132597392847E+00
    0.50936198438958391055E+00
    0.50936196663595723066E+00
    0.50936192448990491588E+00
    0.50936193002783725081E+00
    0.50936196964864433046E+00
    0.50936198493896844841E+00
    0.50936203287648862403E+00
    0.50936203373923605309E+00
    0.50936220166016055177E+00
    0.50936219793366521724E+00
    0.50936218583587644648E+00
    0.50936217227475721891E+00
    0.50936213251597373119E+00
    0.50936203125931112101E+00
    0.50936203470662444470E+00
    0.50936203451192574310E+00
    0.50936202057826007739E+00
    0.50936200957442379078E+00
    0.50936211625490535049E+00
    0.50936213982577316361E+00
    0.50936213140800368215E+00
    0.50936211481803894685E+00
    0.50936203354948816902E+00
    0.50936212519153967193E+00
    0.50936215544459184645E+00
    0.50936218963105939217E+00
    0.50936218962973478508E+00
    0.50936218257850784941E+00
    0.50936213807232677553E+00
    0.50936210729175201983E+00
    0.50936199567110540531E+00
    0.50936201523662072432E+00
    0.50936202934285301769E+00
    0.50936202946056774454E+00
    0.50936210829696149105E+00
    0.50936212635619149136E+00
    0.50936208396411164490E+00
    0.50936201083321031025E+00
    0.50936147131941300614E+00
    0.50936148051804919223E+00
    0.50936200853544566503E+00
    0.50936207182426096463E+00
    0.50936218752239104113E+00
    0.50936222312659151790E+00
    0.50936220980199342634E+00
    0.50936221408765491869E+00
    0.50936222206781600619E+00
    0.50936218099690189209E+00
    0.50936216355695396185E+00
    0.50936216427025504672E+00
    0.50936209637907126080E+00
    0.50936207219072260344E+00
    0.50936181189405282943E+00
    0.50936190265910308295E+00
    0.50936204871221402168E+00
    0.50936199122193692723E+00
    0.50936202524164297945E+00
    0.50936203455735129531E+00
    0.50936204120103356630E+00
    0.50936203836801141609E+00
    0.50936212584988105334E+00
    0.50936215074450041929E+00
    0.50936210119489999659E+00
    0.50936208841604979636E+00
    0.50936077957268355298E+00
    0.50936099144687363438E+00
    0.50935939527618789846E+00
    0.50936040026489814991E+00
    0.50936150969748861250E+00
    0.50936175498891478330E+00
    0.50936191097650018733E+00
    0.50936191217718307378E+00
    0.50936198820551226163E+00
    0.50936197713583908353E+00
    0.50936190373169609735E+00
    0.50936173266208262245E+00
    0.50936171226015014568E+00
    0.50936178452005265171E+00
    0.50935791619306391986E+00
    0.50935698581456501088E+00
    0.50934924142292137272E+00
    0.50935113675397869493E+00
    0.50935805842129733279E+00
    0.50935983714639831987E+00
    0.50936144377516101578E+00
    0.50936145704107527177E+00
    0.50936199449988106558E+00
    0.50936197443582809097E+00
    0.50936125879292770691E+00
    0.50936085974928713149E+00
    0.50936010707953327525E+00
    0.50936027873711786640E+00
    0.50931574263499734823E+00
    0.50931713008933832132E+00
    0.50926695955072032174E+00
    0.50929132159375611888E+00
    0.50933361161059642619E+00
    0.50934774372375557494E+00
    0.50935679267286904093E+00
    0.50935546574984424950E+00
    0.50935966365948459611E+00
    0.50935886674860575418E+00
    0.50935143234000235246E+00
    0.50934534558940003368E+00
    0.50934320492781770540E+00
    0.50934601556808822842E+00
    0.50936199303437135200E+00
    0.50936204051654032643E+00
    0.50936188483935929128E+00
    0.50936181377216882549E+00
    0.50936206139491979616E+00
    0.50936207277733858145E+00
    0.50936214460892581535E+00
    0.50936211417852794714E+00
    0.50936202171216260481E+00
    0.50936203392847601013E+00
    0.50936202815240216868E+00
    0.50936201930963653783E+00
    0.50936208051124387541E+00
    0.50936209431916845691E+00
    0.50935984754945784481E+00
    0.50935805896878061372E+00
    0.50935112647591096469E+00
    0.50934924918964596952E+00
    0.50935698122747374850E+00
    0.50935790071093300924E+00
    0.50936086246998957261E+00
    0.50936125717265923196E+00
    0.50936196475681305706E+00
    0.50936199340282739545E+00
    0.50936145134930987943E+00
    0.50936143458758653679E+00
    0.50936027524068561156E+00
    0.50936010529854158779E+00
    0.50936175676979356108E+00
    0.50936150144353908864E+00
    0.50936038240068859384E+00
    0.50935939708094990497E+00
    0.50936098047159572566E+00
    0.50936075557648108347E+00
    0.50936172589708395009E+00
    0.50936189174202239904E+00
    0.50936196015759305222E+00
    0.50936198072944938176E+00
    0.50936190566043704209E+00
    0.50936190499096389850E+00
    0.50936177649850444826E+00
    0.50936170522216450696E+00
    0.50934775410702415321E+00
    0.50933361219801986941E+00
    0.50929131128531035522E+00
    0.50926696724658593318E+00
    0.50931712540129747691E+00
    0.50931572675516023629E+00
    0.50934534758431859736E+00
    0.50935143027469231836E+00
    0.50935885610279318936E+00
    0.50935966209926319959E+00
    0.50935545996334019581E+00
    0.50935678342280599207E+00
    0.50934601223980524587E+00
    0.50934320324676229941E+00
    0.50930227051033383212E+00
    0.50927812596479848928E+00
    0.50917061790837880864E+00
    0.50917062670854817963E+00
    0.50927812277244943751E+00
    0.50930225596576861324E+00
    0.50933989077942032342E+00
    0.50934225879578465257E+00
    0.50935535048292224225E+00
    0.50935535589972069648E+00
    0.50934225775620611820E+00
    0.50933988657076811890E+00
    0.50932095191139137302E+00
    0.50932095253414533254E+00
    0.50868318168626802667E+00
    0.50860157265810912453E+00
    0.50788017108728855664E+00
    0.50807550122420819250E+00
    0.50875688471162561211E+00
    0.50898409043036052513E+00
    0.50920127002594262056E+00
    0.50918675067493768260E+00
    0.50928897263296213360E+00
    0.50927833467888439234E+00
    0.50913996436606967499E+00
    0.50907659728094700746E+00
    0.50897693186355597028E+00
    0.50900543811541776318E+00
    0.50898410494269852311E+00
    0.50875688783159478401E+00
    0.50807549237952198684E+00
    0.50788017979619393127E+00
    0.50860156922913579702E+00
    0.50868316670443047833E+00
    0.50907660076555494300E+00
    0.50913996492907109825E+00
    0.50927832863573241351E+00
    0.50928897763942615473E+00
    0.50918674942305697240E+00
    0.50920126573318258423E+00
    0.50900543730717340285E+00
    0.50897693223906159687E+00
    0.50489558024445668760E+00
    0.50362028454900376051E+00
    0.49900415585779084315E+00
    0.49900416539117148362E+00
    0.50362028116031587466E+00
    0.50489556499262411293E+00
    0.50718782568866460636E+00
    0.50730564725658400249E+00
    0.50841535514808389173E+00
    0.50841536075190263411E+00
    0.50730564645965081638E+00
    0.50718782212123725284E+00
    0.50585151591934718329E+00
    0.50585151648485904285E+00
    0.50935534575862717599E+00
    0.50935742917484683190E+00
    0.50935275362255150178E+00
    0.50935677127283129906E+00
    0.50936013105184874128E+00
    0.50936121439768633490E+00
    0.50936161037201554969E+00
    0.50936152071515183870E+00
    0.50936177179145314398E+00
    0.50936168828152261767E+00
    0.50936097938150193265E+00
    0.50935978604515319557E+00
    0.50936039517875797422E+00
    0.50936083100394491385E+00
    0.50934557693340698492E+00
    0.50935221660148821687E+00
    0.50934490411275734623E+00
    0.50935294376844020281E+00
    0.50935858672893208343E+00
    0.50936066614360586691E+00
    0.50936125851577895851E+00
    0.50936096716791789962E+00
    0.50936139149252535052E+00
    0.50936111549220397521E+00
    0.50935927931760405230E+00
    0.50935581569675381086E+00
    0.50935842033504619142E+00
    0.50935950239114757832E+00
    0.50913229788247071905E+00
    0.50917983155827117869E+00
    0.50903226672125656549E+00
    0.50914244547325959722E+00
    0.50926854926454345751E+00
    0.50931926954589035184E+00
    0.50934418793441194051E+00
    0.50933551629536522043E+00
    0.50935008675748683071E+00
    0.50934422239884669104E+00
    0.50930888501439253169E+00
    0.50926886163633322546E+00
    0.50928334752532311569E+00
    0.50929930925314226275E+00
    0.50879651752259291708E+00
    0.50897760031676608783E+00
    0.50875579643142099240E+00
    0.50898722710418764503E+00
    0.50919563013322488576E+00
    0.50929071573410356066E+00
    0.50932944900522103548E+00
    0.50930699350734698339E+00
    0.50933285554257268224E+00
    0.50931422440118001571E+00
    0.50922904591460338430E+00
    0.50910731687097121601E+00
    0.50919266857106781909E+00
    0.50923377040755912759E+00
    0.50933805666292686354E+00
    0.50934886169739101991E+00
    0.50934094230144177917E+00
    0.50935120603465022793E+00
    0.50935783517342869686E+00
    0.50936042299055694915E+00
    0.50936107592457857685E+00
    0.50936062028608231067E+00
    0.50936109298087184349E+00
    0.50936061211076932853E+00
    0.50935789969145761624E+00
    0.50935227878025712833E+00
    0.50935711686078455340E+00
    0.50935868511546855686E+00
    0.50933564138324871617E+00
    0.50934793995955118806E+00
    0.50934011364758668972E+00
    0.50935088515730919667E+00
    0.50935768243110768339E+00
    0.50936037913147480527E+00
    0.50936103551665889988E+00
    0.50936052654253338723E+00
    0.50936099082652674941E+00
    0.50936041961273959000E+00
    0.50935741657306687902E+00
    0.50935092345840327077E+00
    0.50935674823177190529E+00
    0.50935846967527320661E+00
    0.50854348708437380200E+00
    0.50885140049608179602E+00
    0.50862169131338186290E+00
    0.50892021300900958103E+00
    0.50916140150908362205E+00
    0.50927867613546007330E+00
    0.50932206689725301185E+00
    0.50928962376277697732E+00
    0.50931951026710586827E+00
    0.50928804508614899937E+00
    0.50916536723845406964E+00
    0.50896408425830952371E+00
    0.50913441676827908555E+00
    0.50919468610856133406E+00
    0.50846694239072987020E+00
    0.50881897328016922888E+00
    0.50859548513954211391E+00
    0.50890875052225115205E+00
    0.50915486389187447624E+00
    0.50927666164659501913E+00
    0.50932053285241773999E+00
    0.50928523030400840721E+00
    0.50931517165177275785E+00
    0.50927849295091098814E+00
    0.50914426226502895734E+00
    0.50891152531019889782E+00
    0.50911894668454638069E+00
    0.50918504719896140465E+00
    0.50586693798524429155E+00
    0.50618233812224444623E+00
    0.50409274363608369551E+00
    0.50528463087356256800E+00
    0.50732063797457238596E+00
    0.50821750221327677277E+00
    0.50881152132234308549E+00
    0.50864610092202466873E+00
    0.50900105657278471583E+00
    0.50889379570043002943E+00
    0.50822176187026169014E+00
    0.50769614100802007428E+00
    0.50770650367576108941E+00
    0.50792948548847816070E+00
    0.50066091194148509835E+00
    0.50262533262946262891E+00
    0.49968396617303423302E+00
    0.50242938357494359991E+00
    0.50571985609878788992E+00
    0.50746174224090090377E+00
    0.50835752948755608127E+00
    0.50786891735231010081E+00
    0.50847372883185004699E+00
    0.50808719407476143903E+00
    0.50647723596536087243E+00
    0.50469666097137044769E+00
    0.50577696956784712334E+00
    0.50641965286574208704E+00
    0.48576109723148924724E+00
    0.48478013903595179590E+00
    0.47190574712071831076E+00
    0.47605244376378919036E+00
    0.48955600812889954465E+00
    0.49564389996216640100E+00
    0.50172175852860700918E+00
    0.50071618865954548028E+00
    0.50449733658344741993E+00
    0.50384187720448203596E+00
    0.49846690415972783050E+00
    0.49614638394864607474E+00
    0.49384490006987064037E+00
    0.49487061539465065918E+00
    0.45032517035308294862E+00
    0.45735885887980920472E+00
    0.44098126050013847221E+00
    0.45317357616003867138E+00
    0.47408881606284880572E+00
    0.48675001415083224421E+00
    0.49542806278535977960E+00
    0.49126553991651999986E+00
    0.49725227745572453397E+00
    0.49411325321514404374E+00
    0.48162500254795914678E+00
    0.47171091064018272343E+00
    0.47572252768046774385E+00
    0.47958826327020159797E+00
    0.49684745845693645272E+00
    0.50048866523326096534E+00
    0.49764114679202259284E+00
    0.50126357537870436243E+00
    0.50499782415074268016E+00
    0.50715943551275433077E+00
    0.50813910376706317162E+00
    0.50740940538288181738E+00
    0.50807427130864479814E+00
    0.50739437413558374779E+00
    0.50512001324188793294E+00
    0.50206828820140170233E+00
    0.50457884514164363932E+00
    0.50555195435044764096E+00
    0.49576275088785431988E+00
    0.49997657239917114858E+00
    0.49726820305699626079E+00
    0.50107899608601003116E+00
    0.50486828055134402859E+00
    0.50711240580248861942E+00
    0.50809668477489400296E+00
    0.50730000855606127708E+00
    0.50795210880330698977E+00
    0.50715460388502253686E+00
    0.50469643535734420858E+00
    0.50114917821613180759E+00
    0.50428102221911019765E+00
    0.50535226874253014184E+00
    0.42525552103499353329E+00
    0.44160165791443278804E+00
    0.42735599206760671587E+00
    0.44435570055230977360E+00
    0.46740651687195844399E+00
    0.48338595591689853537E+00
    0.49253381252923500444E+00
    0.48586503827328042515E+00
    0.49192721478125928103E+00
    0.48596424771859542124E+00
    0.46894712262526805358E+00
    0.45073024599579253335E+00
    0.46491666242812906829E+00
    0.47117080854026155423E+00
    0.41850305177252655753E+00
    0.43805164740437085857E+00
    0.42499930637564647951E+00
    0.44304371219464805387E+00
    0.46627085613269148023E+00
    0.48289600123767878470E+00
    0.49200759801601273713E+00
    0.48465078900837688103E+00
    0.49040069497676319621E+00
    0.48329972750876548648E+00
    0.46522343017563028145E+00
    0.44374941548931723379E+00
    0.46239243352560271960E+00
    0.46935434544422272030E+00
    0.50936121617754159807E+00
    0.50936012279596132313E+00
    0.50935675340766306540E+00
    0.50935275542586366804E+00
    0.50935741819317892354E+00
    0.50935532174889452950E+00
    0.50935977925219921847E+00
    0.50936096737665215173E+00
    0.50936167128437248586E+00
    0.50936176430455082365E+00
    0.50936151419334096957E+00
    0.50936160438443633947E+00
    0.50936082297762264037E+00
    0.50936038813396133929E+00
    0.50931927993124714860E+00
    0.50926854986102620959E+00
    0.50914243517205648448E+00
    0.50903227442725740293E+00
    0.50917982687057894431E+00
    0.50913228198712923156E+00
    0.50926886360639689322E+00
    0.50930888294055631782E+00
    0.50934421173735555666E+00
    0.50935008518570890068E+00
    0.50933551051037584401E+00
    0.50934417868465353685E+00
    0.50929930593718120146E+00
    0.50928334585358681075E+00
    0.50936066792340706222E+00
    0.50935857847279575328E+00
    0.50935292590200542673E+00
    0.50934490591377501456E+00
    0.50935220561860039545E+00
    0.50934555292167005280E+00
    0.50935580890281684230E+00
    0.50935926731233294174E+00
    0.50936109849452237963E+00
    0.50936138400531594250E+00
    0.50936096064594915678E+00
    0.50936125252815012132E+00
    0.50935949436460004058E+00
    0.50935841328985165255E+00
    0.50929072610453995917E+00
    0.50919563071676199328E+00
    0.50898721677869385172E+00
    0.50875580407976050967E+00
    0.50897759561041966414E+00
    0.50879650162368639243E+00
    0.50910731884035087536E+00
    0.50922904383379874460E+00
    0.50931421373965590771E+00
    0.50933285396750527241E+00
    0.50930698771261051494E+00
    0.50932943975052047403E+00
    0.50923376708218226483E+00
    0.50919266688933850773E+00
    0.50821751678897320037E+00
    0.50732064099404616808E+00
    0.50528462222500669654E+00
    0.50409275355235394489E+00
    0.50618233519895983186E+00
    0.50586692279739675637E+00
    0.50769614443719113250E+00
    0.50822176246904049446E+00
    0.50889378965534703969E+00
    0.50900106156425539705E+00
    0.50864609968193286171E+00
    0.50881151705584737321E+00
    0.50792948473206800397E+00
    0.50770650420181862028E+00
    0.49564391773787985773E+00
    0.48955601225076061933E+00
    0.47605243241408362609E+00
    0.47190575615211749483E+00
    0.48478013336858194471E+00
    0.48576107964697717856E+00
    0.49614638611303679694E+00
    0.49846690453852371405E+00
    0.50384187189310536414E+00
    0.50449734195742435006E+00
    0.50071618783143834186E+00
    0.50172175632670490408E+00
    0.49487061434141121907E+00
    0.49384489961557392901E+00
    0.50746175655082703670E+00
    0.50571985914020911590E+00
    0.50242937319675196051E+00
    0.49968397497744510005E+00
    0.50262532785581814920E+00
    0.50066089607682162654E+00
    0.50469666477889962852E+00
    0.50647723698557622907E+00
    0.50808718817419795677E+00
    0.50847373382152849519E+00
    0.50786891586800753107E+00
    0.50835752501989217578E+00
    0.50641965162214119811E+00
    0.50577696946548222900E+00
    0.48675003454616527776E+00
    0.47408882094804100094E+00
    0.45317356442161388363E+00
    0.44098126983834662340E+00
    0.45735885447301372064E+00
    0.45032515683593155043E+00
    0.47171091142666943252E+00
    0.48162500238673916497E+00
    0.49411325061900762678E+00
    0.49725228323998749147E+00
    0.49126553937915301562E+00
    0.49542806128783400954E+00
    0.47958826215026389983E+00
    0.47572252698504235990E+00
    0.50936042477026122199E+00
    0.50935782691665243416E+00
    0.50935118816519397988E+00
    0.50934094409021712924E+00
    0.50934885070901403381E+00
    0.50933803263729271471E+00
    0.50935227198350407907E+00
    0.50935788768550449568E+00
    0.50936059511303000136E+00
    0.50936108549367653531E+00
    0.50936061376401731149E+00
    0.50936106993689933553E+00
    0.50935867708845494750E+00
    0.50935710981449300316E+00
    0.50927868646613105863E+00
    0.50916140191795700165E+00
    0.50892020252688008330E+00
    0.50862169877537910523E+00
    0.50885139554796132710E+00
    0.50854347095650720423E+00
    0.50896408616609312148E+00
    0.50916536501237952272E+00
    0.50928803439205239112E+00
    0.50931950865889885627E+00
    0.50928961782862947061E+00
    0.50932205760948234818E+00
    0.50919468238486942369E+00
    0.50913441467775566451E+00
    0.50936038091111690562E+00
    0.50935767417429844706E+00
    0.50935086728775003095E+00
    0.50934011543575596903E+00
    0.50934792897063119188E+00
    0.50933561735538224191E+00
    0.50935091666029186364E+00
    0.50935740456687994548E+00
    0.50936040261494930359E+00
    0.50936098333928836457E+00
    0.50936052002041698472E+00
    0.50936102952893780316E+00
    0.50935846164818854298E+00
    0.50935674118534113308E+00
    0.50927667197778725416E+00
    0.50915486431626555408E+00
    0.50890874012244757818E+00
    0.50859549291452377240E+00
    0.50881896832436479539E+00
    0.50846692582738117760E+00
    0.50891152709043085967E+00
    0.50914425999195112027E+00
    0.50927848223666916105E+00
    0.50931517003769366525E+00
    0.50928522436411038932E+00
    0.50932052356329393650E+00
    0.50918504346267601246E+00
    0.50911894457042705664E+00
    0.50715944961443937267E+00
    0.50499782685963079398E+00
    0.50126356413447770155E+00
    0.49764115524401397739E+00
    0.50048866096767419265E+00
    0.49684744381628548338E+00
    0.50206829027035626556E+00
    0.50512001294452368860E+00
    0.50739436787019254194E+00
    0.50807427598147802961E+00
    0.50740940344737284207E+00
    0.50813909887708619273E+00
    0.50555195264075813988E+00
    0.50457884452319690105E+00
    0.48338597710710523581E+00
    0.46740652217741524010E+00
    0.44435568838220801391E+00
    0.42735600162674552971E+00
    0.44160165478871304945E+00
    0.42525550965558134298E+00
    0.45073024669743766424E+00
    0.46894712354492423811E+00
    0.48596424809526178601E+00
    0.49192722255984683288E+00
    0.48586503870445235664E+00
    0.49253381127486822733E+00