# vtk DataFile Version 3.0
LAPLACIEN  2D
ASCII
DATASET UNSTRUCTURED_GRID
 POINTS        1857  float
   3.1250000000000000E-002  0.93750000000000000        0.0000000000000000     
   6.2500000000000000E-002  0.93750000000000000        0.0000000000000000     
   6.2500000000000000E-002  0.96875000000000000        0.0000000000000000     
   1.8749999999999999E-002  0.95625000000000004        0.0000000000000000     
   4.0625000000000001E-002  0.95937499999999998        0.0000000000000000     
   4.3749999999999997E-002  0.98124999999999996        0.0000000000000000     
   2.1874999999999999E-002  0.97812500000000002        0.0000000000000000     
   9.3750000000000000E-002  0.93750000000000000        0.0000000000000000     
  0.12500000000000000       0.93750000000000000        0.0000000000000000     
  0.12500000000000000       0.96875000000000000        0.0000000000000000     
   8.1250000000000003E-002  0.95625000000000004        0.0000000000000000     
  0.10312499999999999       0.95937499999999998        0.0000000000000000     
  0.10625000000000000       0.98124999999999996        0.0000000000000000     
   8.4375000000000006E-002  0.97812500000000002        0.0000000000000000     
   3.1250000000000000E-002  0.87500000000000000        0.0000000000000000     
   6.2500000000000000E-002  0.87500000000000000        0.0000000000000000     
   6.2500000000000000E-002  0.90625000000000000        0.0000000000000000     
   1.8749999999999999E-002  0.89375000000000004        0.0000000000000000     
   4.0625000000000001E-002  0.89687499999999998        0.0000000000000000     
   4.3749999999999997E-002  0.91874999999999996        0.0000000000000000     
   2.1874999999999999E-002  0.91562500000000002        0.0000000000000000     
   9.3750000000000000E-002  0.87500000000000000        0.0000000000000000     
  0.12500000000000000       0.87500000000000000        0.0000000000000000     
  0.12500000000000000       0.90625000000000000        0.0000000000000000     
   8.1250000000000003E-002  0.89375000000000004        0.0000000000000000     
  0.10312499999999999       0.89687499999999998        0.0000000000000000     
  0.10625000000000000       0.91874999999999996        0.0000000000000000     
   8.4375000000000006E-002  0.91562500000000002        0.0000000000000000     
  0.15625000000000000       0.93750000000000000        0.0000000000000000     
  0.18750000000000000       0.93750000000000000        0.0000000000000000     
  0.18750000000000000       0.96875000000000000        0.0000000000000000     
  0.14374999999999999       0.95625000000000004        0.0000000000000000     
  0.16562499999999999       0.95937499999999998        0.0000000000000000     
  0.16875000000000001       0.98124999999999996        0.0000000000000000     
  0.14687500000000001       0.97812500000000002        0.0000000000000000     
  0.21875000000000000       0.93750000000000000        0.0000000000000000     
  0.25000000000000000       0.93750000000000000        0.0000000000000000     
  0.25000000000000000       0.96875000000000000        0.0000000000000000     
  0.20624999999999999       0.95625000000000004        0.0000000000000000     
  0.22812499999999999       0.95937499999999998        0.0000000000000000     
  0.23125000000000001       0.98124999999999996        0.0000000000000000     
  0.20937500000000001       0.97812500000000002        0.0000000000000000     
  0.15625000000000000       0.87500000000000000        0.0000000000000000     
  0.18750000000000000       0.87500000000000000        0.0000000000000000     
  0.18750000000000000       0.90625000000000000        0.0000000000000000     
  0.14374999999999999       0.89375000000000004        0.0000000000000000     
  0.16562499999999999       0.89687499999999998        0.0000000000000000     
  0.16875000000000001       0.91874999999999996        0.0000000000000000     
  0.14687500000000001       0.91562500000000002        0.0000000000000000     
  0.21875000000000000       0.87500000000000000        0.0000000000000000     
  0.25000000000000000       0.87500000000000000        0.0000000000000000     
  0.25000000000000000       0.90625000000000000        0.0000000000000000     
  0.20624999999999999       0.89375000000000004        0.0000000000000000     
  0.22812499999999999       0.89687499999999998        0.0000000000000000     
  0.23125000000000001       0.91874999999999996        0.0000000000000000     
  0.20937500000000001       0.91562500000000002        0.0000000000000000     
   3.1250000000000000E-002  0.81250000000000000        0.0000000000000000     
   6.2500000000000000E-002  0.81250000000000000        0.0000000000000000     
   6.2500000000000000E-002  0.84375000000000000        0.0000000000000000     
   1.8749999999999999E-002  0.83125000000000004        0.0000000000000000     
   4.0625000000000001E-002  0.83437499999999998        0.0000000000000000     
   4.3749999999999997E-002  0.85624999999999996        0.0000000000000000     
   2.1874999999999999E-002  0.85312500000000002        0.0000000000000000     
   9.3750000000000000E-002  0.81250000000000000        0.0000000000000000     
  0.12500000000000000       0.81250000000000000        0.0000000000000000     
  0.12500000000000000       0.84375000000000000        0.0000000000000000     
   8.1250000000000003E-002  0.83125000000000004        0.0000000000000000     
  0.10312499999999999       0.83437499999999998        0.0000000000000000     
  0.10625000000000000       0.85624999999999996        0.0000000000000000     
   8.4375000000000006E-002  0.85312500000000002        0.0000000000000000     
   3.1250000000000000E-002  0.75000000000000000        0.0000000000000000     
   6.2500000000000000E-002  0.75000000000000000        0.0000000000000000     
   6.2500000000000000E-002  0.78125000000000000        0.0000000000000000     
   1.8749999999999999E-002  0.76875000000000004        0.0000000000000000     
   4.0625000000000001E-002  0.77187499999999998        0.0000000000000000     
   4.3749999999999997E-002  0.79374999999999996        0.0000000000000000     
   2.1874999999999999E-002  0.79062500000000002        0.0000000000000000     
   9.3750000000000000E-002  0.75000000000000000        0.0000000000000000     
  0.12500000000000000       0.75000000000000000        0.0000000000000000     
  0.12500000000000000       0.78125000000000000        0.0000000000000000     
   8.1250000000000003E-002  0.76875000000000004        0.0000000000000000     
  0.10312499999999999       0.77187499999999998        0.0000000000000000     
  0.10625000000000000       0.79374999999999996        0.0000000000000000     
   8.4375000000000006E-002  0.79062500000000002        0.0000000000000000     
  0.15625000000000000       0.81250000000000000        0.0000000000000000     
  0.18750000000000000       0.81250000000000000        0.0000000000000000     
  0.18750000000000000       0.84375000000000000        0.0000000000000000     
  0.14374999999999999       0.83125000000000004        0.0000000000000000     
  0.16562499999999999       0.83437499999999998        0.0000000000000000     
  0.16875000000000001       0.85624999999999996        0.0000000000000000     
  0.14687500000000001       0.85312500000000002        0.0000000000000000     
  0.21875000000000000       0.81250000000000000        0.0000000000000000     
  0.25000000000000000       0.81250000000000000        0.0000000000000000     
  0.25000000000000000       0.84375000000000000        0.0000000000000000     
  0.20624999999999999       0.83125000000000004        0.0000000000000000     
  0.22812499999999999       0.83437499999999998        0.0000000000000000     
  0.23125000000000001       0.85624999999999996        0.0000000000000000     
  0.20937500000000001       0.85312500000000002        0.0000000000000000     
  0.15625000000000000       0.75000000000000000        0.0000000000000000     
  0.18750000000000000       0.75000000000000000        0.0000000000000000     
  0.18750000000000000       0.78125000000000000        0.0000000000000000     
  0.14374999999999999       0.76875000000000004        0.0000000000000000     
  0.16562499999999999       0.77187499999999998        0.0000000000000000     
  0.16875000000000001       0.79374999999999996        0.0000000000000000     
  0.14687500000000001       0.79062500000000002        0.0000000000000000     
  0.21875000000000000       0.75000000000000000        0.0000000000000000     
  0.25000000000000000       0.75000000000000000        0.0000000000000000     
  0.25000000000000000       0.78125000000000000        0.0000000000000000     
  0.20624999999999999       0.76875000000000004        0.0000000000000000     
  0.22812499999999999       0.77187499999999998        0.0000000000000000     
  0.23125000000000001       0.79374999999999996        0.0000000000000000     
  0.20937500000000001       0.79062500000000002        0.0000000000000000     
  0.28125000000000000       0.93750000000000000        0.0000000000000000     
  0.31250000000000000       0.93750000000000000        0.0000000000000000     
  0.31250000000000000       0.96875000000000000        0.0000000000000000     
  0.26874999999999999       0.95625000000000004        0.0000000000000000     
  0.29062500000000002       0.95937499999999998        0.0000000000000000     
  0.29375000000000001       0.98124999999999996        0.0000000000000000     
  0.27187499999999998       0.97812500000000002        0.0000000000000000     
  0.34375000000000000       0.93750000000000000        0.0000000000000000     
  0.37500000000000000       0.93750000000000000        0.0000000000000000     
  0.37500000000000000       0.96875000000000000        0.0000000000000000     
  0.33124999999999999       0.95625000000000004        0.0000000000000000     
  0.35312500000000002       0.95937499999999998        0.0000000000000000     
  0.35625000000000001       0.98124999999999996        0.0000000000000000     
[...]
 CELL_DATA        3584
 SCALARS Nutrients float
 LOOKUP_TABLE default
    0.51830610426263945545E+00
    0.51830606497516895637E+00
    0.51830516558839612173E+00
    0.51830517874392179056E+00
    0.51830607104782766559E+00
    0.51830610535597110289E+00
    0.51830647155595088726E+00
    0.51830657956823533716E+00
    0.51830671112389825606E+00
    0.51830671644008441401E+00
    0.51830658206880741989E+00
    0.51830646888908116221E+00
    0.51830643583793789553E+00
    0.51830643712896629083E+00
    0.51830094635316825702E+00
    0.51829985590014016061E+00
    0.51829290852581411109E+00
    0.51829378409951998297E+00
    0.51830022924116414540E+00
    0.51830129859196327757E+00
    0.51830358708498402986E+00
    0.51830440901878260807E+00
    0.51830562273759972491E+00
    0.51830580353735966614E+00
    0.51830470538969419803E+00
    0.51830434106524592153E+00
    0.51830303084811879533E+00
    0.51830304719142339387E+00
    0.51830128348181014886E+00
    0.51830020845349777936E+00
    0.51829375663267962526E+00
    0.51829290721142073917E+00
    0.51829984257230010680E+00
    0.51830092569121499757E+00
    0.51830433528611996596E+00
    0.51830468870798285241E+00
    0.51830578172097230283E+00
    0.51830560713707596321E+00
    0.51830439161558294892E+00
    0.51830356680627598376E+00
    0.51830302968571428934E+00
    0.51830301664396560835E+00
    0.51826390228098295765E+00
    0.51825304865910015728E+00
    0.51820516409308314820E+00
    0.51820517418531408804E+00
    0.51825304768120228349E+00
    0.51826389416700968660E+00
    0.51828667641467918159E+00
    0.51828861511523172112E+00
    0.51829864811701598093E+00
    0.51829865161310284538E+00
    0.51828861516505009277E+00
    0.51828666852423832534E+00
    0.51827532566218348364E+00
    0.51827532621121619183E+00
    0.51826912133479952072E+00
    0.51826741428500289199E+00
    0.51823636216556456802E+00
    0.51824539431696037273E+00
    0.51827415098309437269E+00
    0.51828148299935961063E+00
    0.51829039689756062348E+00
    0.51829315124339681020E+00
    0.51829888175925653560E+00
    0.51829959550683013525E+00
    0.51829266325427836293E+00
    0.51828909137840084576E+00
    0.51828468536983984816E+00
    0.51828572111337456452E+00
    0.51815521931087338281E+00
    0.51816512520294111255E+00
    0.51807619612463284842E+00
    0.51811831313593148529E+00
    0.51820276555944355668E+00
    0.51823110052974097339E+00
    0.51825371172218592797E+00
    0.51825823243766344639E+00
    0.51827508900407759374E+00
    0.51827596437012701802E+00
    0.51824932221882902272E+00
    0.51822976751228000403E+00
    0.51822585503475349089E+00
    0.51823251892520971751E+00
    0.51803849226086950974E+00
    0.51800786768094542190E+00
    0.51779265554246478587E+00
    0.51782834691471069100E+00
    0.51804256108371227185E+00
    0.51811004913073932521E+00
    0.51820606439784633324E+00
    0.51820557949516621310E+00
    0.51825508051006230481E+00
    0.51825140525847179784E+00
    0.51819177486945222633E+00
    0.51817043131727336114E+00
    0.51812781480188074834E+00
    0.51813476427445814831E+00
    0.51721900867867554030E+00
    0.51722286456073307548E+00
    0.51660718016373030625E+00
    0.51682487859088122040E+00
    0.51745674744369651865E+00
    0.51771343993993956811E+00
    0.51797909243958917269E+00
    0.51794349187040944482E+00
    0.51809919231951406804E+00
    0.51806901898619128755E+00
    0.51783843176898469718E+00
    0.51771092090072545755E+00
    0.51764712460214978851E+00
    0.51769598256109861101E+00
    0.51828146216908643762E+00
    0.51827412188983146279E+00
    0.51824535709918528870E+00
    0.51823634721429190364E+00
    0.51826738747321388079E+00
    0.51826908515336722605E+00
    0.51828907142324343038E+00
    0.51829263435766925738E+00
    0.51829956138381139130E+00
    0.51829885563299771256E+00
    0.51829312508090386036E+00
    0.51829036999471234104E+00
    0.51828569388160339315E+00
    0.51828466014823881824E+00
    0.51811004701511886861E+00
    0.51804255348325001229E+00
    0.51782833171380759918E+00
    0.51779265953854092253E+00
    0.51800785988952346983E+00
    0.51803847550200721184E+00
    0.51817043090712766595E+00
    0.51819176663631738577E+00
    0.51825138919013857830E+00
    0.51825506813932609163E+00
    0.51820556369171966171E+00
    0.51820604151394122905E+00
    0.51813475391201002651E+00
    0.51812780721818640917E+00
    0.51823107903393350604E+00
    0.51820273535608107895E+00
    0.51811827576365532266E+00
    0.51807617980957409998E+00
    0.51816509534619314969E+00
    0.51815517800745736210E+00
    0.51822974004040955887E+00
    0.51824928849208529158E+00
    0.51827592556733559359E+00
    0.51827505928890538200E+00
    0.51825820387506749132E+00
    0.51825368342927280452E+00
    0.51823248928517107181E+00
    0.51822582677289485975E+00
    0.51771343694731486451E+00
    0.51745673841837425133E+00
    0.51682486007603989364E+00
    0.51660718377123304723E+00
    0.51722285425813929738E+00
    0.51721898780178310329E+00
    0.51771091702603144746E+00
    0.51783842091008158715E+00
    0.51806899620777879800E+00
    0.51809917492273782624E+00
    0.51794347326822276489E+00
    0.51797906796077075597E+00
    0.51769597008765133594E+00
    0.51764711484836578581E+00
    0.51706636566102770480E+00
    0.51682228499674920386E+00
    0.51585730594062162435E+00
    0.51585731676066903795E+00
    0.51682228236897675977E+00
    0.51706635240937570686E+00
    0.51762191422772851901E+00
    0.51766712250395496842E+00
    0.51796116824662985501E+00
    0.51796117245476525071E+00
    0.51766712051352714585E+00
    0.51762190781912209570E+00
    0.51732205943635911627E+00
    0.51732206024013871470E+00
    0.51321872929662548657E+00
    0.51286101336697298425E+00
    0.51012248874338128601E+00
    0.51064249133640016165E+00
    0.51347737809485360927E+00
    0.51453105017327582793E+00
    0.51605415089195583178E+00
    0.51598631695825503130E+00
    0.51690553997270682896E+00
    0.51680794470426749676E+00
    0.51567291675786441907E+00
    0.51527305196392692022E+00
    0.51463490983122195388E+00
    0.51477015846178597602E+00
    0.51453106597109921072E+00
    0.51347737803237603060E+00
    0.51064247344142077445E+00
    0.51012249312712820704E+00
    0.51286100344082374836E+00
    0.51321870896842625154E+00
    0.51527305021141767138E+00
    0.51567291291947681131E+00
    0.51680793752534259777E+00
    0.51690554004169164681E+00
    0.51598631282092821682E+00
    0.51605414603219046388E+00
    0.51477015343813237180E+00
    0.51463490503953979172E+00
    0.50267630732711754415E+00
    0.50040927060440532070E+00
    0.49245680478824593873E+00
    0.49245681585360218113E+00
    0.50040926346212089015E+00
    0.50267628461906699311E+00
    0.50821187171449111464E+00
    0.50864788627192103476E+00
    0.51215485437951491221E+00
    0.51215485649374403732E+00
    0.50864788648815595362E+00
    0.50821187031578729520E+00
    0.50497889641682613959E+00
    0.50497889606719015276E+00
    0.51790184549780726719E+00
    0.51796387532069199100E+00
    0.51779536310051510473E+00
    0.51791107990219398260E+00
    0.51808123040773157442E+00
    0.51815119112551311087E+00
    0.51819008315822123745E+00
    0.51819062684717676071E+00
    0.51822281379135581858E+00
    0.51822017719132007496E+00
    0.51815202297040441337E+00
    0.51808632965660339487E+00
    0.51810827114587931774E+00
    0.51813063255918778705E+00
    0.51755333956580584776E+00
    0.51771772580633013128E+00
    0.51749199936398748711E+00
    0.51770241437076247593E+00
    0.51795303678087112331E+00
    0.51807247385923682614E+00
    0.51812141960998359114E+00
    0.51810899197057325161E+00
    0.51815110942104214420E+00
    0.51813804666789375908E+00
    0.51801581401933705084E+00
    0.51787084083967549475E+00
    0.51796211547124282326E+00
    0.51800924469153553087E+00
    0.51537620004928119677E+00
    0.51566531401611814811E+00
    0.51451520897690472545E+00
    0.51518003939977430328E+00
    0.51645111446413272116E+00
    0.51708147084629008106E+00
    0.51758309801988477972E+00
    0.51743031726395460890E+00
    0.51775209148124134995E+00
    0.51763158093348338173E+00
    0.51703622519751135655E+00
    0.51658308672134700679E+00
    0.51667687871068490590E+00
    0.51684757604493070104E+00
    0.51283582871805011294E+00
    0.51376201000995647128E+00
    0.51226224419407706545E+00
    0.51353167183136905205E+00
    0.51539236059602944184E+00
    0.51646274684722659476E+00
    0.51715712862394225269E+00
    0.51681027163742554453E+00
    0.51727390677540452391E+00
    0.51698344969242582270E+00
    0.51591081040021824489E+00
    0.51487800372663317106E+00
    0.51547079017717201133E+00
    0.51583732139336313516E+00
    0.51725880644092703253E+00
    0.51753150419537763405E+00
    0.51729113671890081250E+00
    0.51757379724902152773E+00
    0.51786979961032164610E+00
    0.51802481351697748924E+00
    0.51807561245201605438E+00
    0.51804781042201197838E+00
    0.51809005411001141095E+00
    0.51806302887995991924E+00
    0.51789759670282109472E+00
    0.51767083189412999022E+00
    0.51784966794743525487E+00
    0.51791972627314120103E+00
    0.51710928581371684576E+00
    0.51744819254030827160E+00
    0.51721680440038231286E+00
    0.51753213286404686766E+00
    0.51784006309627927944E+00
    0.51801006530491289226E+00
    0.51805851996180629637E+00
    0.51802074090708849496E+00
    0.51805858106637103777E+00
    0.51802120143379859485E+00
    0.51783534206451931059E+00
    0.51755768848638494806E+00
    0.51779826870820866436E+00
    0.51788098900148660242E+00
    0.51070281449031973420E+00
    0.51233559717119359078E+00
    0.51078632145573932277E+00
    0.51252837443353138625E+00
    0.51471191957209283530E+00
    0.51609369960186424198E+00
    0.51687607190754614184E+00
    0.51634997598219400938E+00
    0.51686884128647581083E+00
    0.51639389229870358289E+00
    0.51494115446392518809E+00
    0.51330050899988444169E+00
    0.51455121794407754354E+00
    0.51509958042406767120E+00
    0.50963269662606192067E+00
    0.51170613018067667710E+00
    0.51024674702183447916E+00
    0.51220774092598697624E+00
    0.51447147796050363144E+00
    0.51598137055193227241E+00
    0.51677258684884752604E+00
    0.51614932580646577520E+00
    0.51666248046430596208E+00
    0.51606914613123222590E+00
    0.51443761674265731099E+00
    0.51241720246051125631E+00
    0.51413673052455921564E+00
    0.51478487809592432534E+00
    0.50448313794975918611E+00
    0.50494130187364916207E+00
    0.49994119547453025332E+00
    0.50205540327979036874E+00
    0.50769749214307935414E+00
    0.51047690372511800305E+00
    0.51329994323712524462E+00
    0.51266720601841619942E+00
    0.51452917513862861387E+00
    0.51400919915159726248E+00
    0.51110167761918290363E+00
    0.50943321612245728858E+00
    0.50916676332026722385E+00
    0.50979780463188895112E+00
    0.49240956533286139862E+00
    0.49527019734850608046E+00
    0.48900613190288000354E+00
    0.49348779071055987044E+00
    0.50162418028452060437E+00
    0.50652879071497414198E+00
    0.51034447287422490813E+00
    0.50865607276697910599E+00
    0.51124836813251106626E+00
    0.50984818568202894262E+00
    0.50467769101217718752E+00
    0.50055443258333320866E+00
    0.50237128543003140013E+00
    0.50388218987787680714E+00
    0.47545600030185414253E+00
    0.47400942125251793735E+00
    0.45982947522362382919E+00
    0.46312121920772758576E+00
    0.47870881036213869253E+00
    0.48573364003031016534E+00
    0.49571645116164070322E+00
    0.49465453505791062705E+00
    0.50157464203698587379E+00
    0.50050071150443919965E+00
    0.49165732892665436893E+00
    0.48846913981485184930E+00
    0.48486350333836081283E+00
    0.48599469627656138870E+00
    0.43753672605360038883E+00
    0.44168595843929953082E+00
    0.42482010924505009264E+00
    0.43395100826607252431E+00
    0.45592814233683115477E+00
    0.46930525598491645844E+00
    0.48233136186939279400E+00
    0.47772136159453515436E+00
    0.48692579806433122780E+00
    0.48309349318928029859E+00
    0.46767401044697459733E+00
    0.45817614050643079571E+00
    0.45981028599317130823E+00
    0.46338528877229989700E+00
    0.48233002967911042802E+00
    0.48808177308828626373E+00
    0.48190750891066280737E+00
    0.48832641926166125979E+00
    0.49775224970698123128E+00
    0.50420049121316579122E+00
    0.50841346755663252566E+00
    0.50569947217691979535E+00
    0.50848814420837651351E+00
    0.50608388525504433009E+00
    0.49917911479685045384E+00
    0.49236544455308817181E+00
    0.49723094618980023807E+00
    0.49959807555028545867E+00
    0.47731456097936320049E+00
    0.48493974542580953191E+00
    0.47933202205776409555E+00
    0.48669154783302337464E+00
    0.49639306226933077593E+00
    0.50349946133935929993E+00
    0.50770998521893451194E+00
    0.50442260881119571625E+00
    0.50709899552765547170E+00
    0.50403306864351615779E+00
    0.49635433976516230015E+00
    0.48781574308740000001E+00
    0.49493728371528389332E+00
    0.49778896316651422005E+00
    0.40616711242422209871E+00
    0.41791471880181729759E+00
    0.40240138705475969605E+00
    0.41658660432400507201E+00
    0.44152425568531139533E+00
    0.45970834509080155117E+00
    0.47365915590014751047E+00
    0.46532133532715957980E+00
    0.47467819668008587319E+00
    0.46742537910902826059E+00
    0.44727870306375577814E+00
    0.43034288574589124599E+00
    0.44101737168296867297E+00
    0.44714604261123924722E+00
    0.39073847279689422063E+00
    0.40762088643290439460E+00
    0.39432705999880762748E+00
    0.41111831007998916876E+00
    0.43648257797438522188E+00
    0.45683492574785461438E+00
    0.47051875544429216935E+00
    0.45999559967718905984E+00
    0.46856971403656072495E+00
    0.45896508627968640726E+00
    0.43689918119263887464E+00
    0.41502398345608376706E+00
    0.43269584153699208739E+00
    0.44033356573417509194E+00
    0.51815117060227311452E+00
    0.51808120149517411512E+00
    0.51791104412825883507E+00
    0.51779534794563630840E+00
    0.51796384671482231798E+00
    0.51790180523195339379E+00
    0.51808630308962999589E+00
    0.51815198988551680603E+00
    0.51822013826693447136E+00
    0.51822278445180514073E+00
    0.51819059960946034504E+00
    0.51819005591612099515E+00
    0.51813060433430713214E+00
    0.51810824408464695168E+00
    0.51708146892939943484E+00
    0.51645110309365471757E+00
    0.51518001595533480241E+00
    0.51451520776214332287E+00
    0.51566529816945805287E+00
    0.51537617655531564598E+00
    0.51658307859173369092E+00
    0.51703621109198660832E+00
    0.51763155737880317542E+00
    0.51775207404397571853E+00
    0.51743029704095377941E+00
    0.51758307381024504235E+00
    0.51684755995237796622E+00
    0.51667686458307571229E+00
    0.51807245431595894125E+00
    0.51795300876753025410E+00
    0.51770237911499672467E+00
    0.51749198564158294111E+00
    0.51771769783597387793E+00
    0.51755329992503773529E+00
    0.51787081623882724735E+00
    0.51801578236399570265E+00
    0.51813800870566784074E+00
    0.51815108092304562604E+00
    0.51810896559662900085E+00
    0.51812139326707773446E+00
    0.51800921751033157658E+00
    0.51796208954528322188E+00
    0.51646274752783249973E+00
    0.51539234913013776129E+00
    0.51353164712961618665E+00
    0.51226224258480490548E+00
    0.51376199521519338997E+00
    0.51283580679980267369E+00
    0.51487799177610915624E+00
    0.51591079437461306867E+00
    0.51698342796632346108E+00
    0.51727389021959035986E+00
    0.51681025210125941527E+00
    0.51715710687021432257E+00
    0.51583730453947373995E+00
    0.51547077504768257228E+00
    0.51047692084662654732E+00
    0.50769749101367245281E+00
    0.50205538362190260671E+00
    0.49994119648150425750E+00
    0.50494128892725853586E+00
    0.50448311711404336677E+00
    0.50943320865087127203E+00
    0.51110167122991378985E+00
    0.51400919461548921774E+00
    0.51452917543185638927E+00
    0.51266720035431201374E+00
    0.51329993577325794263E+00
    0.50979779715377915306E+00
    0.50916675552414980555E+00
    0.48573366286229863187E+00
    0.47870881339402254762E+00
    0.46312120371456105827E+00
    0.45982948046874588810E+00
    0.47400940915693173805E+00
    0.47545597737595524102E+00
    0.48846913636026045857E+00
    0.49165732677649470750E+00
    0.50050071338247048569E+00
    0.50157464652505612257E+00
    0.49465453258085806398E+00
    0.49571644660916747149E+00
    0.48599469157726166157E+00
    0.48486349792797267533E+00
    0.50652880956042567462E+00
    0.50162418124862528934E+00
    0.49348777303282892470E+00
    0.48900613629938594062E+00
    0.49527018971883934872E+00
    0.49240954955009502703E+00
    0.50055442547998563185E+00
    0.50467768680206115395E+00
    0.50984818381712149193E+00
    0.51124837100020947833E+00
    0.50865606907332361342E+00
    0.51034446583479309290E+00
    0.50388218505580839590E+00
    0.50237128087140403565E+00
    0.46930528193914661239E+00
    0.45592814959913913198E+00
    0.43395099613135396099E+00
    0.42482011861640311956E+00
    0.44168595643476288304E+00
    0.43753671694214157917E+00
    0.45817613812307150800E+00
    0.46767401204241465518E+00
    0.48309349798893014283E+00
    0.48692580754661984876E+00
    0.47772136421408006868E+00
    0.48233136097304363243E+00
    0.46338528994139305262E+00
    0.45981028721837585715E+00
    0.51802479406319756894E+00
    0.51786977225831232197E+00
    0.51757376193174298162E+00
    0.51729112270435584353E+00
    0.51753147674551580604E+00
    0.51725876876966081497E+00
    0.51767080830754008680E+00
    0.51789756630096395185E+00
    0.51806299195296923177E+00
    0.51809002645040014290E+00
    0.51804778454165056889E+00
    0.51807558613316362361E+00
    0.51791969939193782668E+00
    0.51784964238160813288E+00
    0.51609370051361946885E+00
    0.51471190761068941200E+00
    0.51252834830181459580E+00
    0.51078631880718683433E+00
    0.51233558213110574897E+00
    0.51070279295585074841E+00
    0.51330049597724491939E+00
    0.51494113869414903650E+00
    0.51639387322836660665E+00
    0.51686882690776003724E+00
    0.51634995712917441946E+00
    0.51687605020702476200E+00
    0.51509956338227336214E+00
    0.51455120258621656060E+00
    0.51801004584878251880E+00
    0.51784003596459671215E+00
    0.51753209812495726272E+00
    0.51721678959391403918E+00
    0.51744816551430306006E+00
    0.51710924900927168757E+00
    0.51755766474087117057E+00
    0.51783531123141679497E+00
    0.51802116473374981709E+00
    0.51805855373826470434E+00
    0.51802071511278824367E+00
    0.51805849363351930137E+00
    0.51788096206304379265E+00
    0.51779824305983090937E+00
    0.51598136515751669151E+00
    0.51447146164470425322E+00
    0.51220770856657982240E+00
    0.51024673279957455385E+00
    0.51170610957879580916E+00
    0.50963267075188767308E+00
    0.51241718738579034031E+00
    0.51443759969931557308E+00
    0.51606912737214338804E+00
    0.51666246672645832483E+00
    0.51614930590406327138E+00
    0.51677256286335959690E+00
    0.51478485868909251710E+00
    0.51413671257709803175E+00
    0.50420050714487862908E+00
    0.49775224824347397146E+00
    0.48832639670937755261E+00
    0.48190750995747461127E+00
    0.48808176484577514564E+00
    0.48233001501785649490E+00
    0.49236543885221728534E+00
    0.49917911166760420283E+00
    0.50608388512288515759E+00
    0.50848814813876908048E+00
    0.50569946852795311099E+00
    0.50841345936239523695E+00
    0.49959807025495939214E+00
    0.49723094156184088899E+00
    0.45970836260810921114E+00
    0.44152425742468504044E+00
    0.41658658368579032372E+00
    0.40240138952255749549E+00
    0.41791471449821393502E+00
    0.40616710309406350854E+00
    0.43034288546789872809E+00
    0.44727870604398534127E+00
    0.46742538633106894830E+00
    0.47467820748484484961E+00
    0.46532133693188865164E+00
    0.47365915118367440950E+00