# vtk DataFile Version 3.0
LAPLACIEN  2D
ASCII
DATASET UNSTRUCTURED_GRID
 POINTS        1857  float
   3.1250000000000000E-002  0.93750000000000000        0.0000000000000000     
   6.2500000000000000E-002  0.93750000000000000        0.0000000000000000     
   6.2500000000000000E-002  0.96875000000000000        0.0000000000000000     
   1.8749999999999999E-002  0.95625000000000004        0.0000000000000000     
   4.0625000000000001E-002  0.95937499999999998        0.0000000000000000     
   4.3749999999999997E-002  0.98124999999999996        0.0000000000000000     
   2.1874999999999999E-002  0.97812500000000002        0.0000000000000000     
   9.3750000000000000E-002  0.93750000000000000        0.0000000000000000     
  0.12500000000000000       0.93750000000000000        0.0000000000000000     
  0.12500000000000000       0.96875000000000000        0.0000000000000000     
   8.1250000000000003E-002  0.95625000000000004        0.0000000000000000     
  0.10312499999999999       0.95937499999999998        0.0000000000000000     
  0.10625000000000000       0.98124999999999996        0.0000000000000000     
   8.4375000000000006E-002  0.97812500000000002        0.0000000000000000     
   3.1250000000000000E-002  0.87500000000000000        0.0000000000000000     
   6.2500000000000000E-002  0.87500000000000000        0.0000000000000000     
   6.2500000000000000E-002  0.90625000000000000        0.0000000000000000     
   1.8749999999999999E-002  0.89375000000000004        0.0000000000000000     
   4.0625000000000001E-002  0.89687499999999998        0.0000000000000000     
   4.3749999999999997E-002  0.91874999999999996        0.0000000000000000     
   2.1874999999999999E-002  0.91562500000000002        0.0000000000000000     
   9.3750000000000000E-002  0.87500000000000000        0.0000000000000000     
  0.12500000000000000       0.87500000000000000        0.0000000000000000     
  0.12500000000000000       0.90625000000000000        0.0000000000000000     
   8.1250000000000003E-002  0.89375000000000004        0.0000000000000000     
  0.10312499999999999       0.89687499999999998        0.0000000000000000     
  0.10625000000000000       0.91874999999999996        0.0000000000000000     
   8.4375000000000006E-002  0.91562500000000002        0.0000000000000000     
  0.15625000000000000       0.93750000000000000        0.0000000000000000     
  0.18750000000000000       0.93750000000000000        0.0000000000000000     
  0.18750000000000000       0.96875000000000000        0.0000000000000000     
  0.14374999999999999       0.95625000000000004        0.0000000000000000     
  0.16562499999999999       0.95937499999999998        0.0000000000000000     
  0.16875000000000001       0.98124999999999996        0.0000000000000000     
  0.14687500000000001       0.97812500000000002        0.0000000000000000     
  0.21875000000000000       0.93750000000000000        0.0000000000000000     
  0.25000000000000000       0.93750000000000000        0.0000000000000000     
  0.25000000000000000       0.96875000000000000        0.0000000000000000     
  0.20624999999999999       0.95625000000000004        0.0000000000000000     
  0.22812499999999999       0.95937499999999998        0.0000000000000000     
  0.23125000000000001       0.98124999999999996        0.0000000000000000     
  0.20937500000000001       0.97812500000000002        0.0000000000000000     
  0.15625000000000000       0.87500000000000000        0.0000000000000000     
  0.18750000000000000       0.87500000000000000        0.0000000000000000     
  0.18750000000000000       0.90625000000000000        0.0000000000000000     
  0.14374999999999999       0.89375000000000004        0.0000000000000000     
  0.16562499999999999       0.89687499999999998        0.0000000000000000     
  0.16875000000000001       0.91874999999999996        0.0000000000000000     
  0.14687500000000001       0.91562500000000002        0.0000000000000000     
  0.21875000000000000       0.87500000000000000        0.0000000000000000     
  0.25000000000000000       0.87500000000000000        0.0000000000000000     
  0.25000000000000000       0.90625000000000000        0.0000000000000000     
  0.20624999999999999       0.89375000000000004        0.0000000000000000     
  0.22812499999999999       0.89687499999999998        0.0000000000000000     
  0.23125000000000001       0.91874999999999996        0.0000000000000000     
  0.20937500000000001       0.91562500000000002        0.0000000000000000     
   3.1250000000000000E-002  0.81250000000000000        0.0000000000000000     
   6.2500000000000000E-002  0.81250000000000000        0.0000000000000000     
   6.2500000000000000E-002  0.84375000000000000        0.0000000000000000     
   1.8749999999999999E-002  0.83125000000000004        0.0000000000000000     
   4.0625000000000001E-002  0.83437499999999998        0.0000000000000000     
   4.3749999999999997E-002  0.85624999999999996        0.0000000000000000     
   2.1874999999999999E-002  0.85312500000000002        0.0000000000000000     
   9.3750000000000000E-002  0.81250000000000000        0.0000000000000000     
  0.12500000000000000       0.81250000000000000        0.0000000000000000     
  0.12500000000000000       0.84375000000000000        0.0000000000000000     
   8.1250000000000003E-002  0.83125000000000004        0.0000000000000000     
  0.10312499999999999       0.83437499999999998        0.0000000000000000     
  0.10625000000000000       0.85624999999999996        0.0000000000000000     
   8.4375000000000006E-002  0.85312500000000002        0.0000000000000000     
   3.1250000000000000E-002  0.75000000000000000        0.0000000000000000     
   6.2500000000000000E-002  0.75000000000000000        0.0000000000000000     
   6.2500000000000000E-002  0.78125000000000000        0.0000000000000000     
   1.8749999999999999E-002  0.76875000000000004        0.0000000000000000     
   4.0625000000000001E-002  0.77187499999999998        0.0000000000000000     
   4.3749999999999997E-002  0.79374999999999996        0.0000000000000000     
   2.1874999999999999E-002  0.79062500000000002        0.0000000000000000     
   9.3750000000000000E-002  0.75000000000000000        0.0000000000000000     
  0.12500000000000000       0.75000000000000000        0.0000000000000000     
  0.12500000000000000       0.78125000000000000        0.0000000000000000     
   8.1250000000000003E-002  0.76875000000000004        0.0000000000000000     
  0.10312499999999999       0.77187499999999998        0.0000000000000000     
  0.10625000000000000       0.79374999999999996        0.0000000000000000     
   8.4375000000000006E-002  0.79062500000000002        0.0000000000000000     
  0.15625000000000000       0.81250000000000000        0.0000000000000000     
  0.18750000000000000       0.81250000000000000        0.0000000000000000     
  0.18750000000000000       0.84375000000000000        0.0000000000000000     
  0.14374999999999999       0.83125000000000004        0.0000000000000000     
  0.16562499999999999       0.83437499999999998        0.0000000000000000     
  0.16875000000000001       0.85624999999999996        0.0000000000000000     
  0.14687500000000001       0.85312500000000002        0.0000000000000000     
  0.21875000000000000       0.81250000000000000        0.0000000000000000     
  0.25000000000000000       0.81250000000000000        0.0000000000000000     
  0.25000000000000000       0.84375000000000000        0.0000000000000000     
  0.20624999999999999       0.83125000000000004        0.0000000000000000     
  0.22812499999999999       0.83437499999999998        0.0000000000000000     
  0.23125000000000001       0.85624999999999996        0.0000000000000000     
  0.20937500000000001       0.85312500000000002        0.0000000000000000     
  0.15625000000000000       0.75000000000000000        0.0000000000000000     
  0.18750000000000000       0.75000000000000000        0.0000000000000000     
  0.18750000000000000       0.78125000000000000        0.0000000000000000     
  0.14374999999999999       0.76875000000000004        0.0000000000000000     
  0.16562499999999999       0.77187499999999998        0.0000000000000000     
  0.16875000000000001       0.79374999999999996        0.0000000000000000     
  0.14687500000000001       0.79062500000000002        0.0000000000000000     
  0.21875000000000000       0.75000000000000000        0.0000000000000000     
  0.25000000000000000       0.75000000000000000        0.0000000000000000     
  0.25000000000000000       0.78125000000000000        0.0000000000000000     
  0.20624999999999999       0.76875000000000004        0.0000000000000000     
  0.22812499999999999       0.77187499999999998        0.0000000000000000     
  0.23125000000000001       0.79374999999999996        0.0000000000000000     
  0.20937500000000001       0.79062500000000002        0.0000000000000000     
  0.28125000000000000       0.93750000000000000        0.0000000000000000     
  0.31250000000000000       0.93750000000000000        0.0000000000000000     
  0.31250000000000000       0.96875000000000000        0.0000000000000000     
  0.26874999999999999       0.95625000000000004        0.0000000000000000     
  0.29062500000000002       0.95937499999999998        0.0000000000000000     
  0.29375000000000001       0.98124999999999996        0.0000000000000000     
  0.27187499999999998       0.97812500000000002        0.0000000000000000     
  0.34375000000000000       0.93750000000000000        0.0000000000000000     
  0.37500000000000000       0.93750000000000000        0.0000000000000000     
  0.37500000000000000       0.96875000000000000        0.0000000000000000     
  0.33124999999999999       0.95625000000000004        0.0000000000000000     
  0.35312500000000002       0.95937499999999998        0.0000000000000000     
  0.35625000000000001       0.98124999999999996        0.0000000000000000     
[...]
 CELL_DATA        3584
 SCALARS Nutrients float
 LOOKUP_TABLE default
    0.52037128598731674511E+00
    0.52037112972971077962E+00
    0.52036894769462471722E+00
    0.52036896131143095534E+00
    0.52037113657245093190E+00
    0.52037128867593696047E+00
    0.52037223592693282459E+00
    0.52037257464589203870E+00
    0.52037297723423525664E+00
    0.52037298243537932763E+00
    0.52037257662990676899E+00
    0.52037223206636429307E+00
    0.52037213037068330568E+00
    0.52037213186044051216E+00
    0.52035983207289382424E+00
    0.52035758622036099030E+00
    0.52034390862002033451E+00
    0.52034542108998427246E+00
    0.52035816563353531894E+00
    0.52036016381825933586E+00
    0.52036512157205105922E+00
    0.52036712074001467698E+00
    0.52036999891602386814E+00
    0.52037050994736311349E+00
    0.52036786669802004290E+00
    0.52036709424680727132E+00
    0.52036414918898432624E+00
    0.52036413335259279478E+00
    0.52036014424417453839E+00
    0.52035814127912394245E+00
    0.52034539046757921632E+00
    0.52034390536105989966E+00
    0.52035757110803870784E+00
    0.52035981059185865139E+00
    0.52036708761703509563E+00
    0.52036784811395575545E+00
    0.52037048606302782616E+00
    0.52036998074752005561E+00
    0.52036710008930187055E+00
    0.52036509718540069347E+00
    0.52036411289926898238E+00
    0.52036413250863722268E+00
    0.52029184480358070530E+00
    0.52027358163764414467E+00
    0.52019436298383736617E+00
    0.52019437331751638975E+00
    0.52027358110113064438E+00
    0.52029183774778198224E+00
    0.52033245478579814858E+00
    0.52033608712361167914E+00
    0.52035524054183612819E+00
    0.52035524370902075386E+00
    0.52033608667376307633E+00
    0.52033244551209956175E+00
    0.52031200424265089399E+00
    0.52031200492471108010E+00
    0.52030055359681437466E+00
    0.52029718146054182437E+00
    0.52024395007845536387E+00
    0.52025816329818819206E+00
    0.52030799606709321470E+00
    0.52032013579184299701E+00
    0.52033712529163278493E+00
    0.52034315530749952750E+00
    0.52035478340231799965E+00
    0.52035653848174545644E+00
    0.52034297979721422234E+00
    0.52033661088483573742E+00
    0.52032776531057911562E+00
    0.52032935339011721076E+00
    0.52011217609630311376E+00
    0.52012592464338347487E+00
    0.51998724854521360950E+00
    0.52004881869765928748E+00
    0.52018291515736625463E+00
    0.52022682381243690042E+00
    0.52026627888858112403E+00
    0.52027621481605057507E+00
    0.52030704458046750371E+00
    0.52030964700391935107E+00
    0.52026346329594297391E+00
    0.52023202883635555338E+00
    0.52022305352520847865E+00
    0.52023310119050247824E+00
    0.51993962439253982311E+00
    0.51989474144869485261E+00
    0.51958511850681043942E+00
    0.51963363004736029538E+00
    0.51994497519307891764E+00
    0.52004454865919880202E+00
    0.52019519700845162635E+00
    0.52019515020065820732E+00
    0.52027657101036128839E+00
    0.52027057544276145151E+00
    0.52017356148140658778E+00
    0.52014009438226005422E+00
    0.52007362167299098221E+00
    0.52008396489863106815E+00
    0.51880594963415405108E+00
    0.51880739920099705476E+00
    0.51800242297787135737E+00
    0.51827338016371538032E+00
    0.51911474008833935478E+00
    0.51946175065655719738E+00
    0.51984438271494481931E+00
    0.51979568213523386078E+00
    0.52002647699005155602E+00
    0.51998229238045801104E+00
    0.51964788888714141812E+00
    0.51947077757858328706E+00
    0.51937842702108438786E+00
    0.51944428995134639404E+00
    0.52032010892839353211E+00
    0.52030796133001144810E+00
    0.52025812118894732006E+00
    0.52024393047673767043E+00
    0.52029714993347642160E+00
    0.52030051373549957017E+00
    0.52033658725567910608E+00
    0.52034294615547749263E+00
    0.52035649946770934360E+00
    0.52035475201578684779E+00
    0.52034312344125088767E+00
    0.52033709225622160055E+00
    0.52032932064169568065E+00
    0.52032773485548888814E+00
    0.52004454262298094314E+00
    0.51994496402038747895E+00
    0.51963361173719169184E+00
    0.51958512290468839012E+00
    0.51989473334567504192E+00
    0.51993960732316579776E+00
    0.52014009363200985891E+00
    0.52017355259642861220E+00
    0.52027055803162225445E+00
    0.52027655573389075538E+00
    0.52019513101814685019E+00
    0.52019516982637969971E+00
    0.52008395177841504342E+00
    0.52007361229565696181E+00
    0.52022679688699935419E+00
    0.52018288008539126377E+00
    0.52004877680462979761E+00
    0.51998722726408641570E+00
    0.52012589000733444600E+00
    0.52011213070453565788E+00
    0.52023199694937971582E+00
    0.52026342434786621016E+00
    0.52030960226728717455E+00
    0.52030700925541040203E+00
    0.52027618153433541348E+00
    0.52026624521736197782E+00
    0.52023306699923343999E+00
    0.52022302052546964823E+00
    0.51946174455302707162E+00
    0.51911472674697112240E+00
    0.51827335544985864146E+00
    0.51800242138283458804E+00
    0.51880738356478472983E+00
    0.51880592502406031041E+00
    0.51947077001211106051E+00
    0.51964787468005202431E+00
    0.51998226567637162443E+00
    0.52002645536562863704E+00
    0.51979565851808706700E+00
    0.51984435315127941468E+00
    0.51944427253686742407E+00
    0.51937841243315474582E+00
    0.51861068480485150722E+00
    0.51830017019731811079E+00
    0.51708390770813339454E+00
    0.51708391930881125731E+00
    0.51830016705331827254E+00
    0.51861067058411691733E+00
    0.51935187309315722359E+00
    0.51941530478618291866E+00
    0.51982712428548538686E+00
    0.51982712835994460132E+00
    0.51941530279475267573E+00
    0.51935186782939368744E+00
    0.51894980496830522831E+00
    0.51894980564912640553E+00
    0.51394272561642329045E+00
    0.51352584977937432154E+00
    0.51039134357035431666E+00
    0.51095653624693015971E+00
    0.51422671840288991518E+00
    0.51544917933730816095E+00
    0.51731306536989907219E+00
    0.51724035284963376657E+00
    0.51839875433263216120E+00
    0.51827661968972504880E+00
    0.51686254595632363795E+00
    0.51637718854805070290E+00
    0.51560343438465561228E+00
    0.51576068504820993255E+00
    0.51544919422040147428E+00
    0.51422671629255578551E+00
    0.51095651540958775261E+00
    0.51039134566441379803E+00
    0.51352583690090780610E+00
    0.51394270315400669702E+00
    0.51637718483037053918E+00
    0.51686253998338793636E+00
    0.51827661255649926098E+00
    0.51839875218466824336E+00
    0.51724034555270925750E+00
    0.51731305683261386008E+00
    0.51576067721582985470E+00
    0.51560342670322323322E+00
    0.50226200630409145731E+00
    0.49988798952268181930E+00
    0.49154709801702545224E+00
    0.49154710919035149441E+00
    0.49988798201541750910E+00
    0.50226198318041503921E+00
    0.50828422787678029238E+00
    0.50878687627908980584E+00
    0.51271766165633159140E+00
    0.51271766281369179907E+00
    0.50878687592358518010E+00
    0.50828422528977168504E+00
    0.50477631662259825340E+00
    0.50477631627340380227E+00
    0.51972362959778839464E+00
    0.51980976280246848908E+00
    0.51956082643231427109E+00
    0.51972320688478901296E+00
    0.51998038903374232955E+00
    0.52008525510143743809E+00
    0.52014958431918234538E+00
    0.52015432435982789094E+00
    0.52020949277434647140E+00
    0.52020738416020773087E+00
    0.52009790218478968438E+00
    0.51999895793102557384E+00
    0.52002693283482481768E+00
    0.52005967232741856510E+00
    0.51920574991260526332E+00
    0.51943096448584913372E+00
    0.51910442688461477800E+00
    0.51939640950416088305E+00
    0.51976816189956664971E+00
    0.51994603622847834767E+00
    0.52002480879629664479E+00
    0.52000989509344386352E+00
    0.52007972321629480916E+00
    0.52006230399446473633E+00
    0.51987364299310967475E+00
    0.51966200550730801133E+00
    0.51978846973625636441E+00
    0.51985676262877300591E+00
    0.51644711737343762525E+00
    0.51678636267240074531E+00
    0.51535929961597826132E+00
    0.51614853223220436007E+00
    0.51776152057875257650E+00
    0.51857439820328921076E+00
    0.51926395089122545645E+00
    0.51906181587165678426E+00
    0.51951006000445898447E+00
    0.51934567509217799408E+00
    0.51854363313224549614E+00
    0.51796133060396265524E+00
    0.51806610370186068071E+00
    0.51828285471256863026E+00
    0.51329622953922471318E+00
    0.51436575069512002756E+00
    0.51253550798300384628E+00
    0.51402268145959040258E+00
    0.51634507928690520639E+00
    0.51770579109695402664E+00
    0.51864481976569409838E+00
    0.51819172568332327877E+00
    0.51882069633066929537E+00
    0.51843789723672051295E+00
    0.51704516558278923455E+00
    0.51576784306567713401E+00
    0.51646993664979778949E+00
    0.51692420436165598119E+00
    0.51876225982498314071E+00
    0.51913808819043205656E+00
    0.51879193046976812553E+00
    0.51918716493326499961E+00
    0.51962548458000767937E+00
    0.51985849143958173801E+00
    0.51993892899744287295E+00
    0.51989918392251111001E+00
    0.51996797072274758555E+00
    0.51992905165884739649E+00
    0.51967708843435289623E+00
    0.51934757716187451848E+00
    0.51960124266696894324E+00
    0.51970353586411000002E+00
    0.51852515936644405503E+00
    0.51899984325758663495E+00
    0.51866936845162314729E+00
    0.51911545904785560968E+00
    0.51957151393459988231E+00
    0.51982992649876358371E+00
    0.51990509286287711621E+00
    0.51984753105439240883E+00
    0.51990757575880863772E+00
    0.51985143086720664307E+00
    0.51956859656898735089E+00
    0.51916150137390093544E+00
    0.51951102168716500884E+00
    0.51963356382348169227E+00
    0.51060935110221794542E+00
    0.51250640129551161550E+00
    0.51061589680584495987E+00
    0.51267320609701982903E+00
    0.51539962937456285097E+00
    0.51716550457367393978E+00
    0.51822211102310655750E+00
    0.51752935408850764265E+00
    0.51822916522157080887E+00
    0.51760647953076799332E+00
    0.51573871388452818820E+00
    0.51372507498910713331E+00
    0.51522474703586285116E+00
    0.51590538530792595662E+00
    0.50918350128194955762E+00
    0.51163657725416478161E+00
    0.50986870676929285651E+00
    0.51221475409883499008E+00
    0.51504439729684370342E+00
    0.51699126202420631060E+00
    0.51805708614431600356E+00
    0.51722342281586763946E+00
    0.51791195755827812430E+00
    0.51712615643559267653E+00
    0.51502458356442504250E+00
    0.51252417783648862581E+00
    0.51463033607474639730E+00
    0.51544457026597567673E+00
    0.50414548315168195014E+00
    0.50458912778235120999E+00
    0.49914672477408439377E+00
    0.50133962205398152623E+00
    0.50754762125810048978E+00
    0.51061915604654639633E+00
    0.51392009571299157589E+00
    0.51321601365785174398E+00
    0.51542313079382806595E+00
    0.51481977415714919033E+00
    0.51145602841902881863E+00
    0.50959578685183770652E+00
    0.50924122744710897948E+00
    0.50993123606321277830E+00
    0.49101149363493962197E+00
    0.49387674927443758754E+00
    0.48714169599398021715E+00
    0.49173816880535203833E+00
    0.50055952348979915190E+00
    0.50590621469610652650E+00
    0.51030524011351274805E+00
    0.50844019562150144509E+00
    0.51144229107881500340E+00
    0.50987427916077787682E+00
    0.50410234480895887987E+00
    0.49968630548494602506E+00
    0.50149615260854951693E+00
    0.50310973667454716995E+00
    0.47425282651971911729E+00
    0.47274733421354886431E+00
    0.45855250943458703006E+00
    0.46168320531039175325E+00
    0.47731949902991666068E+00
    0.48430903415101178577E+00
    0.49471694560779716499E+00
    0.49371466649861073250E+00
    0.50103030235722711971E+00
    0.49992588176872626571E+00
    0.49070377407593113173E+00
    0.48745126291950541253E+00
    0.48368438467954427695E+00
    0.48479920852592328639E+00
    0.43635701548101035741E+00
    0.44007279907744545344E+00
    0.42330661449461470802E+00
    0.43191101450282159968E+00
    0.45368708871636492796E+00
    0.46682306294266356916E+00
    0.48025956995616125855E+00
    0.47577731970831110830E+00
    0.48533286321577939759E+00
    0.48152222452198073510E+00
    0.46596139157798233121E+00
    0.45669918880568632913E+00
    0.45790688131978873887E+00
    0.46135573255931316972E+00
    0.47984525167505570620E+00
    0.48568821982384802194E+00
    0.47902511343842490987E+00
    0.48568033585896014381E+00
    0.49591643447053607163E+00
    0.50299563521645973552E+00
    0.50785279061676802392E+00
    0.50482013337560460720E+00
    0.50804134762298436279E+00
    0.50535973791120059051E+00
    0.49771571300518085978E+00
    0.49046792416108880852E+00
    0.49548253722870522209E+00
    0.49801993344363176819E+00
    0.47394555063476229151E+00
    0.48187752856883192543E+00
    0.47587806265974541553E+00
    0.48363202528469023678E+00
    0.49417662256080757688E+00
    0.50206299307245538799E+00
    0.50690120314694697701E+00
    0.50315660012171514737E+00
    0.50623140209104811049E+00
    0.50276915030883950752E+00
    0.49424666490753932369E+00
    0.48507055577639396349E+00
    0.49262783336364612818E+00
    0.49573045171161794764E+00
    0.40439582774872828708E+00
    0.41531857234684937952E+00
    0.39977060216718268704E+00
    0.41331696770440035094E+00
    0.43808111218257295150E+00
    0.45609060980258364637E+00
    0.47050049366997453992E+00
    0.46223442409312703871E+00
    0.47196852068285555237E+00
    0.46476556585344452888E+00
    0.44456246945663330239E+00
    0.42815915940847687482E+00
    0.43801342899077577719E+00
    0.44396408718771185331E+00
    0.38770191576160212277E+00
    0.40389769873852637838E+00
    0.39071466287622197422E+00
    0.40706546312095653883E+00
    0.43224481106095213878E+00
    0.45266328726944421446E+00
    0.46672447561769925262E+00
    0.45602909367331506685E+00
    0.46489356599889114507E+00
    0.45520465444638097408E+00
    0.43302190704062504256E+00
    0.41158604171741591804E+00
    0.42862555843038036008E+00
    0.43617715417874103334E+00
    0.52008522947963120586E+00
    0.51998035508779461011E+00
    0.51972316604472179602E+00
    0.51956080817668870431E+00
    0.51980972969251604265E+00
    0.51972358452624356495E+00
    0.51999892731340968677E+00
    0.52009786443657535226E+00
    0.52020733978657618390E+00
    0.52020945796595474686E+00
    0.52015429190665152248E+00
    0.52014955181262023665E+00
    0.52005963927918508194E+00
    0.52002690115766347922E+00
    0.51857439582689468516E+00
    0.51776150587476232889E+00
    0.51614850403379741728E+00
    0.51535929422157011892E+00
    0.51678634304743920058E+00
    0.51644709086324758207E+00
    0.51796131634318109960E+00
    0.51854361363767120796E+00
    0.51934564863776810917E+00
    0.51951003824024266642E+00
    0.51906179209919234285E+00
    0.51926392515290609175E+00
    0.51828283411309383766E+00
    0.51806608465328363167E+00
    0.51994601106928794998E+00
    0.51976812816098805214E+00
    0.51939636709160486028E+00
    0.51910440744224062293E+00
    0.51943093085020730637E+00
    0.51920570693679879426E+00
    0.51966197617894982486E+00
    0.51987360681095473591E+00
    0.52006226097018748433E+00
    0.52007968949327676444E+00
    0.52000986312016439506E+00
    0.52002477692172688339E+00
    0.51985672953342754177E+00
    0.51978843808827002171E+00
    0.51770579102458202936E+00
    0.51634506557143899919E+00
    0.51402265346124209611E+00
    0.51253550364919520099E+00
    0.51436573300738364090E+00
    0.51329620520961616315E+00
    0.51576782677178267811E+00
    0.51704514678502233593E+00
    0.51843787494775439573E+00
    0.51882067774301532381E+00
    0.51819170341655851342E+00
    0.51864479436016397429E+00
    0.51692418463725786637E+00
    0.51646991851084500524E+00
    0.51061917224486852440E+00
    0.50754761847052554113E+00
    0.50133960037211167116E+00
    0.49914672382419134067E+00
    0.50458911246519022598E+00
    0.50414546045188868284E+00
    0.50959577651351872785E+00
    0.51145602007030632752E+00
    0.51481976885092306517E+00
    0.51542312922607247394E+00
    0.51321600564932279287E+00
    0.51392008513645803802E+00
    0.50993122636001353420E+00
    0.50924121734465199740E+00
    0.48430905700178439321E+00
    0.47731950171810366701E+00
    0.46168318938470215285E+00
    0.45855251401108687581E+00
    0.47274732120745699415E+00
    0.47425280292866595078E+00
    0.48745125912083719921E+00
    0.49070377173331153342E+00
    0.49992588389154568596E+00
    0.50103030599542852652E+00
    0.49371466308702904868E+00
    0.49471693971397567857E+00
    0.48479920311183899440E+00
    0.48368437856459933766E+00
    0.50590623310853999328E+00
    0.50055952380983959049E+00
    0.49173815009163818202E+00
    0.48714169968585535608E+00
    0.49387674088190697264E+00
    0.49101147728630090139E+00
    0.49968629676664488848E+00
    0.50410233972529761015E+00
    0.50987427672513874199E+00
    0.51144229268916407971E+00
    0.50844019076768742771E+00
    0.51030523121543158727E+00
    0.50310973102488598663E+00
    0.50149614723456203969E+00
    0.46682308903135405487E+00
    0.45368709628660081057E+00
    0.43191100233187024182E+00
    0.42330662356144210801E+00
    0.44007279721824232865E+00
    0.43635700666566507033E+00
    0.45669918628535860483E+00
    0.46596139349754406300E+00
    0.48152222964014312900E+00
    0.48533287273141367812E+00
    0.47577732248934978543E+00
    0.48025956874337061286E+00
    0.46135573409233116005E+00
    0.45790688290010578276E+00
    0.51985846822456616145E+00
    0.51962545164275064646E+00
    0.51918712245502496305E+00
    0.51879191127432378039E+00
    0.51913805593659290150E+00
    0.51876221893609597569E+00
    0.51934754631628143873E+00
    0.51967705074486780781E+00
    0.51992900877245862290E+00
    0.51996793767636173556E+00
    0.51989915320567192669E+00
    0.51993889990707276016E+00
    0.51970350298984246962E+00
    0.51960121086235000476E+00
    0.51716550411749739879E+00
    0.51539961475507101163E+00
    0.51267317551359248284E+00
    0.51061589049874112067E+00
    0.51250638324136710278E+00
    0.51060932735005026828E+00
    0.51372505880399255140E+00
    0.51573869606452704684E+00
    0.51760645999139187623E+00
    0.51822914930733132710E+00
    0.51752933294436620493E+00
    0.51822208586381757200E+00
    0.51590536567499312159E+00
    0.51522472903702953850E+00
    0.51982990271006490612E+00
    0.51957148201330327630E+00
    0.51911541890690049428E+00
    0.51866934798300901033E+00
    0.51899981071336420690E+00
    0.51852511825240277243E+00
    0.51916147020215031027E+00
    0.51956855871720242224E+00
    0.51985138902224126145E+00
    0.51990754310173525887E+00
    0.51984750015149250313E+00
    0.51990506370017952609E+00
    0.51963353107804366449E+00
    0.51951098976149989728E+00
    0.51699124841830212951E+00
    0.51504437242527922880E+00
    0.51221471017438002793E+00
    0.50986868100556559380E+00
    0.51163654864009944223E+00
    0.50918346936148395354E+00
    0.51252415774200310583E+00
    0.51502456245108474420E+00
    0.51712613611991076201E+00
    0.51791194095453263468E+00
    0.51722339820172058555E+00
    0.51805705621656950033E+00
    0.51544454457551602822E+00
    0.51463031199306941144E+00
    0.50299564796924878252E+00
    0.49591643017523912018E+00
    0.48568030913790904979E+00
    0.47902511126401364772E+00
    0.48568820958386960118E+00
    0.47984523596900863218E+00
    0.49046791735578071370E+00
    0.49771570893525107770E+00
    0.50535973730883232413E+00
    0.50804135020801788336E+00
    0.50482012779440366135E+00
    0.50785277928787309065E+00
    0.49801992623790913850E+00
    0.49548253094301325516E+00
    0.45609062316846316065E+00
    0.43808111113953907001E+00
    0.41331694345035840943E+00
    0.39977060112674384085E+00
    0.41531856616544393646E+00
    0.40439581726365420034E+00
    0.42815915883571553646E+00
    0.44456247210993615759E+00
    0.46476557304531879167E+00
    0.47196853080318340590E+00
    0.46223442415544224726E+00
    0.47050048591180804181E+00