# vtk DataFile Version 3.0
LAPLACIEN  2D
ASCII
DATASET UNSTRUCTURED_GRID
 POINTS        1857  float
   3.1250000000000000E-002  0.93750000000000000        0.0000000000000000     
   6.2500000000000000E-002  0.93750000000000000        0.0000000000000000     
   6.2500000000000000E-002  0.96875000000000000        0.0000000000000000     
   1.8749999999999999E-002  0.95625000000000004        0.0000000000000000     
   4.0625000000000001E-002  0.95937499999999998        0.0000000000000000     
   4.3749999999999997E-002  0.98124999999999996        0.0000000000000000     
   2.1874999999999999E-002  0.97812500000000002        0.0000000000000000     
   9.3750000000000000E-002  0.93750000000000000        0.0000000000000000     
  0.12500000000000000       0.93750000000000000        0.0000000000000000     
  0.12500000000000000       0.96875000000000000        0.0000000000000000     
   8.1250000000000003E-002  0.95625000000000004        0.0000000000000000     
  0.10312499999999999       0.95937499999999998        0.0000000000000000     
  0.10625000000000000       0.98124999999999996        0.0000000000000000     
   8.4375000000000006E-002  0.97812500000000002        0.0000000000000000     
   3.1250000000000000E-002  0.87500000000000000        0.0000000000000000     
   6.2500000000000000E-002  0.87500000000000000        0.0000000000000000     
   6.2500000000000000E-002  0.90625000000000000        0.0000000000000000     
   1.8749999999999999E-002  0.89375000000000004        0.0000000000000000     
   4.0625000000000001E-002  0.89687499999999998        0.0000000000000000     
   4.3749999999999997E-002  0.91874999999999996        0.0000000000000000     
   2.1874999999999999E-002  0.91562500000000002        0.0000000000000000     
   9.3750000000000000E-002  0.87500000000000000        0.0000000000000000     
  0.12500000000000000       0.87500000000000000        0.0000000000000000     
  0.12500000000000000       0.90625000000000000        0.0000000000000000     
   8.1250000000000003E-002  0.89375000000000004        0.0000000000000000     
  0.10312499999999999       0.89687499999999998        0.0000000000000000     
  0.10625000000000000       0.91874999999999996        0.0000000000000000     
   8.4375000000000006E-002  0.91562500000000002        0.0000000000000000     
  0.15625000000000000       0.93750000000000000        0.0000000000000000     
  0.18750000000000000       0.93750000000000000        0.0000000000000000     
  0.18750000000000000       0.96875000000000000        0.0000000000000000     
  0.14374999999999999       0.95625000000000004        0.0000000000000000     
  0.16562499999999999       0.95937499999999998        0.0000000000000000     
  0.16875000000000001       0.98124999999999996        0.0000000000000000     
  0.14687500000000001       0.97812500000000002        0.0000000000000000     
  0.21875000000000000       0.93750000000000000        0.0000000000000000     
  0.25000000000000000       0.93750000000000000        0.0000000000000000     
  0.25000000000000000       0.96875000000000000        0.0000000000000000     
  0.20624999999999999       0.95625000000000004        0.0000000000000000     
  0.22812499999999999       0.95937499999999998        0.0000000000000000     
  0.23125000000000001       0.98124999999999996        0.0000000000000000     
  0.20937500000000001       0.97812500000000002        0.0000000000000000     
  0.15625000000000000       0.87500000000000000        0.0000000000000000     
  0.18750000000000000       0.87500000000000000        0.0000000000000000     
  0.18750000000000000       0.90625000000000000        0.0000000000000000     
  0.14374999999999999       0.89375000000000004        0.0000000000000000     
  0.16562499999999999       0.89687499999999998        0.0000000000000000     
  0.16875000000000001       0.91874999999999996        0.0000000000000000     
  0.14687500000000001       0.91562500000000002        0.0000000000000000     
  0.21875000000000000       0.87500000000000000        0.0000000000000000     
  0.25000000000000000       0.87500000000000000        0.0000000000000000     
  0.25000000000000000       0.90625000000000000        0.0000000000000000     
  0.20624999999999999       0.89375000000000004        0.0000000000000000     
  0.22812499999999999       0.89687499999999998        0.0000000000000000     
  0.23125000000000001       0.91874999999999996        0.0000000000000000     
  0.20937500000000001       0.91562500000000002        0.0000000000000000     
   3.1250000000000000E-002  0.81250000000000000        0.0000000000000000     
   6.2500000000000000E-002  0.81250000000000000        0.0000000000000000     
   6.2500000000000000E-002  0.84375000000000000        0.0000000000000000     
   1.8749999999999999E-002  0.83125000000000004        0.0000000000000000     
   4.0625000000000001E-002  0.83437499999999998        0.0000000000000000     
   4.3749999999999997E-002  0.85624999999999996        0.0000000000000000     
   2.1874999999999999E-002  0.85312500000000002        0.0000000000000000     
   9.3750000000000000E-002  0.81250000000000000        0.0000000000000000     
  0.12500000000000000       0.81250000000000000        0.0000000000000000     
  0.12500000000000000       0.84375000000000000        0.0000000000000000     
   8.1250000000000003E-002  0.83125000000000004        0.0000000000000000     
  0.10312499999999999       0.83437499999999998        0.0000000000000000     
  0.10625000000000000       0.85624999999999996        0.0000000000000000     
   8.4375000000000006E-002  0.85312500000000002        0.0000000000000000     
   3.1250000000000000E-002  0.75000000000000000        0.0000000000000000     
   6.2500000000000000E-002  0.75000000000000000        0.0000000000000000     
   6.2500000000000000E-002  0.78125000000000000        0.0000000000000000     
   1.8749999999999999E-002  0.76875000000000004        0.0000000000000000     
   4.0625000000000001E-002  0.77187499999999998        0.0000000000000000     
   4.3749999999999997E-002  0.79374999999999996        0.0000000000000000     
   2.1874999999999999E-002  0.79062500000000002        0.0000000000000000     
   9.3750000000000000E-002  0.75000000000000000        0.0000000000000000     
  0.12500000000000000       0.75000000000000000        0.0000000000000000     
  0.12500000000000000       0.78125000000000000        0.0000000000000000     
   8.1250000000000003E-002  0.76875000000000004        0.0000000000000000     
  0.10312499999999999       0.77187499999999998        0.0000000000000000     
  0.10625000000000000       0.79374999999999996        0.0000000000000000     
   8.4375000000000006E-002  0.79062500000000002        0.0000000000000000     
  0.15625000000000000       0.81250000000000000        0.0000000000000000     
  0.18750000000000000       0.81250000000000000        0.0000000000000000     
  0.18750000000000000       0.84375000000000000        0.0000000000000000     
  0.14374999999999999       0.83125000000000004        0.0000000000000000     
  0.16562499999999999       0.83437499999999998        0.0000000000000000     
  0.16875000000000001       0.85624999999999996        0.0000000000000000     
  0.14687500000000001       0.85312500000000002        0.0000000000000000     
  0.21875000000000000       0.81250000000000000        0.0000000000000000     
  0.25000000000000000       0.81250000000000000        0.0000000000000000     
  0.25000000000000000       0.84375000000000000        0.0000000000000000     
  0.20624999999999999       0.83125000000000004        0.0000000000000000     
  0.22812499999999999       0.83437499999999998        0.0000000000000000     
  0.23125000000000001       0.85624999999999996        0.0000000000000000     
  0.20937500000000001       0.85312500000000002        0.0000000000000000     
  0.15625000000000000       0.75000000000000000        0.0000000000000000     
  0.18750000000000000       0.75000000000000000        0.0000000000000000     
  0.18750000000000000       0.78125000000000000        0.0000000000000000     
  0.14374999999999999       0.76875000000000004        0.0000000000000000     
  0.16562499999999999       0.77187499999999998        0.0000000000000000     
  0.16875000000000001       0.79374999999999996        0.0000000000000000     
  0.14687500000000001       0.79062500000000002        0.0000000000000000     
  0.21875000000000000       0.75000000000000000        0.0000000000000000     
  0.25000000000000000       0.75000000000000000        0.0000000000000000     
  0.25000000000000000       0.78125000000000000        0.0000000000000000     
  0.20624999999999999       0.76875000000000004        0.0000000000000000     
  0.22812499999999999       0.77187499999999998        0.0000000000000000     
  0.23125000000000001       0.79374999999999996        0.0000000000000000     
  0.20937500000000001       0.79062500000000002        0.0000000000000000     
  0.28125000000000000       0.93750000000000000        0.0000000000000000     
  0.31250000000000000       0.93750000000000000        0.0000000000000000     
  0.31250000000000000       0.96875000000000000        0.0000000000000000     
  0.26874999999999999       0.95625000000000004        0.0000000000000000     
  0.29062500000000002       0.95937499999999998        0.0000000000000000     
  0.29375000000000001       0.98124999999999996        0.0000000000000000     
  0.27187499999999998       0.97812500000000002        0.0000000000000000     
  0.34375000000000000       0.93750000000000000        0.0000000000000000     
  0.37500000000000000       0.93750000000000000        0.0000000000000000     
  0.37500000000000000       0.96875000000000000        0.0000000000000000     
  0.33124999999999999       0.95625000000000004        0.0000000000000000     
  0.35312500000000002       0.95937499999999998        0.0000000000000000     
  0.35625000000000001       0.98124999999999996        0.0000000000000000     
[...]
 CELL_DATA        3584
 SCALARS Nutrients float
 LOOKUP_TABLE default
    0.51014638384182753317E+00
    0.51014645943165304320E+00
    0.51014650441391740099E+00
    0.51014651609949202005E+00
    0.51014646264289009725E+00
    0.51014637861713318934E+00
    0.51014637205355739535E+00
    0.51014635400767249784E+00
    0.51014631379531394373E+00
    0.51014631934243548361E+00
    0.51014635694912224828E+00
    0.51014637223951564415E+00
    0.51014641796416193564E+00
    0.51014641889654799289E+00
    0.51014658679267410601E+00
    0.51014657902421367552E+00
    0.51014654394015646055E+00
    0.51014653429724909905E+00
    0.51014651387407083938E+00
    0.51014641649425940262E+00
    0.51014642412830824014E+00
    0.51014642347110128462E+00
    0.51014640911750730456E+00
    0.51014639715354137550E+00
    0.51014650430609365106E+00
    0.51014652863960030515E+00
    0.51014651754172912757E+00
    0.51014650104240688577E+00
    0.51014641736325072596E+00
    0.51014650537240380235E+00
    0.51014651654236786715E+00
    0.51014654741589338105E+00
    0.51014657043805178294E+00
    0.51014656775778122189E+00
    0.51014652644384095304E+00
    0.51014649459260963393E+00
    0.51014638252623045744E+00
    0.51014640295903568301E+00
    0.51014641738108579272E+00
    0.51014641774768920701E+00
    0.51014649362937458665E+00
    0.51014651174096437014E+00
    0.51014625566492488584E+00
    0.51014608042736409033E+00
    0.51014502973357178650E+00
    0.51014503900087404542E+00
    0.51014607826486768616E+00
    0.51014624371032279981E+00
    0.51014651230889207500E+00
    0.51014655913832829270E+00
    0.51014658874406138001E+00
    0.51014659309295684597E+00
    0.51014655849160961409E+00
    0.51014650597271338217E+00
    0.51014641898442736334E+00
    0.51014641963366524902E+00
    0.51014631155930956208E+00
    0.51014627636847587056E+00
    0.51014574759789943492E+00
    0.51014594518359424047E+00
    0.51014631088006689996E+00
    0.51014631122159848076E+00
    0.51014638530227451874E+00
    0.51014639919256188350E+00
    0.51014642277025279427E+00
    0.51014641962266404907E+00
    0.51014648232249593107E+00
    0.51014648920767124984E+00
    0.51014642005106280997E+00
    0.51014641604896515670E+00
    0.51014373803340651303E+00
    0.51014413756421572721E+00
    0.51014120404787421936E+00
    0.51014301256124350292E+00
    0.51014519513238620885E+00
    0.51014578833281609693E+00
    0.51014611559895317594E+00
    0.51014611608303106483E+00
    0.51014628983368248694E+00
    0.51014626957643893768E+00
    0.51014599498859736215E+00
    0.51014561339103658977E+00
    0.51014559937303061155E+00
    0.51014576033075875738E+00
    0.51013864643210238281E+00
    0.51013705658712171775E+00
    0.51012419885504567407E+00
    0.51012719458822808338E+00
    0.51013889192410721840E+00
    0.51014201809585613123E+00
    0.51014501096299813554E+00
    0.51014500439997700898E+00
    0.51014608840395425648E+00
    0.51014603027718086192E+00
    0.51014461621598672370E+00
    0.51014389873431764677E+00
    0.51014250592996579492E+00
    0.51014280924136556905E+00
    0.51007227238204266850E+00
    0.51007417968623902649E+00
    0.51000016933732361668E+00
    0.51003476359031862941E+00
    0.51009918277772814399E+00
    0.51012143799729603444E+00
    0.51013664749502696250E+00
    0.51013439269734628390E+00
    0.51014170425837057632E+00
    0.51014030226813378288E+00
    0.51012770199280987882E+00
    0.51011799958081027739E+00
    0.51011437695274075566E+00
    0.51011876017104207381E+00
    0.51014631141785149460E+00
    0.51014630115746650851E+00
    0.51014592595679175702E+00
    0.51014574828979886156E+00
    0.51014626454156775104E+00
    0.51014628712540710520E+00
    0.51014648185913302747E+00
    0.51014646928601836695E+00
    0.51014640166626468165E+00
    0.51014641420756456913E+00
    0.51014639149703711052E+00
    0.51014637799391804318E+00
    0.51014640681344836093E+00
    0.51014641189157816648E+00
    0.51014202743117620376E+00
    0.51013889170533677220E+00
    0.51012718392199685180E+00
    0.51012420639843614190E+00
    0.51013705189809033236E+00
    0.51013863103435896917E+00
    0.51014390120142849572E+00
    0.51014461412758582703E+00
    0.51014602025414690356E+00
    0.51014608653236004354E+00
    0.51014499803153301460E+00
    0.51014500084839675687E+00
    0.51014280516229748574E+00
    0.51014250368026170523E+00
    0.51014578847915292847E+00
    0.51014518532073171997E+00
    0.51014299327018597374E+00
    0.51014120463872958400E+00
    0.51014412546041465468E+00
    0.51014371297552518758E+00
    0.51014560508815520734E+00
    0.51014598147361045477E+00
    0.51014625115455802806E+00
    0.51014628097180858557E+00
    0.51014610821870798318E+00
    0.51014610820729688889E+00
    0.51014575091706360066E+00
    0.51014559096628897539E+00
    0.51012144732950470694E+00
    0.51009918267708465045E+00
    0.51003475291086430854E+00
    0.51000017681041021067E+00
    0.51007417492007389725E+00
    0.51007225647243792377E+00
    0.51011800109170835071E+00
    0.51012769926846956992E+00
    0.51014029070578326142E+00
    0.51014170164292604870E+00
    0.51013438621667328565E+00
    0.51013663730670710805E+00
    0.51011875640778747698E+00
    0.51011437491798117261E+00
    0.51005248039810036076E+00
    0.51001775751045019813E+00
    0.50986626923883460183E+00
    0.50986627808491424840E+00
    0.51001775454259579146E+00
    0.51005246617282773425E+00
    0.51010955031591920239E+00
    0.51011321316973456952E+00
    0.51013434027494197753E+00
    0.51013434567439652767E+00
    0.51011321220434191481E+00
    0.51010954606064906613E+00
    0.51008047054809046994E+00
    0.51008047118545396525E+00
    0.50922916040969412599E+00
    0.50912595514757386095E+00
    0.50823236454823306207E+00
    0.50846360837562620816E+00
    0.50932095210908667759E+00
    0.50961276531484278607E+00
    0.50990818029795947908E+00
    0.50988879884228610617E+00
    0.51003302914056858341E+00
    0.51001791846250810192E+00
    0.50982527564343271820E+00
    0.50974082274908671941E+00
    0.50960701811062725231E+00
    0.50964369981308010882E+00
    0.50961277949835215306E+00
    0.50932095497236384851E+00
    0.50846359947968833293E+00
    0.50823237310240820808E+00
    0.50912595182574360564E+00
    0.50922914560186938182E+00
    0.50974082607134618694E+00
    0.50982527598126836654E+00
    0.51001791225967407772E+00
    0.51003303400591526451E+00
    0.50988879759344085674E+00
    0.50990817594114390410E+00
    0.50964369891750616048E+00
    0.50960701840534483598E+00
    0.50476064514386076443E+00
    0.50334740623985985142E+00
    0.49827576410502144588E+00
    0.49827577399850475626E+00
    0.50334740263030630647E+00
    0.50476062969216195508E+00
    0.50741382383905142550E+00
    0.50755740923739545156E+00
    0.50889543849378082729E+00
    0.50889544411762721587E+00
    0.50755740853057629280E+00
    0.50741382012789759681E+00
    0.50586303213207639562E+00
    0.50586303264220655596E+00
    0.51013400335714609302E+00
    0.51013757689657523997E+00
    0.51012948703962790464E+00
    0.51013631221490562950E+00
    0.51014249903305330935E+00
    0.51014465239182382739E+00
    0.51014544662352723225E+00
    0.51014527413643862008E+00
    0.51014579964397133161E+00
    0.51014564041405918715E+00
    0.51014414072265412692E+00
    0.51014189796480546857E+00
    0.51014301873096612461E+00
    0.51014384073807650388E+00
    0.51011716038618515334E+00
    0.51012822168749605289E+00
    0.51011582853210168942E+00
    0.51012930487331631380E+00
    0.51013950620254544521E+00
    0.51014350681504772034E+00
    0.51014467289081710799E+00
    0.51014411010216709208E+00
    0.51014496738362957728E+00
    0.51014444304436112887E+00
    0.51014085875319670205E+00
    0.51013462881164473028E+00
    0.51013925148908212392E+00
    0.51014122589124077933E+00
    0.50980976206291572783E+00
    0.50987403276870413293E+00
    0.50967038707994549718E+00
    0.50981826938648400205E+00
    0.50999992836944585406E+00
    0.51007564095012403182E+00
    0.51011535015450426567E+00
    0.51010162870034969629E+00
    0.51012516964404541753E+00
    0.51011575511018136808E+00
    0.51006088637447133394E+00
    0.51000228116735391026E+00
    0.51002244408335983827E+00
    0.51004569802984955906E+00
    0.50934904114666779140E+00
    0.50958739261170515888E+00
    0.50928755506804102016E+00
    0.50959435109429074284E+00
    0.50988979182520643985E+00
    0.51002996488422824850E+00
    0.51009076692523003249E+00
    0.51005593260528581112E+00
    0.51009652846337849574E+00
    0.51006773262362281596E+00
    0.50994070376863864791E+00
    0.50976917507447849776E+00
    0.50988720418654698285E+00
    0.50994567204196239452E+00
    0.51010404009238297096E+00
    0.51012207253689367814E+00
    0.51010867082565591879E+00
    0.51012598889672289282E+00
    0.51013798986308955818E+00
    0.51014297649791373601E+00
    0.51014425737240720604E+00
    0.51014336270212967683E+00
    0.51014430729356263772E+00
    0.51014338544122173058E+00
    0.51013817298511876519E+00
    0.51012811466103979985E+00
    0.51013671413696204393E+00
    0.51013957842309165525E+00
    0.51009953857982781589E+00
    0.51012025896304213912E+00
    0.51010703754889019645E+00
    0.51012532148187028636E+00
    0.51013765395622401311E+00
    0.51014287249148460024E+00
    0.51014415792847722653E+00
    0.51014314545640560006E+00
    0.51014406788903232659E+00
    0.51014295865529424301E+00
    0.51013717618289167177E+00
    0.51012547522643114650E+00
    0.51013594452379140698E+00
    0.51013911145328738606E+00
    0.50899707891566836615E+00
    0.50940418057894354398E+00
    0.50909390467143944559E+00
    0.50949298171145251946E+00
    0.50983575038319550732E+00
    0.51000975328012376764E+00
    0.51007797815133071317E+00
    0.51002734205709610027E+00
    0.51007409495627997753E+00
    0.51002561884124564262E+00
    0.50984395582373553957E+00
    0.50956135984433970076E+00
    0.50979834027922599216E+00
    0.50988439193064827304E+00
    0.50888240022815123265E+00
    0.50935318369811710681E+00
    0.50905221756509022590E+00
    0.50947386931750160421E+00
    0.50982439818783309438E+00
    0.51000603855379023077E+00
    0.51007507908391136464E+00
    0.51001949698891024809E+00
    0.51006631621893161466E+00
    0.51000931664998438997E+00
    0.50980974892442465496E+00
    0.50948030464009119722E+00
    0.50977282166091464344E+00
    0.50986799724216791407E+00
    0.50585124984022289407E+00
    0.50619983479445673780E+00
    0.50378756680843272964E+00
    0.50511577399437979086E+00
    0.50752914785154645827E+00
    0.50861615401698734296E+00
    0.50937954690929421186E+00
    0.50917068868953208050E+00
    0.50963309299825376719E+00
    0.50949411175596237555E+00
    0.50864250653086318099E+00
    0.50800657739522825374E+00
    0.50800562048149111583E+00
    0.50827189334967803891E+00
    0.49988006133586176949E+00
    0.50202113673992143639E+00
    0.49868632612710667162E+00
    0.50171231527589843502E+00
    0.50555238111285882852E+00
    0.50763783672742801567E+00
    0.50877205368274669439E+00
    0.50816549516121301000E+00
    0.50893053177274882870E+00
    0.50844985053612656856E+00
    0.50649529085957667451E+00
    0.50443235489839910457E+00
    0.50564779265872661362E+00
    0.50639605921524732945E+00
    0.48438628907364233989E+00
    0.48333919097611388604E+00
    0.47015966573319561972E+00
    0.47423540427643406936E+00
    0.48819518254518529110E+00
    0.49452541746872452633E+00
    0.50116051834052888214E+00
    0.50010499482398362847E+00
    0.50429539123619415708E+00
    0.50357414417829171605E+00
    0.49770592267878399628E+00
    0.49524091526713737155E+00
    0.49275761189930911144E+00
    0.49381848057804306196E+00
    0.44831440869253719184E+00
    0.45501944272989780504E+00
    0.43843790697491369368E+00
    0.45033854914109539003E+00
    0.47167959719227336990E+00
    0.48470006253638131533E+00
    0.49405180159455497346E+00
    0.48970145852641744355E+00
    0.49615836148813163842E+00
    0.49285178076890567844E+00
    0.47978970768117423784E+00
    0.46977911923962645258E+00
    0.47357525479729206674E+00
    0.47747453588760313536E+00
    0.49543147005124432702E+00
    0.49943874939766175203E+00
    0.49620729166107330199E+00
    0.50024412852547495145E+00
    0.50461569977053311042E+00
    0.50722440802322354969E+00
    0.50846704614736337735E+00
    0.50755281448707889602E+00
    0.50839133506126954476E+00
    0.50754784753422843568E+00
    0.50480554960551127230E+00
    0.50128167353309660559E+00
    0.50414468116779820317E+00
    0.50528379812735479959E+00
    0.49405556941013700767E+00
    0.49876109083895514562E+00
    0.49570329209067343079E+00
    0.49998463705863449569E+00
    0.50442900504597221190E+00
    0.50715296130421849696E+00
    0.50840177624807170176E+00
    0.50739314981769012558E+00
    0.50821403109875784576E+00
    0.50721445822340427423E+00
    0.50423835700917296609E+00
    0.50010293631303914808E+00
    0.50373674959085978919E+00
    0.50500321914113521782E+00
    0.42223691240063326857E+00
    0.43817588448351024732E+00
    0.42367790497829155294E+00
    0.44052253664740492756E+00
    0.46413894175293124444E+00
    0.48074230593061073602E+00
    0.49062011233092095441E+00
    0.48354596638060887148E+00
    0.49007852383311117928E+00
    0.48379663897291774743E+00
    0.46609197053703682601E+00
    0.44773772732738548186E+00
    0.46176883330939993977E+00
    0.46813235929722968320E+00
    0.41452759214141460253E+00
    0.43397459125968340654E+00
    0.42080420383114580662E+00
    0.43887124550889361485E+00
    0.46270027328792107113E+00
    0.48009433379359095495E+00
    0.48992498287395414014E+00
    0.48201656853908197986E+00
    0.48818602467814525836E+00
    0.48060851071880311691E+00
    0.46172344962391675960E+00
    0.43983130393391489665E+00
    0.45872577058313729337E+00
    0.46589746105290330558E+00
    0.51014465253617380380E+00
    0.51014248921792137992E+00
    0.51013629292199824672E+00
    0.51012948762798926428E+00
    0.51013756478317084930E+00
    0.51013397828114637189E+00
    0.51014188962092343882E+00
    0.51014412718378132627E+00
    0.51014562196155954776E+00
    0.51014579076388455459E+00
    0.51014526626324396830E+00
    0.51014543922804023168E+00
    0.51014383131631690915E+00
    0.51014301031316144908E+00
    0.51007565028471657520E+00
    0.50999992827889606417E+00
    0.50981825871439578890E+00
    0.50967039456552465371E+00
    0.50987402800290482219E+00
    0.50980974613821572472E+00
    0.51000228266067038074E+00
    0.51006088364454638118E+00
    0.51011574353914579394E+00
    0.51012516701613719317E+00
    0.51010162222044408420E+00
    0.51011533996613567243E+00
    0.51004569427791324188E+00
    0.51002244205706359637E+00
    0.51014350695885690712E+00
    0.51013949638583566681E+00
    0.51012928557458159240E+00
    0.51011582911287489672E+00
    0.51012820957086091322E+00
    0.51011713530661328964E+00
    0.51013462046584689968E+00
    0.51014084521326108490E+00
    0.51014442459073605640E+00
    0.51014495850288010814E+00
    0.51014410222849659871E+00
    0.51014466549505910198E+00
    0.51014121646860033366E+00
    0.51013924307007230130E+00
    0.51002997416555129195E+00
    0.50988979165529513260E+00
    0.50959434022122551688E+00
    0.50928756220875504024E+00
    0.50958738771098543996E+00
    0.50934902516020352792E+00
    0.50976917655748377189E+00
    0.50994070101496069558E+00
    0.51006772105147779595E+00
    0.51009652582957210054E+00
    0.51005592609827088424E+00
    0.51009075672096892973E+00
    0.50994566819092879140E+00
    0.50988720205382043194E+00
    0.50861616825812161480E+00
    0.50752915076466009747E+00
    0.50511576455085027693E+00
    0.50378757654558492529E+00
    0.50619983146355418402E+00
    0.50585123422839406437E+00
    0.50800658076984062106E+00
    0.50864250693544654780E+00
    0.50949410555515939336E+00
    0.50963309784906007938E+00
    0.50917068745877247515E+00
    0.50937954258243400840E+00
    0.50827189250080295757E+00
    0.50800562083759881471E+00
    0.49452543626879863492E+00
    0.48819518659555816154E+00
    0.47423539217820709357E+00
    0.47015967434079874998E+00
    0.48333918455159718963E+00
    0.48438627081930424323E+00
    0.49524091632665667717E+00
    0.49770592212171288482E+00
    0.50357413897980651818E+00
    0.50429539595490668891E+00
    0.50010499408933750676E+00
    0.50116051687741547394E+00
    0.49381847915459359255E+00
    0.49275761075428536895E+00
    0.50763785087301649401E+00
    0.50555238352747433606E+00
    0.50171230368773944708E+00
    0.49868633432019887630E+00
    0.50202113178609097943E+00
    0.49988004582113165775E+00
    0.50443235760636262466E+00
    0.50649529098720602605E+00
    0.50844984437758256046E+00
    0.50893053651333164389E+00
    0.50816549329171134541E+00
    0.50877204868982772723E+00
    0.50639605742520588105E+00
    0.50564779195009512680E+00
    0.48470008379836138079E+00
    0.47167960219313631587E+00
    0.45033853705806919931E+00
    0.43843791625006378609E+00
    0.45501943856041365821E+00
    0.44831439572713799313E+00
    0.46977911928998034030E+00
    0.47978970745134030818E+00
    0.49285177935538559968E+00
    0.49615836790004613777E+00
    0.48970145839030077006E+00
    0.49405180029007261799E+00
    0.47747453483970575538E+00
    0.47357525409022838137E+00
    0.51014297664093211093E+00
    0.51013798004253974039E+00
    0.51012596958515754597E+00
    0.51010867136744930672E+00
    0.51012206039887431075E+00
    0.51010401496858726045E+00
    0.51012810630389215927E+00
    0.51013815944126872370E+00
    0.51014336698686468807E+00
    0.51014429841241448749E+00
    0.51014335482759576301E+00
    0.51014424997630147818E+00
    0.51013956899728551964E+00
    0.51013670571217328842E+00
    0.51000976247899143523E+00
    0.50983575000221670326E+00
    0.50949297092541423471E+00
    0.50909391247563262617E+00
    0.50940417572152596470E+00
    0.50899706218119289414E+00
    0.50956136109578120674E+00
    0.50984395276527472163E+00
    0.51002560717617595465E+00
    0.51007409223455213443E+00
    0.51002733528350296943E+00
    0.51007796786319559157E+00
    0.50988438751488285305E+00
    0.50979833760444670521E+00
    0.51014287263443502951E+00
    0.51013764413549400611E+00
    0.51012530217005525035E+00
    0.51010703808976121110E+00
    0.51012024682245216134E+00
    0.51009951344700299458E+00
    0.51012546686214566005E+00
    0.51013716263727038047E+00
    0.51014294020045003464E+00
    0.51014405900770909419E+00
    0.51014313758172635804E+00
    0.51014415053231565444E+00
    0.51013910202705525787E+00
    0.51013593609808260965E+00
    0.51000604774293190058E+00
    0.50982439759636111187E+00
    0.50947385829908176103E+00
    0.50905222528327154219E+00
    0.50935317843777527802E+00
    0.50888238325027435049E+00
    0.50948030607818095561E+00
    0.50980974592913952392E+00
    0.51000930494842888763E+00
    0.51006631348110742508E+00
    0.51001949020714987260E+00
    0.51007506879424535651E+00
    0.50986799277989802714E+00
    0.50977281891714854023E+00
    0.50722442254764277259E+00
    0.50461570194161120551E+00
    0.50024411616640207523E+00
    0.49620729965542209605E+00
    0.49943874490683554113E+00
    0.49543145568886493013E+00
    0.50128167426670666718E+00
    0.50480554831207236077E+00
    0.50754784155477972174E+00
    0.50839133928856650169E+00
    0.50755281235389815286E+00
    0.50846704177609647335E+00
    0.50528379584421501125E+00
    0.50414467985885336176E+00
    0.48074232781833109440E+00
    0.46413894720327292243E+00
    0.44052252405969849480E+00
    0.42367791444302826953E+00
    0.43817588166641696645E+00
    0.42223690163058436031E+00
    0.44773772768166780756E+00
    0.46609197168688537571E+00
    0.48379664048627579742E+00
    0.49007853234017029198E+00
    0.48354596742782751662E+00
    0.49062011135803357265E+00