# vtk DataFile Version 3.0
LAPLACIEN  2D
ASCII
DATASET UNSTRUCTURED_GRID
 POINTS        1857  float
   3.1250000000000000E-002  0.93750000000000000        0.0000000000000000     
   6.2500000000000000E-002  0.93750000000000000        0.0000000000000000     
   6.2500000000000000E-002  0.96875000000000000        0.0000000000000000     
   1.8749999999999999E-002  0.95625000000000004        0.0000000000000000     
   4.0625000000000001E-002  0.95937499999999998        0.0000000000000000     
   4.3749999999999997E-002  0.98124999999999996        0.0000000000000000     
   2.1874999999999999E-002  0.97812500000000002        0.0000000000000000     
   9.3750000000000000E-002  0.93750000000000000        0.0000000000000000     
  0.12500000000000000       0.93750000000000000        0.0000000000000000     
  0.12500000000000000       0.96875000000000000        0.0000000000000000     
   8.1250000000000003E-002  0.95625000000000004        0.0000000000000000     
  0.10312499999999999       0.95937499999999998        0.0000000000000000     
  0.10625000000000000       0.98124999999999996        0.0000000000000000     
   8.4375000000000006E-002  0.97812500000000002        0.0000000000000000     
   3.1250000000000000E-002  0.87500000000000000        0.0000000000000000     
   6.2500000000000000E-002  0.87500000000000000        0.0000000000000000     
   6.2500000000000000E-002  0.90625000000000000        0.0000000000000000     
   1.8749999999999999E-002  0.89375000000000004        0.0000000000000000     
   4.0625000000000001E-002  0.89687499999999998        0.0000000000000000     
   4.3749999999999997E-002  0.91874999999999996        0.0000000000000000     
   2.1874999999999999E-002  0.91562500000000002        0.0000000000000000     
   9.3750000000000000E-002  0.87500000000000000        0.0000000000000000     
  0.12500000000000000       0.87500000000000000        0.0000000000000000     
  0.12500000000000000       0.90625000000000000        0.0000000000000000     
   8.1250000000000003E-002  0.89375000000000004        0.0000000000000000     
  0.10312499999999999       0.89687499999999998        0.0000000000000000     
  0.10625000000000000       0.91874999999999996        0.0000000000000000     
   8.4375000000000006E-002  0.91562500000000002        0.0000000000000000     
  0.15625000000000000       0.93750000000000000        0.0000000000000000     
  0.18750000000000000       0.93750000000000000        0.0000000000000000     
  0.18750000000000000       0.96875000000000000        0.0000000000000000     
  0.14374999999999999       0.95625000000000004        0.0000000000000000     
  0.16562499999999999       0.95937499999999998        0.0000000000000000     
  0.16875000000000001       0.98124999999999996        0.0000000000000000     
  0.14687500000000001       0.97812500000000002        0.0000000000000000     
  0.21875000000000000       0.93750000000000000        0.0000000000000000     
  0.25000000000000000       0.93750000000000000        0.0000000000000000     
  0.25000000000000000       0.96875000000000000        0.0000000000000000     
  0.20624999999999999       0.95625000000000004        0.0000000000000000     
  0.22812499999999999       0.95937499999999998        0.0000000000000000     
  0.23125000000000001       0.98124999999999996        0.0000000000000000     
  0.20937500000000001       0.97812500000000002        0.0000000000000000     
  0.15625000000000000       0.87500000000000000        0.0000000000000000     
  0.18750000000000000       0.87500000000000000        0.0000000000000000     
  0.18750000000000000       0.90625000000000000        0.0000000000000000     
  0.14374999999999999       0.89375000000000004        0.0000000000000000     
  0.16562499999999999       0.89687499999999998        0.0000000000000000     
  0.16875000000000001       0.91874999999999996        0.0000000000000000     
  0.14687500000000001       0.91562500000000002        0.0000000000000000     
  0.21875000000000000       0.87500000000000000        0.0000000000000000     
  0.25000000000000000       0.87500000000000000        0.0000000000000000     
  0.25000000000000000       0.90625000000000000        0.0000000000000000     
  0.20624999999999999       0.89375000000000004        0.0000000000000000     
  0.22812499999999999       0.89687499999999998        0.0000000000000000     
  0.23125000000000001       0.91874999999999996        0.0000000000000000     
  0.20937500000000001       0.91562500000000002        0.0000000000000000     
   3.1250000000000000E-002  0.81250000000000000        0.0000000000000000     
   6.2500000000000000E-002  0.81250000000000000        0.0000000000000000     
   6.2500000000000000E-002  0.84375000000000000        0.0000000000000000     
   1.8749999999999999E-002  0.83125000000000004        0.0000000000000000     
   4.0625000000000001E-002  0.83437499999999998        0.0000000000000000     
   4.3749999999999997E-002  0.85624999999999996        0.0000000000000000     
   2.1874999999999999E-002  0.85312500000000002        0.0000000000000000     
   9.3750000000000000E-002  0.81250000000000000        0.0000000000000000     
  0.12500000000000000       0.81250000000000000        0.0000000000000000     
  0.12500000000000000       0.84375000000000000        0.0000000000000000     
   8.1250000000000003E-002  0.83125000000000004        0.0000000000000000     
  0.10312499999999999       0.83437499999999998        0.0000000000000000     
  0.10625000000000000       0.85624999999999996        0.0000000000000000     
   8.4375000000000006E-002  0.85312500000000002        0.0000000000000000     
   3.1250000000000000E-002  0.75000000000000000        0.0000000000000000     
   6.2500000000000000E-002  0.75000000000000000        0.0000000000000000     
   6.2500000000000000E-002  0.78125000000000000        0.0000000000000000     
   1.8749999999999999E-002  0.76875000000000004        0.0000000000000000     
   4.0625000000000001E-002  0.77187499999999998        0.0000000000000000     
   4.3749999999999997E-002  0.79374999999999996        0.0000000000000000     
   2.1874999999999999E-002  0.79062500000000002        0.0000000000000000     
   9.3750000000000000E-002  0.75000000000000000        0.0000000000000000     
  0.12500000000000000       0.75000000000000000        0.0000000000000000     
  0.12500000000000000       0.78125000000000000        0.0000000000000000     
   8.1250000000000003E-002  0.76875000000000004        0.0000000000000000     
  0.10312499999999999       0.77187499999999998        0.0000000000000000     
  0.10625000000000000       0.79374999999999996        0.0000000000000000     
   8.4375000000000006E-002  0.79062500000000002        0.0000000000000000     
  0.15625000000000000       0.81250000000000000        0.0000000000000000     
  0.18750000000000000       0.81250000000000000        0.0000000000000000     
  0.18750000000000000       0.84375000000000000        0.0000000000000000     
  0.14374999999999999       0.83125000000000004        0.0000000000000000     
  0.16562499999999999       0.83437499999999998        0.0000000000000000     
  0.16875000000000001       0.85624999999999996        0.0000000000000000     
  0.14687500000000001       0.85312500000000002        0.0000000000000000     
  0.21875000000000000       0.81250000000000000        0.0000000000000000     
  0.25000000000000000       0.81250000000000000        0.0000000000000000     
  0.25000000000000000       0.84375000000000000        0.0000000000000000     
  0.20624999999999999       0.83125000000000004        0.0000000000000000     
  0.22812499999999999       0.83437499999999998        0.0000000000000000     
  0.23125000000000001       0.85624999999999996        0.0000000000000000     
  0.20937500000000001       0.85312500000000002        0.0000000000000000     
  0.15625000000000000       0.75000000000000000        0.0000000000000000     
  0.18750000000000000       0.75000000000000000        0.0000000000000000     
  0.18750000000000000       0.78125000000000000        0.0000000000000000     
  0.14374999999999999       0.76875000000000004        0.0000000000000000     
  0.16562499999999999       0.77187499999999998        0.0000000000000000     
  0.16875000000000001       0.79374999999999996        0.0000000000000000     
  0.14687500000000001       0.79062500000000002        0.0000000000000000     
  0.21875000000000000       0.75000000000000000        0.0000000000000000     
  0.25000000000000000       0.75000000000000000        0.0000000000000000     
  0.25000000000000000       0.78125000000000000        0.0000000000000000     
  0.20624999999999999       0.76875000000000004        0.0000000000000000     
  0.22812499999999999       0.77187499999999998        0.0000000000000000     
  0.23125000000000001       0.79374999999999996        0.0000000000000000     
  0.20937500000000001       0.79062500000000002        0.0000000000000000     
  0.28125000000000000       0.93750000000000000        0.0000000000000000     
  0.31250000000000000       0.93750000000000000        0.0000000000000000     
  0.31250000000000000       0.96875000000000000        0.0000000000000000     
  0.26874999999999999       0.95625000000000004        0.0000000000000000     
  0.29062500000000002       0.95937499999999998        0.0000000000000000     
  0.29375000000000001       0.98124999999999996        0.0000000000000000     
  0.27187499999999998       0.97812500000000002        0.0000000000000000     
  0.34375000000000000       0.93750000000000000        0.0000000000000000     
  0.37500000000000000       0.93750000000000000        0.0000000000000000     
  0.37500000000000000       0.96875000000000000        0.0000000000000000     
  0.33124999999999999       0.95625000000000004        0.0000000000000000     
  0.35312500000000002       0.95937499999999998        0.0000000000000000     
  0.35625000000000001       0.98124999999999996        0.0000000000000000     
[...]
 CELL_DATA        3584
 SCALARS Nutrients float
 LOOKUP_TABLE default
    0.51666616586871783046E+00
    0.51666618488884596960E+00
    0.51666582033553498654E+00
    0.51666583317421754806E+00
    0.51666619036450722735E+00
    0.51666616568623491279E+00
    0.51666631004618468470E+00
    0.51666633699560904347E+00
    0.51666637057059383586E+00
    0.51666637603651432986E+00
    0.51666633992641997075E+00
    0.51666630824438264380E+00
    0.51666630935256352419E+00
    0.51666631048598887777E+00
    0.51666383872571430835E+00
    0.51666328797986726951E+00
    0.51665966546858721475E+00
    0.51666016262517966418E+00
    0.51666348663583849810E+00
    0.51666402907991970661E+00
    0.51666511928593927827E+00
    0.51666546831555082431E+00
    0.51666599134680690764E+00
    0.51666605135193655052E+00
    0.51666561655493281613E+00
    0.51666545085039983221E+00
    0.51666484187732752975E+00
    0.51666485333954037529E+00
    0.51666401737608413924E+00
    0.51666346851369804316E+00
    0.51666013747520012078E+00
    0.51665966561226062126E+00
    0.51666327594378658183E+00
    0.51666381863005550468E+00
    0.51666544575053030552E+00
    0.51666560130747707369E+00
    0.51666603108447750614E+00
    0.51666597775322165020E+00
    0.51666545337957692219E+00
    0.51666510206507465508E+00
    0.51666483804185681095E+00
    0.51666482952708070453E+00
    0.51664316708232915776E+00
    0.51663661327803178658E+00
    0.51660714447619437983E+00
    0.51660715422215275350E+00
    0.51663661174459296621E+00
    0.51664315754822276450E+00
    0.51665620827193325937E+00
    0.51665728530779742034E+00
    0.51666266168017893623E+00
    0.51666266546311823138E+00
    0.51665728569707591866E+00
    0.51665620143264323616E+00
    0.51664978927213467408E+00
    0.51664978970674158010E+00
    0.51664630465089778077E+00
    0.51664538975872198456E+00
    0.51662690865064753165E+00
    0.51663265228201649126E+00
    0.51664951978534778831E+00
    0.51665390969167834800E+00
    0.51665870538201830175E+00
    0.51666000419437929647E+00
    0.51666290906361622692E+00
    0.51666320392585718402E+00
    0.51665960255727683137E+00
    0.51665759515017084524E+00
    0.51665530271066262280E+00
    0.51665594812046944373E+00
    0.51657604454980532438E+00
    0.51658298638878907827E+00
    0.51652510657162575836E+00
    0.51655396439758516358E+00
    0.51660775711929485254E+00
    0.51662597827686307372E+00
    0.51663919258493062880E+00
    0.51664126569448431958E+00
    0.51665069735802215956E+00
    0.51665092327032746677E+00
    0.51663532713439885846E+00
    0.51662310924998056105E+00
    0.51662139595915068657E+00
    0.51662576378317004444E+00
    0.51649654691367563597E+00
    0.51647539111290752256E+00
    0.51632409330149220406E+00
    0.51635049768963559025E+00
    0.51649954132452668976E+00
    0.51654572070696713748E+00
    0.51660781643955766551E+00
    0.51660731307515783683E+00
    0.51663793643143618439E+00
    0.51663566880626365929E+00
    0.51659840920959565480E+00
    0.51658457436722626799E+00
    0.51655684098065657306E+00
    0.51656155301400485946E+00
    0.51589803583505100537E+00
    0.51590275170932620163E+00
    0.51542846633361538711E+00
    0.51560363537437103876E+00
    0.51608137303117540551E+00
    0.51627220974884235893E+00
    0.51645850579709950967E+00
    0.51643265055194031987E+00
    0.51653898128753572561E+00
    0.51651825604044099283E+00
    0.51635757021640282804E+00
    0.51626497142054317280E+00
    0.51622030961190723541E+00
    0.51625673038687025507E+00
    0.51665389364038849518E+00
    0.51664949510573821012E+00
    0.51663261920857661558E+00
    0.51662689734896460880E+00
    0.51664536657417758914E+00
    0.51664627148408903690E+00
    0.51665757803269707349E+00
    0.51665957722049704604E+00
    0.51666317343809486928E+00
    0.51666288692054562759E+00
    0.51665998232205101459E+00
    0.51665868307779649893E+00
    0.51665592505611934726E+00
    0.51665528144016747980E+00
    0.51654572124463571381E+00
    0.51649953554418748247E+00
    0.51635048359326574108E+00
    0.51632409835511539065E+00
    0.51647538451262020587E+00
    0.51649653078192214739E+00
    0.51658457473472740862E+00
    0.51659840244709487322E+00
    0.51663565454434789981E+00
    0.51663792678097641975E+00
    0.51660729984912978630E+00
    0.51660779670863687940E+00
    0.51656154455436664730E+00
    0.51655683507976624114E+00
    0.51662596153022599665E+00
    0.51660773138491444811E+00
    0.51655393067752886083E+00
    0.51652509400785384663E+00
    0.51658296071855769327E+00
    0.51657600712293050282E+00
    0.51662308608289431167E+00
    0.51663529806849928239E+00
    0.51665088927775315586E+00
    0.51665067258822816587E+00
    0.51664124205478234586E+00
    0.51663916922753438943E+00
    0.51662573885563112253E+00
    0.51662137233422544824E+00
    0.51627220945415164266E+00
    0.51608136615059019281E+00
    0.51560362052762109819E+00
    0.51542847247547263212E+00
    0.51590274456108586865E+00
    0.51589801729522055673E+00
    0.51626496870608518108E+00
    0.51635756149931300030E+00
    0.51651823600774338097E+00
    0.51653896736585946936E+00
    0.51643263513768800088E+00
    0.51645848478380529389E+00
    0.51625672057259797132E+00
    0.51622030257181517054E+00
    0.51577841228211052105E+00
    0.51558567078630856972E+00
    0.51481590945362265543E+00
    0.51481591964701289843E+00
    0.51558566871429944989E+00
    0.51577839936085367878E+00
    0.51619803559039123542E+00
    0.51623071360257055673E+00
    0.51644274256109312660E+00
    0.51644274712679705264E+00
    0.51623071216939486749E+00
    0.51619803001905273376E+00
    0.51597281763572944158E+00
    0.51597281843975817406E+00
    0.51259208818747592495E+00
    0.51228407725224645031E+00
    0.50988665803822830203E+00
    0.51036350528678897653E+00
    0.51282516705422986902E+00
    0.51373341779239700688E+00
    0.51498298324631508471E+00
    0.51492169874977689048E+00
    0.51565514162595837977E+00
    0.51557700134108974677E+00
    0.51466168000554934903E+00
    0.51433091796383945127E+00
    0.51380235431343312946E+00
    0.51391861579042141805E+00
    0.51373343276441030270E+00
    0.51282516781598475042E+00
    0.51036348962673760976E+00
    0.50988666416987327157E+00
    0.51228406960874484088E+00
    0.51259206967065185090E+00
    0.51433091812224107642E+00
    0.51466167805992280027E+00
    0.51557699433239434494E+00
    0.51565514368343423612E+00
    0.51492169585822100686E+00
    0.51498297910229029473E+00
    0.51391861229107382858E+00
    0.51380235145993957691E+00
    0.50306451071795266206E+00
    0.50090452088272929831E+00
    0.49332942721610378856E+00
    0.49332943822969949066E+00
    0.50090451423212789539E+00
    0.50306448874744136290E+00
    0.50815361893736776810E+00
    0.50853331804230139657E+00
    0.51166597099018629180E+00
    0.51166597396337298864E+00
    0.50853331852394556556E+00
    0.50815361817163307023E+00
    0.50517580663039285405E+00
    0.50517580635301784220E+00
    0.51640816097456754274E+00
    0.51645259223131800841E+00
    0.51633718723043253718E+00
    0.51641973889580716772E+00
    0.51653319938362618480E+00
    0.51657977113166897443E+00
    0.51660366167969407059E+00
    0.51660282976504823260E+00
    0.51662197477452043159E+00
    0.51661968430370341920E+00
    0.51657681730305482493E+00
    0.51653308138673592609E+00
    0.51654933831319926885E+00
    0.51656453595142981516E+00
    0.51617016435952844944E+00
    0.51628989192054830504E+00
    0.51613231104585943765E+00
    0.51628409417681242477E+00
    0.51645405034044178372E+00
    0.51653416197479973260E+00
    0.51656497614455554324E+00
    0.51655557188928058476E+00
    0.51658141697741044585E+00
    0.51657205558759589081E+00
    0.51649229811339747442E+00
    0.51639282981524481375E+00
    0.51645785487997408758E+00
    0.51649030191435996162E+00
    0.51444845291216201311E+00
    0.51469343378023357793E+00
    0.51376189307649811067E+00
    0.51432136801897954115E+00
    0.51532704969962506159E+00
    0.51581694635111463576E+00
    0.51618451502108986251E+00
    0.51606927678227254574E+00
    0.51630235679602010102E+00
    0.51621373742630927151E+00
    0.51576887630958778708E+00
    0.51541488871374607772E+00
    0.51549625618498851054E+00
    0.51563091319406728630E+00
    0.51238795032299688792E+00
    0.51318619959609046433E+00
    0.51195199714336847574E+00
    0.51303334032041592039E+00
    0.51452808978873765255E+00
    0.51537086413619859204E+00
    0.51588728682585471841E+00
    0.51562209805985148581E+00
    0.51596636011995589133E+00
    0.51574566804281318788E+00
    0.51491603666119434290E+00
    0.51408001231450684010E+00
    0.51457685686234633238E+00
    0.51487261099081249593E+00
    0.51597144902144065348E+00
    0.51616927314898264356E+00
    0.51600091606087239438E+00
    0.51620346443124653923E+00
    0.51640434097987375495E+00
    0.51650753071334554178E+00
    0.51653992289423789064E+00
    0.51652090216268575773E+00
    0.51654724123462669727E+00
    0.51652877028024934969E+00
    0.51641959551590710387E+00
    0.51626329072758658789E+00
    0.51638879305613938353E+00
    0.51643676312249409133E+00
    0.51587554280069591872E+00
    0.51611808991931151791E+00
    0.51595504757142751640E+00
    0.51617878906791658800E+00
    0.51638757486010189446E+00
    0.51649972128321275378E+00
    0.51653106917082636240E+00
    0.51650634729421096569E+00
    0.51653041539103039526E+00
    0.51650563657760695246E+00
    0.51638301827066845906E+00
    0.51619314145833405938E+00
    0.51635882476282146669E+00
    0.51641479620375307924E+00
    0.51068209638617978463E+00
    0.51208219526964893209E+00
    0.51080728932240160312E+00
    0.51228022359666058883E+00
    0.51403286007493020904E+00
    0.51511527334917994736E+00
    0.51569744208517753759E+00
    0.51529790568323230460E+00
    0.51568507244157102409E+00
    0.51532245080930416670E+00
    0.51418900367396702666E+00
    0.51285215093242497719E+00
    0.51389065086835139518E+00
    0.51433244462848493050E+00
    0.50987208895387614582E+00
    0.51162233351390096203E+00
    0.51041443914348871846E+00
    0.51205402516929798828E+00
    0.51386837057555945218E+00
    0.51504192411653171302E+00
    0.51563152765370279251E+00
    0.51516446532564608152E+00
    0.51554875142999301296E+00
    0.51509984227473093465E+00
    0.51382983349124045080E+00
    0.51219627848547566451E+00
    0.51359838759147224962E+00
    0.51411502450977530909E+00
    0.50478874017502828320E+00
    0.50525032511795331391E+00
    0.50065388435941571288E+00
    0.50268120911907343551E+00
    0.50780678256034228468E+00
    0.51031537130752246956E+00
    0.51273432300348165125E+00
    0.51217006980630752633E+00
    0.51374589563362516031E+00
    0.51329847711191189941E+00
    0.51078164357618149882E+00
    0.50928653256800404669E+00
    0.50908701914739995509E+00
    0.50966208715828065223E+00
    0.49367397976640930990E+00
    0.49649976060513700826E+00
    0.49067166898796338304E+00
    0.49501419264471013815E+00
    0.50250797210837561124E+00
    0.50699010278671474694E+00
    0.51030306488083010397E+00
    0.50878432067936230077E+00
    0.51102796261377769760E+00
    0.50978192895840013232E+00
    0.50515186374341114472E+00
    0.50131530161603909956E+00
    0.50310557717418113999E+00
    0.50451334844480577591E+00
    0.47664317264487682246E+00
    0.47525092379727634784E+00
    0.46111370937610385301E+00
    0.46454600764094283738E+00
    0.48004443303443666835E+00
    0.48706898153734523582E+00
    0.49663241641274313842E+00
    0.49553111145787565039E+00
    0.50207537478652186635E+00
    0.50103701532700872789E+00
    0.49256744902325316771E+00
    0.48945131050368323455E+00
    0.48599696139389009231E+00
    0.48713665508850995112E+00
    0.43876433257821900735E+00
    0.44330781652430317763E+00
    0.42638148685840415730E+00
    0.43598015214017804553E+00
    0.45807833111720863695E+00
    0.47161284136399417299E+00
    0.48421857353369723853E+00
    0.47953120134581400658E+00
    0.48839241104212149924E+00
    0.48456557181284548586E+00
    0.46932707289446085053E+00
    0.45964439905431880851E+00
    0.46165398433977666848E+00
    0.46532929992297333843E+00
    0.48454901379478471091E+00
    0.49016389154326145405E+00
    0.48443908961789250434E+00
    0.49059648783485371171E+00
    0.49926093517478198347E+00
    0.50511422185099585924E+00
    0.50877042410057571331E+00
    0.50635344596346409940E+00
    0.50877290713849487869E+00
    0.50662551185030946233E+00
    0.50039581003801281156E+00
    0.49401814512214448083E+00
    0.49868985659054010373E+00
    0.50088766006488461002E+00
    0.48027058482735440759E+00
    0.48756281342905022358E+00
    0.48232609382483182525E+00
    0.48928801368505381308E+00
    0.49819433222907766323E+00
    0.50458432219020521448E+00
    0.50824646284733865365E+00
    0.50536663864756659059E+00
    0.50769833931167118735E+00
    0.50499042000768801230E+00
    0.49808227126481857683E+00
    0.49016594376172717418E+00
    0.49683724021606978649E+00
    0.49945026984481089016E+00
    0.40800319094996256863E+00
    0.42048046844079151052E+00
    0.40503716538919926071E+00
    0.41976247822470935667E+00
    0.44476610125691501407E+00
    0.46300969632736216353E+00
    0.47648645438737691205E+00
    0.46815043460640132222E+00
    0.47714158637696030274E+00
    0.46989181151609027420E+00
    0.44987165846155230398E+00
    0.43250986420731352133E+00
    0.44388294398683264541E+00
    0.45014430992365955797E+00
    0.39376745476499180887E+00
    0.41121578577978706859E+00
    0.39786122618221936298E+00
    0.41499461514554486508E+00
    0.44041594055530430829E+00
    0.46060132653057606067E+00
    0.47387003578198921838E+00
    0.46357242814653487617E+00
    0.47185251922100546196E+00
    0.46238780776061327860E+00
    0.44052817608711741793E+00
    0.41835252672491807235E+00
    0.43650678654007879498E+00
    0.44418361770264386257E+00
    0.51657975469271166791E+00
    0.51653317398733877841E+00
    0.51641970589731800434E+00
    0.51633717453788108287E+00
    0.51645256651469495512E+00
    0.51640812362082022524E+00
    0.51653305814923877737E+00
    0.51657678802281348229E+00
    0.51661964985396302552E+00
    0.51662194970727048915E+00
    0.51660280625344867644E+00
    0.51660363838687717308E+00
    0.51656451122311242141E+00
    0.51654931463263775715E+00
    0.51581694574006398124E+00
    0.51532704146512919863E+00
    0.51432134877832869080E+00
    0.51376189557322304857E+00
    0.51469342269162876580E+00
    0.51444843249927796336E+00
    0.51541488503902554985E+00
    0.51576886680177069788E+00
    0.51621371680318350883E+00
    0.51630234247708373108E+00
    0.51606926004510333961E+00
    0.51618449320793358126E+00
    0.51563090113668530456E+00
    0.51549624658872550409E+00
    0.51653414623843463271E+00
    0.51645402603124679342E+00
    0.51628406264554116412E+00
    0.51613230023360989751E+00
    0.51628986775301066725E+00
    0.51617012739450018888E+00
    0.51639280770056394942E+00
    0.51649226984473661783E+00
    0.51657202164913817999E+00
    0.51658139260981150720E+00
    0.51655554941241710321E+00
    0.51656495370128685529E+00
    0.51649027834928074032E+00
    0.51645783250322641056E+00
    0.51537086477861426825E+00
    0.51452808028363961057E+00
    0.51303331867353652029E+00
    0.51195199797458446067E+00
    0.51318618731551823853E+00
    0.51238793020762518626E+00
    0.51408000436712142367E+00
    0.51491602360708321751E+00
    0.51574564716058091118E+00
    0.51596634560985965567E+00
    0.51562208058543768097E+00
    0.51588726633128734189E+00
    0.51487259680248498306E+00
    0.51457684465865471957E+00
    0.51031538856572555840E+00
    0.50780678242693799707E+00
    0.50268119104502606564E+00
    0.50065388697648049998E+00
    0.50525031404246478761E+00
    0.50478872072102609625E+00
    0.50928652741341162713E+00
    0.51078163831719636256E+00
    0.51329847192741284712E+00
    0.51374589717384500087E+00
    0.51217006557853739235E+00
    0.51273431774040201248E+00
    0.50966208115687106073E+00
    0.50908701297084713033E+00
    0.48706900412724069005E+00
    0.48004443626034482007E+00
    0.46454599247621369829E+00
    0.46111371517296256828E+00
    0.47525091251506962342E+00
    0.47664315034076093491E+00
    0.48945130741276743347E+00
    0.49256744692340820313E+00
    0.50103701657098476119E+00
    0.50207537980075600537E+00
    0.49553110961124580136E+00
    0.49663241281709208375E+00
    0.48713665092620650476E+00
    0.48599695655330654720E+00
    0.50699012161499712459E+00
    0.50250797337122843356E+00
    0.49501417567890493299E+00
    0.49067167388673105233E+00
    0.49649975346971142454E+00
    0.49367396427387710833E+00
    0.50131529582902933928E+00
    0.50515185997805356344E+00
    0.50978192689414092431E+00
    0.51102796618486656666E+00
    0.50878431769888132763E+00
    0.51030305925783103760E+00
    0.50451334410285386678E+00
    0.50310557310766101935E+00
    0.47161286685861630863E+00
    0.45807833794779323489E+00
    0.43598013987398592795E+00
    0.42638149634230387841E+00
    0.44330781427464399647E+00
    0.43876432303687351588E+00
    0.45964439680150753764E+00
    0.46932707410432766837E+00
    0.48456557603162714321E+00
    0.48839242034368107737E+00
    0.47953120366809370845E+00
    0.48421857268105517047E+00
    0.46532930067148298159E+00
    0.46165398517432609804E+00
    0.51650751545661588437E+00
    0.51640431700866062936E+00
    0.51620343322686512710E+00
    0.51600090531179687581E+00
    0.51616924857161539109E+00
    0.51597141265700885437E+00
    0.51626327017471984604E+00
    0.51641956817174128336E+00
    0.51652873697315204726E+00
    0.51654721738952602550E+00
    0.51652088020213371422E+00
    0.51653990093322532662E+00
    0.51643674010213136416E+00
    0.51638877118032333602E+00
    0.51511527447975635763E+00
    0.51403285008083521301E+00
    0.51228020091508674749E+00
    0.51080728947308051691E+00
    0.51208218270945238260E+00
    0.51068207658046449460E+00
    0.51285214093871045460E+00
    0.51418898982505123474E+00
    0.51532243163970681277E+00
    0.51568505894401639456E+00
    0.51529788854282021493E+00
    0.51569742232336279741E+00
    0.51433242982191218484E+00
    0.51389063788589239845E+00
    0.51649970611521001107E+00
    0.51638755098995503534E+00
    0.51617875760270093277E+00
    0.51595503642821505252E+00
    0.51611806617343325421E+00
    0.51587550776112145456E+00
    0.51619312208789580598E+00
    0.51638299196326598040E+00
    0.51650560380683852024E+00
    0.51653039192125127510E+00
    0.51650632555483577679E+00
    0.51653104736457489121E+00
    0.51641477333405649830E+00
    0.51635880327561645142E+00
    0.51504192251519564927E+00
    0.51386835959294019371E+00
    0.51205400080762597526E+00
    0.51041443292009402999E+00
    0.51162231830321658332E+00
    0.50987206697825848689E+00
    0.51219626722043631872E+00
    0.51382981912171798999E+00
    0.51509982365939599447E+00
    0.51554873876371487551E+00
    0.51516444816840634147E+00
    0.51563150708802651945E+00
    0.51411500917081998097E+00
    0.51359837373315442299E+00
    0.50511423935418109377E+00
    0.49926093526078457741E+00
    0.49059646789124050636E+00
    0.48443909266385154488E+00
    0.49016388446032049808E+00
    0.48454899959955743949E+00
    0.49401814020376216829E+00
    0.50039580732810251540E+00
    0.50662551160702939956E+00
    0.50877291192988161050E+00
    0.50635344345080379735E+00
    0.50877041794758626203E+00
    0.50088765581648020397E+00
    0.49868985287134459661E+00
    0.46300971626353498722E+00
    0.44476610460188342744E+00
    0.41976245994341693235E+00
    0.40503717021983653979E+00
    0.42048046522759896515E+00
    0.40800318213342273710E+00
    0.43250986401135815829E+00
    0.44987166136193107446E+00
    0.46989181827436737882E+00
    0.47714159735700722997E+00
    0.46815043691738017495E+00
    0.47648645139124018444E+00