# vtk DataFile Version 3.0
LAPLACIEN  2D
ASCII
DATASET UNSTRUCTURED_GRID
 POINTS        1857  float
   3.1250000000000000E-002  0.93750000000000000        0.0000000000000000     
   6.2500000000000000E-002  0.93750000000000000        0.0000000000000000     
   6.2500000000000000E-002  0.96875000000000000        0.0000000000000000     
   1.8749999999999999E-002  0.95625000000000004        0.0000000000000000     
   4.0625000000000001E-002  0.95937499999999998        0.0000000000000000     
   4.3749999999999997E-002  0.98124999999999996        0.0000000000000000     
   2.1874999999999999E-002  0.97812500000000002        0.0000000000000000     
   9.3750000000000000E-002  0.93750000000000000        0.0000000000000000     
  0.12500000000000000       0.93750000000000000        0.0000000000000000     
  0.12500000000000000       0.96875000000000000        0.0000000000000000     
   8.1250000000000003E-002  0.95625000000000004        0.0000000000000000     
  0.10312499999999999       0.95937499999999998        0.0000000000000000     
  0.10625000000000000       0.98124999999999996        0.0000000000000000     
   8.4375000000000006E-002  0.97812500000000002        0.0000000000000000     
   3.1250000000000000E-002  0.87500000000000000        0.0000000000000000     
   6.2500000000000000E-002  0.87500000000000000        0.0000000000000000     
   6.2500000000000000E-002  0.90625000000000000        0.0000000000000000     
   1.8749999999999999E-002  0.89375000000000004        0.0000000000000000     
   4.0625000000000001E-002  0.89687499999999998        0.0000000000000000     
   4.3749999999999997E-002  0.91874999999999996        0.0000000000000000     
   2.1874999999999999E-002  0.91562500000000002        0.0000000000000000     
   9.3750000000000000E-002  0.87500000000000000        0.0000000000000000     
  0.12500000000000000       0.87500000000000000        0.0000000000000000     
  0.12500000000000000       0.90625000000000000        0.0000000000000000     
   8.1250000000000003E-002  0.89375000000000004        0.0000000000000000     
  0.10312499999999999       0.89687499999999998        0.0000000000000000     
  0.10625000000000000       0.91874999999999996        0.0000000000000000     
   8.4375000000000006E-002  0.91562500000000002        0.0000000000000000     
  0.15625000000000000       0.93750000000000000        0.0000000000000000     
  0.18750000000000000       0.93750000000000000        0.0000000000000000     
  0.18750000000000000       0.96875000000000000        0.0000000000000000     
  0.14374999999999999       0.95625000000000004        0.0000000000000000     
  0.16562499999999999       0.95937499999999998        0.0000000000000000     
  0.16875000000000001       0.98124999999999996        0.0000000000000000     
  0.14687500000000001       0.97812500000000002        0.0000000000000000     
  0.21875000000000000       0.93750000000000000        0.0000000000000000     
  0.25000000000000000       0.93750000000000000        0.0000000000000000     
  0.25000000000000000       0.96875000000000000        0.0000000000000000     
  0.20624999999999999       0.95625000000000004        0.0000000000000000     
  0.22812499999999999       0.95937499999999998        0.0000000000000000     
  0.23125000000000001       0.98124999999999996        0.0000000000000000     
  0.20937500000000001       0.97812500000000002        0.0000000000000000     
  0.15625000000000000       0.87500000000000000        0.0000000000000000     
  0.18750000000000000       0.87500000000000000        0.0000000000000000     
  0.18750000000000000       0.90625000000000000        0.0000000000000000     
  0.14374999999999999       0.89375000000000004        0.0000000000000000     
  0.16562499999999999       0.89687499999999998        0.0000000000000000     
  0.16875000000000001       0.91874999999999996        0.0000000000000000     
  0.14687500000000001       0.91562500000000002        0.0000000000000000     
  0.21875000000000000       0.87500000000000000        0.0000000000000000     
  0.25000000000000000       0.87500000000000000        0.0000000000000000     
  0.25000000000000000       0.90625000000000000        0.0000000000000000     
  0.20624999999999999       0.89375000000000004        0.0000000000000000     
  0.22812499999999999       0.89687499999999998        0.0000000000000000     
  0.23125000000000001       0.91874999999999996        0.0000000000000000     
  0.20937500000000001       0.91562500000000002        0.0000000000000000     
   3.1250000000000000E-002  0.81250000000000000        0.0000000000000000     
   6.2500000000000000E-002  0.81250000000000000        0.0000000000000000     
   6.2500000000000000E-002  0.84375000000000000        0.0000000000000000     
   1.8749999999999999E-002  0.83125000000000004        0.0000000000000000     
   4.0625000000000001E-002  0.83437499999999998        0.0000000000000000     
   4.3749999999999997E-002  0.85624999999999996        0.0000000000000000     
   2.1874999999999999E-002  0.85312500000000002        0.0000000000000000     
   9.3750000000000000E-002  0.81250000000000000        0.0000000000000000     
  0.12500000000000000       0.81250000000000000        0.0000000000000000     
  0.12500000000000000       0.84375000000000000        0.0000000000000000     
   8.1250000000000003E-002  0.83125000000000004        0.0000000000000000     
  0.10312499999999999       0.83437499999999998        0.0000000000000000     
  0.10625000000000000       0.85624999999999996        0.0000000000000000     
   8.4375000000000006E-002  0.85312500000000002        0.0000000000000000     
   3.1250000000000000E-002  0.75000000000000000        0.0000000000000000     
   6.2500000000000000E-002  0.75000000000000000        0.0000000000000000     
   6.2500000000000000E-002  0.78125000000000000        0.0000000000000000     
   1.8749999999999999E-002  0.76875000000000004        0.0000000000000000     
   4.0625000000000001E-002  0.77187499999999998        0.0000000000000000     
   4.3749999999999997E-002  0.79374999999999996        0.0000000000000000     
   2.1874999999999999E-002  0.79062500000000002        0.0000000000000000     
   9.3750000000000000E-002  0.75000000000000000        0.0000000000000000     
  0.12500000000000000       0.75000000000000000        0.0000000000000000     
  0.12500000000000000       0.78125000000000000        0.0000000000000000     
   8.1250000000000003E-002  0.76875000000000004        0.0000000000000000     
  0.10312499999999999       0.77187499999999998        0.0000000000000000     
  0.10625000000000000       0.79374999999999996        0.0000000000000000     
   8.4375000000000006E-002  0.79062500000000002        0.0000000000000000     
  0.15625000000000000       0.81250000000000000        0.0000000000000000     
  0.18750000000000000       0.81250000000000000        0.0000000000000000     
  0.18750000000000000       0.84375000000000000        0.0000000000000000     
  0.14374999999999999       0.83125000000000004        0.0000000000000000     
  0.16562499999999999       0.83437499999999998        0.0000000000000000     
  0.16875000000000001       0.85624999999999996        0.0000000000000000     
  0.14687500000000001       0.85312500000000002        0.0000000000000000     
  0.21875000000000000       0.81250000000000000        0.0000000000000000     
  0.25000000000000000       0.81250000000000000        0.0000000000000000     
  0.25000000000000000       0.84375000000000000        0.0000000000000000     
  0.20624999999999999       0.83125000000000004        0.0000000000000000     
  0.22812499999999999       0.83437499999999998        0.0000000000000000     
  0.23125000000000001       0.85624999999999996        0.0000000000000000     
  0.20937500000000001       0.85312500000000002        0.0000000000000000     
  0.15625000000000000       0.75000000000000000        0.0000000000000000     
  0.18750000000000000       0.75000000000000000        0.0000000000000000     
  0.18750000000000000       0.78125000000000000        0.0000000000000000     
  0.14374999999999999       0.76875000000000004        0.0000000000000000     
  0.16562499999999999       0.77187499999999998        0.0000000000000000     
  0.16875000000000001       0.79374999999999996        0.0000000000000000     
  0.14687500000000001       0.79062500000000002        0.0000000000000000     
  0.21875000000000000       0.75000000000000000        0.0000000000000000     
  0.25000000000000000       0.75000000000000000        0.0000000000000000     
  0.25000000000000000       0.78125000000000000        0.0000000000000000     
  0.20624999999999999       0.76875000000000004        0.0000000000000000     
  0.22812499999999999       0.77187499999999998        0.0000000000000000     
  0.23125000000000001       0.79374999999999996        0.0000000000000000     
  0.20937500000000001       0.79062500000000002        0.0000000000000000     
  0.28125000000000000       0.93750000000000000        0.0000000000000000     
  0.31250000000000000       0.93750000000000000        0.0000000000000000     
  0.31250000000000000       0.96875000000000000        0.0000000000000000     
  0.26874999999999999       0.95625000000000004        0.0000000000000000     
  0.29062500000000002       0.95937499999999998        0.0000000000000000     
  0.29375000000000001       0.98124999999999996        0.0000000000000000     
  0.27187499999999998       0.97812500000000002        0.0000000000000000     
  0.34375000000000000       0.93750000000000000        0.0000000000000000     
  0.37500000000000000       0.93750000000000000        0.0000000000000000     
  0.37500000000000000       0.96875000000000000        0.0000000000000000     
  0.33124999999999999       0.95625000000000004        0.0000000000000000     
  0.35312500000000002       0.95937499999999998        0.0000000000000000     
  0.35625000000000001       0.98124999999999996        0.0000000000000000     
[...]
 CELL_DATA        3584
 SCALARS Nutrients float
 LOOKUP_TABLE default
    0.51268696319487816471E+00
    0.51268703480689703511E+00
    0.51268706276330278104E+00
    0.51268707494146670278E+00
    0.51268703881153732116E+00
    0.51268696003120062255E+00
    0.51268696029349591914E+00
    0.51268694199820596946E+00
    0.51268691113709552454E+00
    0.51268691704021129851E+00
    0.51268694623953403600E+00
    0.51268696011562375769E+00
    0.51268699699115283241E+00
    0.51268699759482128098E+00
    0.51268699677534168568E+00
    0.51268693843812329636E+00
    0.51268655376474192575E+00
    0.51268660405182697737E+00
    0.51268690095141034035E+00
    0.51268686912557426272E+00
    0.51268695664185515160E+00
    0.51268697193112189314E+00
    0.51268698494918474307E+00
    0.51268697316492528593E+00
    0.51268705056052343849E+00
    0.51268706287588117210E+00
    0.51268700964218583138E+00
    0.51268699710501874911E+00
    0.51268686523434392477E+00
    0.51268688871754986014E+00
    0.51268658351259988049E+00
    0.51268655628939208135E+00
    0.51268692879451926991E+00
    0.51268697760850956424E+00
    0.51268705945245507394E+00
    0.51268703856521358198E+00
    0.51268695626243865338E+00
    0.51268697594410295171E+00
    0.51268696255610723966E+00
    0.51268694624540844806E+00
    0.51268698670037360365E+00
    0.51268700136074385476E+00
    0.51268420452237473128E+00
    0.51268306849005473858E+00
    0.51267749308809273945E+00
    0.51267750244044163477E+00
    0.51268306641423522230E+00
    0.51268419283603350323E+00
    0.51268611775759920235E+00
    0.51268628777687808018E+00
    0.51268688977429599518E+00
    0.51268689411571655157E+00
    0.51268628804951676958E+00
    0.51268611184483492416E+00
    0.51268523667255760934E+00
    0.51268523713074820591E+00
    0.51268470637547758351E+00
    0.51268456813621887669E+00
    0.51268143932187903999E+00
    0.51268257192537847189E+00
    0.51268520844459974928E+00
    0.51268582798411654888E+00
    0.51268640961063349781E+00
    0.51268651397621778365E+00
    0.51268679732312616437E+00
    0.51268680529133026091E+00
    0.51268650463040710274E+00
    0.51268627206889405556E+00
    0.51268597807752003259E+00
    0.51268607033288615682E+00
    0.51267121456276276703E+00
    0.51267299066224114590E+00
    0.51265983017073923911E+00
    0.51266729396671861796E+00
    0.51267841315641682343E+00
    0.51268203939304390904E+00
    0.51268412718799905026E+00
    0.51268423242188332356E+00
    0.51268552605581529935E+00
    0.51268545696049494520E+00
    0.51268308589315747525E+00
    0.51268079527338783485E+00
    0.51268073106574940656E+00
    0.51268164380256409096E+00
    0.51265063050381820542E+00
    0.51264475115448537856E+00
    0.51260011360358925803E+00
    0.51260921107624712878E+00
    0.51265153873740365587E+00
    0.51266380375297115890E+00
    0.51267759509867916190E+00
    0.51267744104513679471E+00
    0.51268330186565402862E+00
    0.51268289433873170946E+00
    0.51267552560317086741E+00
    0.51267238387081393025E+00
    0.51266609143757413403E+00
    0.51266730711843377932E+00
    0.51244904808321656287E+00
    0.51245275384880550895E+00
    0.51226240386994270626E+00
    0.51234237575886842908E+00
    0.51252118715938377314E+00
    0.51258793638247823754E+00
    0.51264204215891773231E+00
    0.51263406827810831246E+00
    0.51266239368606081328E+00
    0.51265687823486094654E+00
    0.51261115365649312370E+00
    0.51258077029798532198E+00
    0.51256779866313129101E+00
    0.51258069570163267148E+00
    0.51268582241349236472E+00
    0.51268519333889961409E+00
    0.51268254772384547202E+00
    0.51268143576084324042E+00
    0.51268455244515431790E+00
    0.51268467907759929236E+00
    0.51268626100685577018E+00
    0.51268648702722174892E+00
    0.51268678276129098226E+00
    0.51268678398361877679E+00
    0.51268650138630456059E+00
    0.51268639712496222316E+00
    0.51268605622660479160E+00
    0.51268596527925114348E+00
    0.51266380971839098368E+00
    0.51265153637231353212E+00
    0.51260919914407143683E+00
    0.51260012033660917741E+00
    0.51264474609731158772E+00
    0.51265061514919341157E+00
    0.51267238577134532918E+00
    0.51267552259897553046E+00
    0.51268288359213620708E+00
    0.51268329758204411739E+00
    0.51267743247566843756E+00
    0.51267758162834708990E+00
    0.51266730174737418224E+00
    0.51266608831228577259E+00
    0.51268203365033493402E+00
    0.51267839775567303207E+00
    0.51266726955361907603E+00
    0.51265982626278738810E+00
    0.51267297407508194418E+00
    0.51267118535120448364E+00
    0.51268078160704899648E+00
    0.51268306690576781470E+00
    0.51268543317421211292E+00
    0.51268551185870003817E+00
    0.51268421930722796187E+00
    0.51268411442636385722E+00
    0.51268162912351133986E+00
    0.51268071748799992626E+00
    0.51258794229341697601E+00
    0.51252118481813735418E+00
    0.51234236377776420923E+00
    0.51226241042761955224E+00
    0.51245274839414189927E+00
    0.51244903165432320602E+00
    0.51258077023034653852E+00
    0.51261114875715041439E+00
    0.51265686357287210129E+00
    0.51266238717234080546E+00
    0.51263405897667113642E+00
    0.51264202838556227615E+00
    0.51258069015461271700E+00
    0.51256779513362171752E+00
    0.51239912244705188016E+00
    0.51231564018664987881E+00
    0.51196831094077677182E+00
    0.51196831984650048586E+00
    0.51231563771173027622E+00
    0.51239910900337282129E+00
    0.51255641820371855566E+00
    0.51256729698223568725E+00
    0.51263525305588830694E+00
    0.51263525827889966369E+00
    0.51256729603499928682E+00
    0.51255641363969095536E+00
    0.51247397247288506428E+00
    0.51247397316191556360E+00
    0.51075728255856511772E+00
    0.51057618045503871951E+00
    0.50908820639021523657E+00
    0.50942896219082667297E+00
    0.51090927089715920673E+00
    0.51143665835924134733E+00
    0.51205572320114722817E+00
    0.51201864884600833960E+00
    0.51234977042882456910E+00
    0.51231459343105278936E+00
    0.51188682164043752820E+00
    0.51171739327182319546E+00
    0.51144634067338157202E+00
    0.51151315190458634952E+00
    0.51143667157849936888E+00
    0.51090927304791766694E+00
    0.50942895249829667215E+00
    0.50908821618792776675E+00
    0.51057617751719741594E+00
    0.51075726758673156702E+00
    0.51171739628338075434E+00
    0.51188682148201314348E+00
    0.51231458679311636661E+00
    0.51234977460237585145E+00
    0.51201864731056445645E+00
    0.51205571840618502311E+00
    0.51151315069429059701E+00
    0.51144634077166439834E+00
    0.50414146858221564607E+00
    0.50236058754016388317E+00
    0.49607220071974555964E+00
    0.49607221144001184543E+00
    0.50236058291131890918E+00
    0.50414145061783122159E+00
    0.50787603265133873798E+00
    0.50811048883365228512E+00
    0.51019268622389679635E+00
    0.51019269128711963734E+00
    0.50811048826259830324E+00
    0.50787603105821066407E+00
    0.50568596871611104504E+00
    0.50568596902313922570E+00
    0.51263040336645604444E+00
    0.51264350820904236450E+00
    0.51261250367660471383E+00
    0.51263703040079189321E+00
    0.51266423490189827472E+00
    0.51267483394541524255E+00
    0.51267925438811701166E+00
    0.51267857481114620377E+00
    0.51268178501615935261E+00
    0.51268106729411566658E+00
    0.51267268090486950438E+00
    0.51266243843777126177E+00
    0.51266709071735583336E+00
    0.51267079907356372104E+00
    0.51256637357093060015E+00
    0.51260414633612849666E+00
    0.51255917851703192145E+00
    0.51260597440231148170E+00
    0.51264884531737353601E+00
    0.51266765586247009523E+00
    0.51267378539180774588E+00
    0.51267118975048497909E+00
    0.51267597544697529610E+00
    0.51267356157651344795E+00
    0.51265600042664971614E+00
    0.51263024602290396814E+00
    0.51264849749043228666E+00
    0.51265685187782916721E+00
    0.51182281951938024545E+00
    0.51195314290930760137E+00
    0.51151009257743684788E+00
    0.51180639967822960656E+00
    0.51224357854990387739E+00
    0.51244163414518950628E+00
    0.51256489104449942662E+00
    0.51252367971483903109E+00
    0.51259918407315185895E+00
    0.51256955204803988924E+00
    0.51241007179070530153E+00
    0.51226288136772468729E+00
    0.51230609614942479446E+00
    0.51236351621922471278E+00
    0.51083354452923568356E+00
    0.51128591682265145391E+00
    0.51066672497519460805E+00
    0.51126143047788041862E+00
    0.51194286379075681914E+00
    0.51229732895652557723E+00
    0.51247861341041034411E+00
    0.51237901479232261792E+00
    0.51249985114063467684E+00
    0.51241774539611817385E+00
    0.51208512420435114976E+00
    0.51169599082124517242E+00
    0.51194840946847086638E+00
    0.51208387028659752005E+00
    0.51251486703432469483E+00
    0.51257677026574399726E+00
    0.51252837103534831797E+00
    0.51258958089836881289E+00
    0.51264019113944125916E+00
    0.51266393883109129259E+00
    0.51267057202942656335E+00
    0.51266613521597559355E+00
    0.51267123631591116073E+00
    0.51266684367310755288E+00
    0.51264203482719727933E+00
    0.51260097001767324087E+00
    0.51263528154425941352E+00
    0.51264748458473630155E+00
    0.51249395433230826580E+00
    0.51256709922202325913E+00
    0.51251964924421988812E+00
    0.51258549707211431556E+00
    0.51263781786536710694E+00
    0.51266304325412037635E+00
    0.51266963627706074735E+00
    0.51266436975860407710E+00
    0.51266923996159063925E+00
    0.51266373229107065068E+00
    0.51263601724803364856E+00
    0.51258729103302047569E+00
    0.51263049292024087666E+00
    0.51264429273962830447E+00
    0.51004915786389604104E+00
    0.51083121929649211168E+00
    0.51019138447167988737E+00
    0.51098226864016171866E+00
    0.51177752768400242012E+00
    0.51222495537559176171E+00
    0.51242906486081607476E+00
    0.51228187604044406189E+00
    0.51241962333478130454E+00
    0.51228280592338804045E+00
    0.51181669757745162919E+00
    0.51118328754108854906E+00
    0.51169882157085122554E+00
    0.51189985281189021027E+00
    0.50974098526971356460E+00
    0.51067641926786067064E+00
    0.51006158564962511548E+00
    0.51091544856858428503E+00
    0.51173364674051824430E+00
    0.51220822844521707307E+00
    0.51241512583673531900E+00
    0.51224920385844485704E+00
    0.51238682250730505086E+00
    0.51222207646947348625E+00
    0.51170479136174240598E+00
    0.51094980981228799166E+00
    0.51161156674696017799E+00
    0.51183944974450645837E+00
    0.50555004033089112614E+00
    0.50597362218900265862E+00
    0.50259414161084348116E+00
    0.50427877539610255209E+00
    0.50786718859355794997E+00
    0.50956345455803897515E+00
    0.51095028558000721297E+00
    0.51059338431284628790E+00
    0.51146299932222227813E+00
    0.51120673991425769067E+00
    0.50971273937452532543E+00
    0.50871727076211126217E+00
    0.50865735653675603345E+00
    0.50905887918828029992E+00
    0.49730052257741230726E+00
    0.49984943490599009763E+00
    0.49537833577890788561E+00
    0.49910666828805599904E+00
    0.50458955734345500854E+00
    0.50773820541932945805E+00
    0.50972000157312558066E+00
    0.50872443862781757673E+00
    0.51006020092638615360E+00
    0.50926270518334548765E+00
    0.50618664747443864460E+00
    0.50330169861790319263E+00
    0.50485099857805904033E+00
    0.50590708076267887350E+00
    0.48066999482631472818E+00
    0.47945403414938930764E+00
    0.46566346649005335712E+00
    0.46948157885802377365E+00
    0.48438933859886490474E+00
    0.49119526857483336579E+00
    0.49928365424319565147E+00
    0.49815090198153555434E+00
    0.50346038472074228221E+00
    0.50257245858298005281E+00
    0.49541564891226097522E+00
    0.49260159813718079613E+00
    0.48964564065802201887E+00
    0.49077053305215351253E+00
    0.44338205750054648924E+00
    0.44911780778506449341E+00
    0.43221125240951535629E+00
    0.44314610573001878002E+00
    0.46518157121579234436E+00
    0.47876617996592907289E+00
    0.48979644994533261260E+00
    0.48512208288911673471E+00
    0.49278135185262739171E+00
    0.48913025850590258203E+00
    0.47480548098543723379E+00
    0.46477265346884005792E+00
    0.46783362755677709854E+00
    0.47171203417234558453E+00
    0.49086932891930823430E+00
    0.49576966297400398842E+00
    0.49141695009415942152E+00
    0.49653735642141288986E+00
    0.50282852794705668042E+00
    0.50685012249889216385E+00
    0.50903037391131245037E+00
    0.50749186517246103190E+00
    0.50894434737922877865E+00
    0.50755550206299482330E+00
    0.50332142136620772188E+00
    0.49844748527782506420E+00
    0.50224971412093966094E+00
    0.50387841648390319094E+00
    0.48841926154816761585E+00
    0.49442842049323787457E+00
    0.49036991737185864348E+00
    0.49594441748817225113E+00
    0.50237492383197468460E+00
    0.50665220907408958784E+00
    0.50884300676303428901E+00
    0.50709007569766051393E+00
    0.50850344422822446599E+00
    0.50681016230929032407E+00
    0.50216555873174739677E+00
    0.49629424834859364735E+00
    0.50137108109748251827E+00
    0.50323560536611500194E+00
    0.41487462020333237822E+00
    0.42939867806287645990E+00
    0.41435248437556004841E+00
    0.43044655640192280854E+00
    0.45509884429879948753E+00
    0.47289486716799472577E+00
    0.48461115504324847603E+00
    0.47669431471813850099E+00
    0.48443939096666277511E+00
    0.47750709077764902366E+00
    0.45837062882304879796E+00
    0.44012821885918618214E+00
    0.45325922068275298349E+00
    0.45972651332918612610E+00
    0.40428740012470704146E+00
    0.42308895204192581430E+00
    0.40972999874894094896E+00
    0.42758226055435449853E+00
    0.45255536627968456775E+00
    0.47162254796475300278E+00
    0.48324413622152512238E+00
    0.47401854157225681297E+00
    0.48124885262747135739E+00
    0.47258046504353035111E+00
    0.45193528496706647513E+00
    0.42946536222740838706E+00
    0.44847323982212528026E+00
    0.45603462899370311723E+00
    0.51267482819095033797E+00
    0.51266421948241069906E+00
    0.51263700596530059617E+00
    0.51261249974251343886E+00
    0.51264349158809585649E+00
    0.51263037410365730473E+00
    0.51266242463994426970E+00
    0.51267266183582516081E+00
    0.51268104339847930806E+00
    0.51268177075003518173E+00
    0.51267856166092218295E+00
    0.51267924160866518157E+00
    0.51267078436316093626E+00
    0.51266707709967263007E+00
    0.51244163997232206054E+00
    0.51224357617591453895E+00
    0.51180638785829424275E+00
    0.51151009948403125538E+00
    0.51195313759329841297E+00
    0.51182280298915716621E+00
    0.51226288124517693756E+00
    0.51241006683981671355E+00
    0.51256953735726484833E+00
    0.51259917752377748279E+00
    0.51252367036013013468E+00
    0.51256487723498045384E+00
    0.51236351053322592985E+00
    0.51230609249823300111E+00
    0.51266765009543069365E+00
    0.51264882987837334660E+00
    0.51260594995830199849E+00
    0.51255917448445798001E+00
    0.51260412965440571575E+00
    0.51256634421804925239E+00
    0.51263023219262648933E+00
    0.51265598133996270747E+00
    0.51267353767146861543E+00
    0.51267596117387626009E+00
    0.51267117659081440362E+00
    0.51267377260435742503E+00
    0.51265683714907051005E+00
    0.51264848384803585191E+00
    0.51229733453660408760E+00
    0.51194286089251284100E+00
    0.51126141762013110892E+00
    0.51066673193642397877E+00
    0.51128591031598424888E+00
    0.51083352681382321325E+00
    0.51169599085527484039E+00
    0.51208511896544905984E+00
    0.51241773057327533181E+00
    0.51249984444024221375E+00
    0.51237900502920830093E+00
    0.51247859941880824497E+00
    0.51208386375745096331E+00
    0.51194840491995141640E+00
    0.50956346890311643438E+00
    0.50786719011187531070E+00
    0.50427876202646837456E+00
    0.50259414865953644380E+00
    0.50597361610683400102E+00
    0.50555002374128543696E+00
    0.50871727247709341846E+00
    0.50971273851793263976E+00
    0.51120673305823360888E+00
    0.51146300325844562540E+00
    0.51059338203212567553E+00
    0.51095028079158844037E+00
    0.50905887663346793826E+00
    0.50865735490659114149E+00
    0.49119528969018827480E+00
    0.48438934231551572518E+00
    0.46948156505084587264E+00
    0.46566347380143652268E+00
    0.47945402533108594234E+00
    0.48066997450540027703E+00
    0.49260159664304475902E+00
    0.49541564683938382752E+00
    0.50257245610275547154E+00
    0.50346038977083451549E+00
    0.49815090097140146685E+00
    0.49928365260756552013E+00
    0.49077053025931655084E+00
    0.48964563748880007843E+00
    0.50773822201924301289E+00
    0.50458955888173362414E+00
    0.49910665364481621165E+00
    0.49537834224088039825E+00
    0.49984942895245904060E+00
    0.49730050737470221645E+00
    0.50330169708835348352E+00
    0.50618664465877416525E+00
    0.50926269969193349585E+00
    0.51006020439722887794E+00
    0.50872443631808816900E+00
    0.50971999818274560390E+00
    0.50590707740628304556E+00
    0.50485099578568959355E+00
    0.47876620345568299264E+00
    0.46518157689985922820E+00
    0.44314609323173836941E+00
    0.43221126174314039581E+00
    0.44911780444677612545E+00
    0.44338204611374565367E+00
    0.46477265206701423583E+00
    0.47480548122044607950E+00
    0.48913026018947552975E+00
    0.49278135993793914515E+00
    0.48512208397394662729E+00
    0.48979644892719009786E+00
    0.47171203377218706709E+00
    0.46783362734055061738E+00
    0.51266393306976343336E+00
    0.51264017572434061876E+00
    0.51258955659173122132E+00
    0.51252836691805891967E+00
    0.51257675352646359102E+00
    0.51251483771336225903E+00
    0.51260095630653623733E+00
    0.51264201573771961407E+00
    0.51266681975603889398E+00
    0.51267122203161308303E+00
    0.51266612204281458709E+00
    0.51267055923574278431E+00
    0.51264746983580466999E+00
    0.51263526786921365108E+00
    0.51222496073124523797E+00
    0.51177752444330770754E+00
    0.51098225483797643509E+00
    0.51019139055037909802E+00
    0.51083121220548244334E+00
    0.51004914087974939640E+00
    0.51118328679487767818E+00
    0.51181669183283307056E+00
    0.51228279087774442058E+00
    0.51241961643487965450E+00
    0.51228186561573119118E+00
    0.51242905063626742468E+00
    0.51189984523337306310E+00
    0.51169881600227384855E+00
    0.51266303749662722744E+00
    0.51263780246291090759E+00
    0.51258547278921295920E+00
    0.51251964510245739959E+00
    0.51256708258747640805E+00
    0.51249392529822501707E+00
    0.51258727765906186846E+00
    0.51263599827865979908E+00
    0.51266370839214581157E+00
    0.51266922568125450344E+00
    0.51266435658982145718E+00
    0.51266962348427425056E+00
    0.51264427801337020263E+00
    0.51263047929606098130E+00
    0.51220823369527757052E+00
    0.51173364376240171314E+00
    0.51091543557615037852E+00
    0.51006159095838499162E+00
    0.51067641219516735074E+00
    0.50974096857157125129E+00
    0.51094980817087365388E+00
    0.51170478487380322008E+00
    0.51222206109679879749E+00
    0.51238681555440757087E+00
    0.51224919330591323074E+00
    0.51241511146055018777E+00
    0.51183944201344822034E+00
    0.51161156089988835127E+00
    0.50685013960808766864E+00
    0.50282852950057399521E+00
    0.49653734105470270777E+00
    0.49141695639437366072E+00
    0.49576965747345164148E+00
    0.49086931477539924584E+00
    0.49844748275326949960E+00
    0.50332141883594083698E+00
    0.50755549893705753650E+00
    0.50894435221545519799E+00
    0.50749186330871343120E+00
    0.50903037033297959812E+00
    0.50387841324846383007E+00
    0.50224971146732588778E+00
    0.47289488993428158148E+00
    0.45509884977392184302E+00
    0.43044654224758444050E+00
    0.41435249293556897232E+00
    0.42939867575869744565E+00
    0.41487461083804055839E+00
    0.44012821872217211538E+00
    0.45837063084099782806E+00
    0.47750709510573430272E+00
    0.48443940095136467372E+00
    0.47669431696843272972E+00
    0.48461115410605443143E+00