# vtk DataFile Version 3.0
LAPLACIEN  2D
ASCII
DATASET UNSTRUCTURED_GRID
 POINTS        1857  float
   3.1250000000000000E-002  0.93750000000000000        0.0000000000000000     
   6.2500000000000000E-002  0.93750000000000000        0.0000000000000000     
   6.2500000000000000E-002  0.96875000000000000        0.0000000000000000     
   1.8749999999999999E-002  0.95625000000000004        0.0000000000000000     
   4.0625000000000001E-002  0.95937499999999998        0.0000000000000000     
   4.3749999999999997E-002  0.98124999999999996        0.0000000000000000     
   2.1874999999999999E-002  0.97812500000000002        0.0000000000000000     
   9.3750000000000000E-002  0.93750000000000000        0.0000000000000000     
  0.12500000000000000       0.93750000000000000        0.0000000000000000     
  0.12500000000000000       0.96875000000000000        0.0000000000000000     
   8.1250000000000003E-002  0.95625000000000004        0.0000000000000000     
  0.10312499999999999       0.95937499999999998        0.0000000000000000     
  0.10625000000000000       0.98124999999999996        0.0000000000000000     
   8.4375000000000006E-002  0.97812500000000002        0.0000000000000000     
   3.1250000000000000E-002  0.87500000000000000        0.0000000000000000     
   6.2500000000000000E-002  0.87500000000000000        0.0000000000000000     
   6.2500000000000000E-002  0.90625000000000000        0.0000000000000000     
   1.8749999999999999E-002  0.89375000000000004        0.0000000000000000     
   4.0625000000000001E-002  0.89687499999999998        0.0000000000000000     
   4.3749999999999997E-002  0.91874999999999996        0.0000000000000000     
   2.1874999999999999E-002  0.91562500000000002        0.0000000000000000     
   9.3750000000000000E-002  0.87500000000000000        0.0000000000000000     
  0.12500000000000000       0.87500000000000000        0.0000000000000000     
  0.12500000000000000       0.90625000000000000        0.0000000000000000     
   8.1250000000000003E-002  0.89375000000000004        0.0000000000000000     
  0.10312499999999999       0.89687499999999998        0.0000000000000000     
  0.10625000000000000       0.91874999999999996        0.0000000000000000     
   8.4375000000000006E-002  0.91562500000000002        0.0000000000000000     
  0.15625000000000000       0.93750000000000000        0.0000000000000000     
  0.18750000000000000       0.93750000000000000        0.0000000000000000     
  0.18750000000000000       0.96875000000000000        0.0000000000000000     
  0.14374999999999999       0.95625000000000004        0.0000000000000000     
  0.16562499999999999       0.95937499999999998        0.0000000000000000     
  0.16875000000000001       0.98124999999999996        0.0000000000000000     
  0.14687500000000001       0.97812500000000002        0.0000000000000000     
  0.21875000000000000       0.93750000000000000        0.0000000000000000     
  0.25000000000000000       0.93750000000000000        0.0000000000000000     
  0.25000000000000000       0.96875000000000000        0.0000000000000000     
  0.20624999999999999       0.95625000000000004        0.0000000000000000     
  0.22812499999999999       0.95937499999999998        0.0000000000000000     
  0.23125000000000001       0.98124999999999996        0.0000000000000000     
  0.20937500000000001       0.97812500000000002        0.0000000000000000     
  0.15625000000000000       0.87500000000000000        0.0000000000000000     
  0.18750000000000000       0.87500000000000000        0.0000000000000000     
  0.18750000000000000       0.90625000000000000        0.0000000000000000     
  0.14374999999999999       0.89375000000000004        0.0000000000000000     
  0.16562499999999999       0.89687499999999998        0.0000000000000000     
  0.16875000000000001       0.91874999999999996        0.0000000000000000     
  0.14687500000000001       0.91562500000000002        0.0000000000000000     
  0.21875000000000000       0.87500000000000000        0.0000000000000000     
  0.25000000000000000       0.87500000000000000        0.0000000000000000     
  0.25000000000000000       0.90625000000000000        0.0000000000000000     
  0.20624999999999999       0.89375000000000004        0.0000000000000000     
  0.22812499999999999       0.89687499999999998        0.0000000000000000     
  0.23125000000000001       0.91874999999999996        0.0000000000000000     
  0.20937500000000001       0.91562500000000002        0.0000000000000000     
   3.1250000000000000E-002  0.81250000000000000        0.0000000000000000     
   6.2500000000000000E-002  0.81250000000000000        0.0000000000000000     
   6.2500000000000000E-002  0.84375000000000000        0.0000000000000000     
   1.8749999999999999E-002  0.83125000000000004        0.0000000000000000     
   4.0625000000000001E-002  0.83437499999999998        0.0000000000000000     
   4.3749999999999997E-002  0.85624999999999996        0.0000000000000000     
   2.1874999999999999E-002  0.85312500000000002        0.0000000000000000     
   9.3750000000000000E-002  0.81250000000000000        0.0000000000000000     
  0.12500000000000000       0.81250000000000000        0.0000000000000000     
  0.12500000000000000       0.84375000000000000        0.0000000000000000     
   8.1250000000000003E-002  0.83125000000000004        0.0000000000000000     
  0.10312499999999999       0.83437499999999998        0.0000000000000000     
  0.10625000000000000       0.85624999999999996        0.0000000000000000     
   8.4375000000000006E-002  0.85312500000000002        0.0000000000000000     
   3.1250000000000000E-002  0.75000000000000000        0.0000000000000000     
   6.2500000000000000E-002  0.75000000000000000        0.0000000000000000     
   6.2500000000000000E-002  0.78125000000000000        0.0000000000000000     
   1.8749999999999999E-002  0.76875000000000004        0.0000000000000000     
   4.0625000000000001E-002  0.77187499999999998        0.0000000000000000     
   4.3749999999999997E-002  0.79374999999999996        0.0000000000000000     
   2.1874999999999999E-002  0.79062500000000002        0.0000000000000000     
   9.3750000000000000E-002  0.75000000000000000        0.0000000000000000     
  0.12500000000000000       0.75000000000000000        0.0000000000000000     
  0.12500000000000000       0.78125000000000000        0.0000000000000000     
   8.1250000000000003E-002  0.76875000000000004        0.0000000000000000     
  0.10312499999999999       0.77187499999999998        0.0000000000000000     
  0.10625000000000000       0.79374999999999996        0.0000000000000000     
   8.4375000000000006E-002  0.79062500000000002        0.0000000000000000     
  0.15625000000000000       0.81250000000000000        0.0000000000000000     
  0.18750000000000000       0.81250000000000000        0.0000000000000000     
  0.18750000000000000       0.84375000000000000        0.0000000000000000     
  0.14374999999999999       0.83125000000000004        0.0000000000000000     
  0.16562499999999999       0.83437499999999998        0.0000000000000000     
  0.16875000000000001       0.85624999999999996        0.0000000000000000     
  0.14687500000000001       0.85312500000000002        0.0000000000000000     
  0.21875000000000000       0.81250000000000000        0.0000000000000000     
  0.25000000000000000       0.81250000000000000        0.0000000000000000     
  0.25000000000000000       0.84375000000000000        0.0000000000000000     
  0.20624999999999999       0.83125000000000004        0.0000000000000000     
  0.22812499999999999       0.83437499999999998        0.0000000000000000     
  0.23125000000000001       0.85624999999999996        0.0000000000000000     
  0.20937500000000001       0.85312500000000002        0.0000000000000000     
  0.15625000000000000       0.75000000000000000        0.0000000000000000     
  0.18750000000000000       0.75000000000000000        0.0000000000000000     
  0.18750000000000000       0.78125000000000000        0.0000000000000000     
  0.14374999999999999       0.76875000000000004        0.0000000000000000     
  0.16562499999999999       0.77187499999999998        0.0000000000000000     
  0.16875000000000001       0.79374999999999996        0.0000000000000000     
  0.14687500000000001       0.79062500000000002        0.0000000000000000     
  0.21875000000000000       0.75000000000000000        0.0000000000000000     
  0.25000000000000000       0.75000000000000000        0.0000000000000000     
  0.25000000000000000       0.78125000000000000        0.0000000000000000     
  0.20624999999999999       0.76875000000000004        0.0000000000000000     
  0.22812499999999999       0.77187499999999998        0.0000000000000000     
  0.23125000000000001       0.79374999999999996        0.0000000000000000     
  0.20937500000000001       0.79062500000000002        0.0000000000000000     
  0.28125000000000000       0.93750000000000000        0.0000000000000000     
  0.31250000000000000       0.93750000000000000        0.0000000000000000     
  0.31250000000000000       0.96875000000000000        0.0000000000000000     
  0.26874999999999999       0.95625000000000004        0.0000000000000000     
  0.29062500000000002       0.95937499999999998        0.0000000000000000     
  0.29375000000000001       0.98124999999999996        0.0000000000000000     
  0.27187499999999998       0.97812500000000002        0.0000000000000000     
  0.34375000000000000       0.93750000000000000        0.0000000000000000     
  0.37500000000000000       0.93750000000000000        0.0000000000000000     
  0.37500000000000000       0.96875000000000000        0.0000000000000000     
  0.33124999999999999       0.95625000000000004        0.0000000000000000     
  0.35312500000000002       0.95937499999999998        0.0000000000000000     
  0.35625000000000001       0.98124999999999996        0.0000000000000000     
[...]
 CELL_DATA        3584
 SCALARS Nutrients float
 LOOKUP_TABLE default
    0.50358780367070421491E+00
    0.50358787470337185166E+00
    0.50358787669458138225E+00
    0.50358788486961136854E+00
    0.50358787267148064082E+00
    0.50358779296623301658E+00
    0.50358778069927523369E+00
    0.50358778114187641162E+00
    0.50358772730366041515E+00
    0.50358772998490208828E+00
    0.50358778252446012580E+00
    0.50358778319192021300E+00
    0.50358786528318477682E+00
    0.50358786561034718510E+00
    0.50358790943798537043E+00
    0.50358791569896910190E+00
    0.50358789393565317472E+00
    0.50358789161908001919E+00
    0.50358787847455066533E+00
    0.50358779446709944771E+00
    0.50358778581986884948E+00
    0.50358780000257097331E+00
    0.50358779683127352644E+00
    0.50358780267329816827E+00
    0.50358788057741488142E+00
    0.50358788310291568990E+00
    0.50358789324801234155E+00
    0.50358788214352678825E+00
    0.50358780455231144657E+00
    0.50358787993367470914E+00
    0.50358788324852032936E+00
    0.50358790073103631979E+00
    0.50358790799227881596E+00
    0.50358788927726805262E+00
    0.50358788573468848959E+00
    0.50358787800845128402E+00
    0.50358779390445052027E+00
    0.50358779389570929030E+00
    0.50358779805888131964E+00
    0.50358778643599599878E+00
    0.50358788049713709700E+00
    0.50358789232847522843E+00
    0.50358791619579135190E+00
    0.50358793005928315090E+00
    0.50358790365238625952E+00
    0.50358791069622921288E+00
    0.50358792326061774247E+00
    0.50358789769451639540E+00
    0.50358790524899277319E+00
    0.50358792718435596569E+00
    0.50358790644428808037E+00
    0.50358790867348079967E+00
    0.50358792338916436027E+00
    0.50358790030903366475E+00
    0.50358792783687877925E+00
    0.50358792832650745019E+00
    0.50358791033195626774E+00
    0.50358791564150340303E+00
    0.50358789382348523311E+00
    0.50358789150381366717E+00
    0.50358787823167627806E+00
    0.50358779430293010293E+00
    0.50358778547632343514E+00
    0.50358779938530229270E+00
    0.50358779601382241964E+00
    0.50358780258912816397E+00
    0.50358788079100924584E+00
    0.50358788611813665170E+00
    0.50358789293254413444E+00
    0.50358788171863144711E+00
    0.50358791028767246889E+00
    0.50358791561906535161E+00
    0.50358789376278101368E+00
    0.50358789148395655122E+00
    0.50358787822597150807E+00
    0.50358779430122757592E+00
    0.50358778547281368709E+00
    0.50358779937235387258E+00
    0.50358779597421232666E+00
    0.50358780250408397006E+00
    0.50358788074562677028E+00
    0.50358788604509652220E+00
    0.50358789291645766895E+00
    0.50358788170875945500E+00
    0.50358791748006603850E+00
    0.50358793005217972194E+00
    0.50358790213050486084E+00
    0.50358790967461208865E+00
    0.50358792303293498094E+00
    0.50358789758633470957E+00
    0.50358790517091711614E+00
    0.50358792735918689321E+00
    0.50358790761006222425E+00
    0.50358791239720834820E+00
    0.50358792532437612888E+00
    0.50358790518379803469E+00
    0.50358792812219244084E+00
    0.50358792837296739719E+00
    0.50358790154040189435E+00
    0.50358791566620519919E+00
    0.50358784141567647374E+00
    0.50358788262482367948E+00
    0.50358791766517096988E+00
    0.50358789631747691296E+00
    0.50358790494784544389E+00
    0.50358792700371757256E+00
    0.50358790752885718156E+00
    0.50358791224228827144E+00
    0.50358792436501376155E+00
    0.50358790251882012967E+00
    0.50358792535735208418E+00
    0.50358792664629958846E+00
    0.50358780440245254351E+00
    0.50358787972278484801E+00
    0.50358788315271862945E+00
    0.50358790063404967885E+00
    0.50358790796874719486E+00
    0.50358789010437221556E+00
    0.50358788880013538591E+00
    0.50358787828181639235E+00
    0.50358779359988181668E+00
    0.50358779301058298472E+00
    0.50358779746036397285E+00
    0.50358778611117438473E+00
    0.50358788013014543772E+00
    0.50358789208184895347E+00
    0.50358791609396547084E+00
    0.50358792985128320030E+00
    0.50358790265364372640E+00
    0.50358790920558405002E+00
    0.50358792330168844487E+00
    0.50358789893733291176E+00
    0.50358791013294978978E+00
    0.50358792899405047105E+00
    0.50358790932657293560E+00
    0.50358790956921550830E+00
    0.50358792347433778414E+00
    0.50358790022351818116E+00
    0.50358792789369555276E+00
    0.50358792863224965952E+00
    0.50358780440096295727E+00
    0.50358787971752005941E+00
    0.50358788313313596063E+00
    0.50358790057399216433E+00
    0.50358790794853514061E+00
    0.50358789006562654222E+00
    0.50358788874036952699E+00
    0.50358787824289308332E+00
    0.50358779352268234764E+00
    0.50358779297452860302E+00
    0.50358779744868775730E+00
    0.50358778610802346076E+00
    0.50358788012161459502E+00
    0.50358789206805665284E+00
    0.50358791482543219242E+00
    0.50358792448417011300E+00
    0.50358787560424544960E+00
    0.50358784849161930541E+00
    0.50358790891855131910E+00
    0.50358788300481371891E+00
    0.50358790748327186826E+00
    0.50358792804165464219E+00
    0.50358790917747531246E+00
    0.50358790949243670276E+00
    0.50358792312076949838E+00
    0.50358790000108977214E+00
    0.50358792616883951698E+00
    0.50358792587022827014E+00
    0.50358788921669017657E+00
    0.50358786890315176965E+00
    0.50358762567709269842E+00
    0.50358763272847573145E+00
    0.50358786212677886240E+00
    0.50358787065757626422E+00
    0.50358790521676755070E+00
    0.50358792561663412446E+00
    0.50358791029737570710E+00
    0.50358791312457196199E+00
    0.50358792190062695582E+00
    0.50358790028364852631E+00
    0.50358791356587151444E+00
    0.50358791405695479959E+00
    0.50358438595731669363E+00
    0.50358340909383159101E+00
    0.50357157077901515407E+00
    0.50357709175029352622E+00
    0.50358523327701720795E+00
    0.50358697219276382651E+00
    0.50358771724636186562E+00
    0.50358769715200479844E+00
    0.50358786710524250374E+00
    0.50358785136243078284E+00
    0.50358753827484292742E+00
    0.50358718932773316457E+00
    0.50358678846568605270E+00
    0.50358702620849749021E+00
    0.50358699075244151011E+00
    0.50358524005450266969E+00
    0.50357708469985862365E+00
    0.50357157783268879925E+00
    0.50358340232059584096E+00
    0.50358436740517742436E+00
    0.50358719427669640378E+00
    0.50358754199990241052E+00
    0.50358784854655758156E+00
    0.50358786993922888264E+00
    0.50358769343872744617E+00
    0.50358771231415933034E+00
    0.50358702571981339702E+00
    0.50358678896033381989E+00
    0.50343349075915821977E+00
    0.50330654094028370871E+00
    0.50272271662308121165E+00
    0.50272272367943926508E+00
    0.50330653415236814574E+00
    0.50343347218842116053E+00
    0.50354838897779363727E+00
    0.50355293072057316639E+00
    0.50358035856015548326E+00
    0.50358036138223183364E+00
    0.50355292699868503536E+00
    0.50354838403510049361E+00
    0.50348720214555886532E+00
    0.50348720263547419584E+00
    0.50358791003996405955E+00
    0.50358791551538983899E+00
    0.50358789336775200418E+00
    0.50358789138189596901E+00
    0.50358787820834594040E+00
    0.50358779429853983700E+00
    0.50358778547220428567E+00
    0.50358779937099962254E+00
    0.50358779597367397951E+00
    0.50358780250264356670E+00
    0.50358788073725935241E+00
    0.50358788600729220697E+00
    0.50358789289973115988E+00
    0.50358788170128176986E+00
    0.50358790925705110286E+00
    0.50358791529449797864E+00
    0.50358789278440507786E+00
    0.50358789125264546982E+00
    0.50358787818504457956E+00
    0.50358779429542210870E+00
    0.50358778547137794668E+00
    0.50358779936843423020E+00
    0.50358779597272163020E+00
    0.50358780249943146945E+00
    0.50358788071132110087E+00
    0.50358788587421898786E+00
    0.50358789286301886001E+00
    0.50358788168671775320E+00
    0.50358761836806498202E+00
    0.50358776270877092518E+00
    0.50358734662030579798E+00
    0.50358771559627057979E+00
    0.50358788199072679337E+00
    0.50358788937056186974E+00
    0.50358790349941251474E+00
    0.50358792359027793051E+00
    0.50358790672985098702E+00
    0.50358791012960268940E+00
    0.50358790916690709949E+00
    0.50358784970473002840E+00
    0.50358789465885644976E+00
    0.50358791026425875348E+00
    0.50358662733569403702E+00
    0.50358741677229712508E+00
    0.50358659356353341341E+00
    0.50358750479492642160E+00
    0.50358783394275086209E+00
    0.50358788132256115944E+00
    0.50358790139702547251E+00
    0.50358791640361566522E+00
    0.50358790423633104094E+00
    0.50358790187834467922E+00
    0.50358785578523623805E+00
    0.50358763448329690871E+00
    0.50358782230058929397E+00
    0.50358787647415004241E+00
    0.50358790873885406203E+00
    0.50358791518578815971E+00
    0.50358789261240122226E+00
    0.50358789121865499272E+00
    0.50358787817862282754E+00
    0.50358779429464395339E+00
    0.50358778547111360258E+00
    0.50358779936727793292E+00
    0.50358779597207770085E+00
    0.50358780249687395969E+00
    0.50358788069269488918E+00
    0.50358788576898161349E+00
    0.50358789284455196533E+00
    0.50358788168015300446E+00
    0.50358790867503222533E+00
    0.50358791517488132872E+00
    0.50358789260317082803E+00
    0.50358789121701597047E+00
    0.50358787817828820632E+00
    0.50358779429461175692E+00
    0.50358778547109950274E+00
    0.50358779936717068537E+00
    0.50358779597197922406E+00
    0.50358780249643098070E+00
    0.50358788068988469266E+00
    0.50358788575143986765E+00
    0.50358789284265936814E+00
    0.50358788167954415815E+00
    0.50358599871236520151E+00
    0.50358725804901038892E+00
    0.50358639681082428829E+00
    0.50358745712124652893E+00
    0.50358782219666664570E+00
    0.50358787958875084190E+00
    0.50358790077617698877E+00
    0.50358791337924069254E+00
    0.50358790256869934154E+00
    0.50358789526128289182E+00
    0.50358781818581499490E+00
    0.50358746308635282674E+00
    0.50358778803150971992E+00
    0.50358786233647523378E+00
    0.50358593734470646908E+00
    0.50358724567501766956E+00
    0.50358638894353957571E+00
    0.50358745546180594399E+00
    0.50358782172449556569E+00
    0.50358787952708006230E+00
    0.50358790074260095793E+00
    0.50358791315881934469E+00
    0.50358790235566408544E+00
    0.50358789426857386573E+00
    0.50358781339919500564E+00
    0.50358743823826657149E+00
    0.50358778524584246750E+00
    0.50358786131071997527E+00
    0.50350189344471141251E+00
    0.50352315721643170487E+00
    0.50341011217547992906E+00
    0.50350145110423416561E+00
    0.50356426374183527184E+00
    0.50358133362600987493E+00
    0.50358624969683396522E+00
    0.50358488650517263530E+00
    0.50358712093024360357E+00
    0.50358638216283779787E+00
    0.50357944627100914570E+00
    0.50356736716147465494E+00
    0.50357072513428446925E+00
    0.50357649887582223158E+00
    0.50317906189579875154E+00
    0.50337821194243947964E+00
    0.50315876596547570720E+00
    0.50340797088884869925E+00
    0.50353564031388542421E+00
    0.50357493562942190479E+00
    0.50358406748884854132E+00
    0.50357858921194476043E+00
    0.50358454825896592499E+00
    0.50357976919507030367E+00
    0.50354768513234449134E+00
    0.50347206781437325862E+00
    0.50352995473750827848E+00
    0.50355357962210678391E+00
    0.49879588076742148450E+00
    0.49855714357356284427E+00
    0.49237603518790568069E+00
    0.49564050145740362607E+00
    0.50060476892419980555E+00
    0.50234008474771663089E+00
    0.50317860274016179556E+00
    0.50300969497054315305E+00
    0.50340936784214063149E+00
    0.50333915976433740713E+00
    0.50260602015145439125E+00
    0.50204505552821987457E+00
    0.50165353385771549455E+00
    0.50199105293819001883E+00
    0.47904587955738131555E+00
    0.48673341058523433844E+00
    0.47659646969233115943E+00
    0.48742789091163279958E+00
    0.49692684399710435050E+00
    0.50115674983211855320E+00
    0.50262132971981254848E+00
    0.50172293186525174224E+00
    0.50275216014289947353E+00
    0.50207933694950990233E+00
    0.49851082736531754369E+00
    0.49345998828209458598E+00
    0.49672927008546979843E+00
    0.49860358641626240095E+00
    0.50298815781415262549E+00
    0.50331829996991761522E+00
    0.50310299517023993054E+00
    0.50339081976471822255E+00
    0.50352962511311438742E+00
    0.50357379406537228217E+00
    0.50358349893870635317E+00
    0.50357618179974394934E+00
    0.50358289475903161847E+00
    0.50357449369004603223E+00
    0.50352612662881135464E+00
    0.50339590503690434531E+00
    0.50351227018036137650E+00
    0.50354495738303284291E+00
    0.50297442137244430249E+00
    0.50331495770682843638E+00
    0.50310138108103641397E+00
    0.50339040717517824497E+00
    0.50352944418399903093E+00
    0.50357376471212256241E+00
    0.50358347619920673655E+00
    0.50357605083433532034E+00
    0.50358272556479122262E+00
    0.50357383711562520023E+00
    0.50352393597024713845E+00
    0.50338670310444200151E+00
    0.50351119983771575050E+00
    0.50354450193103617028E+00
    0.46879166475841649309E+00
    0.48260717933324703832E+00
    0.47378282939960353337E+00
    0.48629666087095924087E+00
    0.49628441340645035318E+00
    0.50099107893499883470E+00
    0.50249906492450169271E+00
    0.50129256521481113662E+00
    0.50235747898526073030E+00
    0.50110278115203177318E+00
    0.49593854071425486074E+00
    0.48673762864723457700E+00
    0.49487099303345599699E+00
    0.49751830705273925037E+00
    0.46826842474349938961E+00
    0.48245134436873365891E+00
    0.47372357878237436601E+00
    0.48627799864745635539E+00
    0.49627000380265018364E+00
    0.50098803102953137767E+00
    0.50249555509763565997E+00
    0.50127535823089064415E+00
    0.50232739394890202345E+00
    0.50100770837977492977E+00
    0.49574464011410618314E+00
    0.48609920517775662141E+00
    0.49479040244161948126E+00
    0.49747842578959011739E+00
    0.50358780439829831099E+00
    0.50358787969995588707E+00
    0.50358788303120560759E+00
    0.50358790017902976821E+00
    0.50358790784492046821E+00
    0.50358788981800106654E+00
    0.50358788870270543292E+00
    0.50358787823462836108E+00
    0.50358779352142579722E+00
    0.50358779297409883569E+00
    0.50358779744737991457E+00
    0.50358778610744348025E+00
    0.50358788011418442743E+00
    0.50358789205138421163E+00
    0.50358790787856588800E+00
    0.50358788880980054348E+00
    0.50358770857583701197E+00
    0.50358735369636498103E+00
    0.50358775596121840845E+00
    0.50358759983258416515E+00
    0.50358785466936872854E+00
    0.50358791284364112784E+00
    0.50358790706500466960E+00
    0.50358790869352554331E+00
    0.50358791970737559751E+00
    0.50358789855271457458E+00
    0.50358790978686118756E+00
    0.50358789517181268280E+00
    0.50358780439518058269E+00
    0.50358787967665885610E+00
    0.50358788290195777293E+00
    0.50358789959568472927E+00
    0.50358790762404892494E+00
    0.50358788903512652357E+00
    0.50358788856971392622E+00
    0.50358787820873640584E+00
    0.50358779351823512727E+00
    0.50358779297315792167E+00
    0.50358779744482173868E+00
    0.50358778610661691921E+00
    0.50358788009963173504E+00
    0.50358789201469378316E+00
    0.50358789983058327433E+00
    0.50358784076183382705E+00
    0.50358749777449518525E+00
    0.50358660063959481690E+00
    0.50358741002469886716E+00
    0.50358660880013905725E+00
    0.50358763944800677415E+00
    0.50358785946202444528E+00
    0.50358789881378029918E+00
    0.50358790620003690552E+00
    0.50358791252071566369E+00
    0.50358789645033097404E+00
    0.50358787599674603719E+00
    0.50358782281353897670E+00
    0.50358135218666966182E+00
    0.50356427052229690844E+00
    0.50350144406005847841E+00
    0.50341011924357381702E+00
    0.50352315044393913812E+00
    0.50350187488999909036E+00
    0.50356737210973701035E+00
    0.50357944999649217888E+00
    0.50358637934748162746E+00
    0.50358712376433412139E+00
    0.50358488279209434602E+00
    0.50358624476494528999E+00
    0.50357649838801110675E+00
    0.50357072562939986238E+00
    0.50234010344945312365E+00
    0.50060477596271979461E+00
    0.49564049481598787539E+00
    0.49237604279296709464E+00
    0.49855713681392788139E+00
    0.49879586201862013972E+00
    0.50204506040096397168E+00
    0.50260602389751041219E+00
    0.50333915697093556396E+00
    0.50340937066155366786E+00
    0.50300969126950278998E+00
    0.50317859784418417224E+00
    0.50199105253192166654E+00
    0.50165353438973137035E+00
    0.50357495419056619301E+00
    0.50353564709521791976E+00
    0.50340796384384667306E+00
    0.50315877302443068331E+00
    0.50337820515591669146E+00
    0.50317904332147134205E+00
    0.50347207275829264361E+00
    0.50354768885723533156E+00
    0.50357976638062407204E+00
    0.50358455109290212182E+00
    0.50357858549825806893E+00
    0.50358406255704735166E+00
    0.50355357913294851446E+00
    0.50352995522895538372E+00
    0.50115676857081470352E+00
    0.49692685106484568713E+00
    0.48742788418966537245E+00
    0.47659647723082770865E+00
    0.48673340357560701541E+00
    0.47904586107435326303E+00
    0.49345999329436668335E+00
    0.49851083120180506025E+00
    0.50207933429095574773E+00
    0.50275216293895752528E+00
    0.50172292810029839316E+00
    0.50262132482790866650E+00
    0.49860358594313780589E+00
    0.49672927050403736793E+00
    0.50358780439440642418E+00
    0.50358787967023743715E+00
    0.50358788286796862810E+00
    0.50358789942368609172E+00
    0.50358790751533499819E+00
    0.50358788851692781741E+00
    0.50358788846447932741E+00
    0.50358787819010863984E+00
    0.50358779351567517502E+00
    0.50358779297250944040E+00
    0.50358779744366188869E+00
    0.50358778610635301920E+00
    0.50358788009306398870E+00
    0.50358789199622211452E+00
    0.50358789809677095839E+00
    0.50358782901574561386E+00
    0.50358745010081928939E+00
    0.50358640388685182998E+00
    0.50358725130138992654E+00
    0.50358598017673650293E+00
    0.50358746805104448452E+00
    0.50358782186258510549E+00
    0.50358789219672595028E+00
    0.50358790453240520613E+00
    0.50358790949635101608E+00
    0.50358789582948637609E+00
    0.50358786185908388511E+00
    0.50358778854446273332E+00
    0.50358780439435024689E+00
    0.50358787966989315699E+00
    0.50358788286631817055E+00
    0.50358789941444226379E+00
    0.50358790750442539164E+00
    0.50358788845310775706E+00
    0.50358788844693991305E+00
    0.50358787818730132990E+00
    0.50358779351523419443E+00
    0.50358779297241407225E+00
    0.50358779744355153252E+00
    0.50358778610632637385E+00
    0.50358788009245036843E+00
    0.50358789199432629768E+00
    0.50358789803507475469E+00
    0.50358782854356132219E+00
    0.50358744844136182905E+00
    0.50358639601957355669E+00
    0.50358723892739987171E+00
    0.50358591880907610516E+00
    0.50358744320294579477E+00
    0.50358781707595656751E+00
    0.50358789120401092898E+00
    0.50358790431936595322E+00
    0.50358790927591190467E+00
    0.50358789579589324781E+00
    0.50358786083332141015E+00
    0.50358778575879092898E+00
    0.50357381262646827569E+00
    0.50352963189387933696E+00
    0.50339081271746821677E+00
    0.50310300221935699838E+00
    0.50331829317259790812E+00
    0.50298813921839657937E+00
    0.50339590997371075343E+00
    0.50352613035228510618E+00
    0.50357449087610861582E+00
    0.50358289759282670595E+00
    0.50357617808558308159E+00
    0.50358349400684021546E+00
    0.50354495689251499435E+00
    0.50351227066885329009E+00
    0.50099109766181060266E+00
    0.49628442044012327505E+00
    0.48629665407935018795E+00
    0.47378283678019078584E+00
    0.48260717187418650242E+00
    0.46879164534488076965E+00
    0.48673763325699920257E+00
    0.49593854442176471542E+00
    0.50110277853537410486E+00
    0.50235748174766303720E+00
    0.50129256138336419912E+00
    0.50249906001773669839E+00