# vtk DataFile Version 3.0
LAPLACIEN  2D
ASCII
DATASET UNSTRUCTURED_GRID
 POINTS        1857  float
   3.1250000000000000E-002  0.93750000000000000        0.0000000000000000     
   6.2500000000000000E-002  0.93750000000000000        0.0000000000000000     
   6.2500000000000000E-002  0.96875000000000000        0.0000000000000000     
   1.8749999999999999E-002  0.95625000000000004        0.0000000000000000     
   4.0625000000000001E-002  0.95937499999999998        0.0000000000000000     
   4.3749999999999997E-002  0.98124999999999996        0.0000000000000000     
   2.1874999999999999E-002  0.97812500000000002        0.0000000000000000     
   9.3750000000000000E-002  0.93750000000000000        0.0000000000000000     
  0.12500000000000000       0.93750000000000000        0.0000000000000000     
  0.12500000000000000       0.96875000000000000        0.0000000000000000     
   8.1250000000000003E-002  0.95625000000000004        0.0000000000000000     
  0.10312499999999999       0.95937499999999998        0.0000000000000000     
  0.10625000000000000       0.98124999999999996        0.0000000000000000     
   8.4375000000000006E-002  0.97812500000000002        0.0000000000000000     
   3.1250000000000000E-002  0.87500000000000000        0.0000000000000000     
   6.2500000000000000E-002  0.87500000000000000        0.0000000000000000     
   6.2500000000000000E-002  0.90625000000000000        0.0000000000000000     
   1.8749999999999999E-002  0.89375000000000004        0.0000000000000000     
   4.0625000000000001E-002  0.89687499999999998        0.0000000000000000     
   4.3749999999999997E-002  0.91874999999999996        0.0000000000000000     
   2.1874999999999999E-002  0.91562500000000002        0.0000000000000000     
   9.3750000000000000E-002  0.87500000000000000        0.0000000000000000     
  0.12500000000000000       0.87500000000000000        0.0000000000000000     
  0.12500000000000000       0.90625000000000000        0.0000000000000000     
   8.1250000000000003E-002  0.89375000000000004        0.0000000000000000     
  0.10312499999999999       0.89687499999999998        0.0000000000000000     
  0.10625000000000000       0.91874999999999996        0.0000000000000000     
   8.4375000000000006E-002  0.91562500000000002        0.0000000000000000     
  0.15625000000000000       0.93750000000000000        0.0000000000000000     
  0.18750000000000000       0.93750000000000000        0.0000000000000000     
  0.18750000000000000       0.96875000000000000        0.0000000000000000     
  0.14374999999999999       0.95625000000000004        0.0000000000000000     
  0.16562499999999999       0.95937499999999998        0.0000000000000000     
  0.16875000000000001       0.98124999999999996        0.0000000000000000     
  0.14687500000000001       0.97812500000000002        0.0000000000000000     
  0.21875000000000000       0.93750000000000000        0.0000000000000000     
  0.25000000000000000       0.93750000000000000        0.0000000000000000     
  0.25000000000000000       0.96875000000000000        0.0000000000000000     
  0.20624999999999999       0.95625000000000004        0.0000000000000000     
  0.22812499999999999       0.95937499999999998        0.0000000000000000     
  0.23125000000000001       0.98124999999999996        0.0000000000000000     
  0.20937500000000001       0.97812500000000002        0.0000000000000000     
  0.15625000000000000       0.87500000000000000        0.0000000000000000     
  0.18750000000000000       0.87500000000000000        0.0000000000000000     
  0.18750000000000000       0.90625000000000000        0.0000000000000000     
  0.14374999999999999       0.89375000000000004        0.0000000000000000     
  0.16562499999999999       0.89687499999999998        0.0000000000000000     
  0.16875000000000001       0.91874999999999996        0.0000000000000000     
  0.14687500000000001       0.91562500000000002        0.0000000000000000     
  0.21875000000000000       0.87500000000000000        0.0000000000000000     
  0.25000000000000000       0.87500000000000000        0.0000000000000000     
  0.25000000000000000       0.90625000000000000        0.0000000000000000     
  0.20624999999999999       0.89375000000000004        0.0000000000000000     
  0.22812499999999999       0.89687499999999998        0.0000000000000000     
  0.23125000000000001       0.91874999999999996        0.0000000000000000     
  0.20937500000000001       0.91562500000000002        0.0000000000000000     
   3.1250000000000000E-002  0.81250000000000000        0.0000000000000000     
   6.2500000000000000E-002  0.81250000000000000        0.0000000000000000     
   6.2500000000000000E-002  0.84375000000000000        0.0000000000000000     
   1.8749999999999999E-002  0.83125000000000004        0.0000000000000000     
   4.0625000000000001E-002  0.83437499999999998        0.0000000000000000     
   4.3749999999999997E-002  0.85624999999999996        0.0000000000000000     
   2.1874999999999999E-002  0.85312500000000002        0.0000000000000000     
   9.3750000000000000E-002  0.81250000000000000        0.0000000000000000     
  0.12500000000000000       0.81250000000000000        0.0000000000000000     
  0.12500000000000000       0.84375000000000000        0.0000000000000000     
   8.1250000000000003E-002  0.83125000000000004        0.0000000000000000     
  0.10312499999999999       0.83437499999999998        0.0000000000000000     
  0.10625000000000000       0.85624999999999996        0.0000000000000000     
   8.4375000000000006E-002  0.85312500000000002        0.0000000000000000     
   3.1250000000000000E-002  0.75000000000000000        0.0000000000000000     
   6.2500000000000000E-002  0.75000000000000000        0.0000000000000000     
   6.2500000000000000E-002  0.78125000000000000        0.0000000000000000     
   1.8749999999999999E-002  0.76875000000000004        0.0000000000000000     
   4.0625000000000001E-002  0.77187499999999998        0.0000000000000000     
   4.3749999999999997E-002  0.79374999999999996        0.0000000000000000     
   2.1874999999999999E-002  0.79062500000000002        0.0000000000000000     
   9.3750000000000000E-002  0.75000000000000000        0.0000000000000000     
  0.12500000000000000       0.75000000000000000        0.0000000000000000     
  0.12500000000000000       0.78125000000000000        0.0000000000000000     
   8.1250000000000003E-002  0.76875000000000004        0.0000000000000000     
  0.10312499999999999       0.77187499999999998        0.0000000000000000     
  0.10625000000000000       0.79374999999999996        0.0000000000000000     
   8.4375000000000006E-002  0.79062500000000002        0.0000000000000000     
  0.15625000000000000       0.81250000000000000        0.0000000000000000     
  0.18750000000000000       0.81250000000000000        0.0000000000000000     
  0.18750000000000000       0.84375000000000000        0.0000000000000000     
  0.14374999999999999       0.83125000000000004        0.0000000000000000     
  0.16562499999999999       0.83437499999999998        0.0000000000000000     
  0.16875000000000001       0.85624999999999996        0.0000000000000000     
  0.14687500000000001       0.85312500000000002        0.0000000000000000     
  0.21875000000000000       0.81250000000000000        0.0000000000000000     
  0.25000000000000000       0.81250000000000000        0.0000000000000000     
  0.25000000000000000       0.84375000000000000        0.0000000000000000     
  0.20624999999999999       0.83125000000000004        0.0000000000000000     
  0.22812499999999999       0.83437499999999998        0.0000000000000000     
  0.23125000000000001       0.85624999999999996        0.0000000000000000     
  0.20937500000000001       0.85312500000000002        0.0000000000000000     
  0.15625000000000000       0.75000000000000000        0.0000000000000000     
  0.18750000000000000       0.75000000000000000        0.0000000000000000     
  0.18750000000000000       0.78125000000000000        0.0000000000000000     
  0.14374999999999999       0.76875000000000004        0.0000000000000000     
  0.16562499999999999       0.77187499999999998        0.0000000000000000     
  0.16875000000000001       0.79374999999999996        0.0000000000000000     
  0.14687500000000001       0.79062500000000002        0.0000000000000000     
  0.21875000000000000       0.75000000000000000        0.0000000000000000     
  0.25000000000000000       0.75000000000000000        0.0000000000000000     
  0.25000000000000000       0.78125000000000000        0.0000000000000000     
  0.20624999999999999       0.76875000000000004        0.0000000000000000     
  0.22812499999999999       0.77187499999999998        0.0000000000000000     
  0.23125000000000001       0.79374999999999996        0.0000000000000000     
  0.20937500000000001       0.79062500000000002        0.0000000000000000     
  0.28125000000000000       0.93750000000000000        0.0000000000000000     
  0.31250000000000000       0.93750000000000000        0.0000000000000000     
  0.31250000000000000       0.96875000000000000        0.0000000000000000     
  0.26874999999999999       0.95625000000000004        0.0000000000000000     
  0.29062500000000002       0.95937499999999998        0.0000000000000000     
  0.29375000000000001       0.98124999999999996        0.0000000000000000     
  0.27187499999999998       0.97812500000000002        0.0000000000000000     
  0.34375000000000000       0.93750000000000000        0.0000000000000000     
  0.37500000000000000       0.93750000000000000        0.0000000000000000     
  0.37500000000000000       0.96875000000000000        0.0000000000000000     
  0.33124999999999999       0.95625000000000004        0.0000000000000000     
  0.35312500000000002       0.95937499999999998        0.0000000000000000     
  0.35625000000000001       0.98124999999999996        0.0000000000000000     
[...]
 CELL_DATA        3584
 SCALARS Tumor_cells float
 LOOKUP_TABLE default
   -0.30940513374991340969E-06
   -0.27982515912462168151E-06
   -0.31137055528496498144E-06
   -0.31137236184665099142E-06
   -0.27982505996447116192E-06
   -0.30940309422595800772E-06
   -0.20224696560180264497E-06
   -0.27982159519708740366E-06
   -0.22810995098287821172E-06
   -0.22811038879795162352E-06
   -0.27982168831414420031E-06
   -0.20224668440008803491E-06
   -0.28454014191866717291E-06
   -0.28454030819925490333E-06
   -0.30940733212215075275E-06
   -0.27982454471109807526E-06
   -0.31137048342434288000E-06
   -0.31137225511694977524E-06
   -0.27982499132817150671E-06
   -0.30940292457683544255E-06
   -0.20224696120240441415E-06
   -0.27982142861970245195E-06
   -0.22811062987715338704E-06
   -0.31137008903040469115E-06
   -0.27982543488951444745E-06
   -0.30940549357459160100E-06
   -0.28453932583046177211E-06
   -0.28453997716542114208E-06
   -0.30940509975070039173E-06
   -0.27982506702893214161E-06
   -0.31137053181371123566E-06
   -0.31137239778111184184E-06
   -0.27982428369995710998E-06
   -0.30940438043736589681E-06
   -0.30940719271411833127E-06
   -0.27982529140940331929E-06
   -0.31136803601364986729E-06
   -0.22811080507597496860E-06
   -0.27982142391119696415E-06
   -0.20224677548770495015E-06
   -0.28453970192683235086E-06
   -0.28453964418151017199E-06
   -0.30940735492267775348E-06
   -0.27982503036601787436E-06
   -0.31137177455785361399E-06
   -0.31137350559942379990E-06
   -0.27982482558581101028E-06
   -0.30940468360759070749E-06
   -0.30940695091587080176E-06
   -0.27982460634083960543E-06
   -0.31137076083336487186E-06
   -0.31137248185288437160E-06
   -0.27982445723809132145E-06
   -0.30940539781758483536E-06
   -0.28453914478101588487E-06
   -0.28453957763601383240E-06
   -0.30940752371997941178E-06
   -0.27982488365620140560E-06
   -0.31137127550779670949E-06
   -0.31137279596874659469E-06
   -0.27982511018283093139E-06
   -0.30940296517744155720E-06
   -0.20224689138308073480E-06
   -0.27982135173507224228E-06
   -0.22811065934442260572E-06
   -0.31137014728950973901E-06
   -0.27982538487967105501E-06
   -0.30940533255041950246E-06
   -0.28453935208075867297E-06
   -0.28454012601841943221E-06
   -0.30941008967147951362E-06
   -0.27982715416936321646E-06
   -0.31137582959050063835E-06
   -0.31137561585674889305E-06
   -0.27982637583274923634E-06
   -0.30940346449556511951E-06
   -0.20224707283592558671E-06
   -0.27982151113896195110E-06
   -0.22811067130940064268E-06
   -0.31137034783700577420E-06
   -0.27982563041531376849E-06
   -0.30940614112828000973E-06
   -0.28453999074470580425E-06
   -0.28454083699801317601E-06
   -0.30941567297393055039E-06
   -0.27983669555123006167E-06
   -0.31139539846023697111E-06
   -0.31139374541026169551E-06
   -0.27983428027662497235E-06
   -0.30940885261606202512E-06
   -0.30940842730795373118E-06
   -0.27982619931923095610E-06
   -0.31137114157613060643E-06
   -0.31137297153225575000E-06
   -0.27982638852692766731E-06
   -0.30940775272997290191E-06
   -0.28454210311788521244E-06
   -0.28454252185215264447E-06
   -0.30950509988205350414E-06
   -0.27992878924168379871E-06
   -0.31155523234989250955E-06
   -0.31151485249095351756E-06
   -0.27989418928656517132E-06
   -0.30942944857923013504E-06
   -0.30941724907742691163E-06
   -0.27984056501393542036E-06
   -0.31137487966355351923E-06
   -0.31137747595145297077E-06
   -0.27984866210515842392E-06
   -0.30943817562510782102E-06
   -0.28456355124865384594E-06
   -0.28456709949532101646E-06
   -0.30940514980644603482E-06
   -0.27982525867479312740E-06
   -0.31137116772384641754E-06
   -0.31137299699803163508E-06
   -0.27982454793528060223E-06
   -0.30940474257670195926E-06
   -0.30940712265485848769E-06
   -0.27982525395505667093E-06
   -0.31136807569817285588E-06
   -0.22811074338902237148E-06
   -0.27982145030823649977E-06
   -0.20224669868020585182E-06
   -0.28453980970316035213E-06
   -0.28453969344131155416E-06
   -0.30941144560998798764E-06
   -0.27983442659251315182E-06
   -0.31139223699370358006E-06
   -0.31139714246532480693E-06
   -0.27983649077638613376E-06
   -0.30941312968143322569E-06
   -0.30940957022355813811E-06
   -0.27982652179251638917E-06
   -0.31137120426080265037E-06
   -0.31137306889805622692E-06
   -0.27982595823992217526E-06
   -0.30940675031792087849E-06
   -0.28454222064860217677E-06
   -0.28454242574410726164E-06
   -0.30940561599581776952E-06
   -0.27982644338290171967E-06
   -0.31137415300736552580E-06
   -0.31137752331632486527E-06
   -0.27982686501948169981E-06
   -0.30940735857577145397E-06
   -0.30940794795065157948E-06
   -0.27982553830041675066E-06
   -0.31136815348064830171E-06
   -0.22811078166938557089E-06
   -0.27982156484104895979E-06
   -0.20224688887746606196E-06
   -0.28454051711553058393E-06
   -0.28454035544657350077E-06
   -0.30943191759091914627E-06
   -0.27989448196072938827E-06
   -0.31151352578175602579E-06
   -0.31155697877809713257E-06
   -0.27992850233144929766E-06
   -0.30950259631817062107E-06
   -0.30944001514109287037E-06
   -0.27984889271599219772E-06
   -0.31137545564530766025E-06
   -0.31137676536563261511E-06
   -0.27984035620228276125E-06
   -0.30941545134945799060E-06
   -0.28456688490125945303E-06
   -0.28456386828276840077E-06
   -0.30952324243837050927E-06
   -0.28003540806170060982E-06
   -0.31175240570167638728E-06
   -0.31175389901092050904E-06
   -0.28003510212752698294E-06
   -0.30952083658369167121E-06
   -0.30945088467982629970E-06
   -0.27987218261315503212E-06
   -0.31138050364036029412E-06
   -0.31138251302131408528E-06
   -0.27987190698705872605E-06
   -0.30944904555111646641E-06
   -0.28459823859011854514E-06
   -0.28459849499505940314E-06
   -0.31087816505889663853E-06
   -0.28186146798931779167E-06
   -0.31439105581770508024E-06
   -0.31407605606312735791E-06
   -0.28150617813855139283E-06
   -0.31009334775123591400E-06
   -0.30972535490289745953E-06
   -0.28029737728827760798E-06
   -0.31147876497139760380E-06
   -0.31148525043047063386E-06
   -0.28040089710971985124E-06
   -0.30998892485875927094E-06
   -0.28499256104794252674E-06
   -0.28509181040065814647E-06
   -0.31009557169592113632E-06
   -0.28150636761237802102E-06
   -0.31407490793388401819E-06
   -0.31439276992061156011E-06
   -0.28186122901243086564E-06
   -0.31087595554326981249E-06
   -0.30999082766145138425E-06
   -0.28040131272406577709E-06
   -0.31148290003480301401E-06
   -0.31148062252030095988E-06
   -0.28029703333356514717E-06
   -0.30972358125393377083E-06
   -0.28509163556489052974E-06
   -0.28499285045000263952E-06
   -0.31883297466954417317E-06
   -0.29936586527675827005E-06
   -0.33542940742758895460E-06
   -0.33543073703909280055E-06
   -0.29936574969597912470E-06
   -0.31883097210452771275E-06
   -0.31416708178104136413E-06
   -0.28632810253178882487E-06
   -0.31264307692582565949E-06
   -0.31264524129126152228E-06
   -0.28632761462460661908E-06
   -0.31416518023422959631E-06
   -0.28875618471321939771E-06
   -0.28875643980282455008E-06
   -0.30942123053585330734E-06
   -0.27983478612043414415E-06
   -0.31138836902270762714E-06
   -0.31138284838596933703E-06
   -0.27982947347865676253E-06
   -0.30940440571010392613E-06
   -0.20224750283720161348E-06
   -0.27982215672110838320E-06
   -0.22811101562604339971E-06
   -0.31137087343911586111E-06
   -0.27982747624346420317E-06
   -0.30940984703297635922E-06
   -0.28454177335734557645E-06
   -0.28454276843817894592E-06
   -0.30944158998988827364E-06
   -0.27984594660095327222E-06
   -0.31140329727082892949E-06
   -0.31139061733252665841E-06
   -0.27983286780035651750E-06
   -0.30940521961438993241E-06
   -0.20224802945686188258E-06
   -0.27982322559897778623E-06
   -0.22811162531151729169E-06
   -0.31137169958087516804E-06
   -0.27983093412233838303E-06
   -0.30941749596290387096E-06
   -0.28454440511212240982E-06
   -0.28454549425984880028E-06
   -0.30990986365069598391E-06
   -0.28025644780152988591E-06
   -0.31201422268255986335E-06
   -0.31182740856562088962E-06
   -0.28005712185190181824E-06
   -0.30947357201829857671E-06
   -0.30943982382047390160E-06
   -0.27989162593635687827E-06
   -0.31139100127939457456E-06
   -0.31139750583270210063E-06
   -0.27994718754407824849E-06
   -0.30959129405807627510E-06
   -0.28463212702268747449E-06
   -0.28465727845941376480E-06
   -0.31067101268535196688E-06
   -0.28073705068443941822E-06
   -0.31255785310610769303E-06
   -0.31216136688430656860E-06
   -0.28023426182746417043E-06
   -0.30951415991721801363E-06
   -0.30946449452470368087E-06
   -0.27996580954108949305E-06
   -0.31142228863035012056E-06
   -0.31143944077477486445E-06
   -0.28012991659296802938E-06
   -0.30991910889375237826E-06
   -0.28473419531071419075E-06
   -0.28479928484122966572E-06
   -0.30945726875781661695E-06
   -0.27985297993760158902E-06
   -0.31141083730928214221E-06
   -0.31139409672001497664E-06
   -0.27983444489529737315E-06
   -0.30940554795739499663E-06
   -0.20224832329932307945E-06
   -0.27982395604900723924E-06
   -0.22811216909139369268E-06
   -0.31137252949133525551E-06
   -0.27983374327472720584E-06
   -0.30942427413110986734E-06
   -0.28454622800242126247E-06
   -0.28454726386194450037E-06
   -0.30946214584662178407E-06
   -0.27985481796775071788E-06
   -0.31141238910360726136E-06
   -0.31139477951770781699E-06
   -0.27983474991765400835E-06
   -0.30940561743016959811E-06
   -0.20224836613584439430E-06
   -0.27982419415692047064E-06
   -0.22811236089124952991E-06
   -0.31137279085770029247E-06
   -0.27983462000106510626E-06
   -0.30942683112337133248E-06
   -0.28454674293620627704E-06
   -0.28454772001566077040E-06
   -0.31124311075084296442E-06
   -0.28102605166964020461E-06
   -0.31282214502792775176E-06
   -0.31230578888393011542E-06
   -0.28031070669348267570E-06
   -0.30953029945995362640E-06
   -0.30947597954904094748E-06
   -0.28000924937739463578E-06
   -0.31144817427351254352E-06
   -0.31147867410847166264E-06
   -0.28027017795262281832E-06
   -0.31020974293130000702E-06
   -0.28480666723583858967E-06
   -0.28489064992420228470E-06
   -0.31141035766015744666E-06
   -0.28109611030043874157E-06
   -0.31287358702349432196E-06
   -0.31233005923711845007E-06
   -0.28032376428208744221E-06
   -0.30953293098272384741E-06
   -0.30947829700253602221E-06
   -0.28001935515747812053E-06
   -0.31145699048221940157E-06
   -0.31149401902926388915E-06
   -0.28031429338971235025E-06
   -0.31031469991764323142E-06
   -0.28482911254181203456E-06
   -0.28491357379678548935E-06
   -0.31789371193151020145E-06
   -0.28877827594493826803E-06
   -0.32248440202587515597E-06
   -0.32051716774353299316E-06
   -0.28590176254816512579E-06
   -0.31130311371691423867E-06
   -0.31045354372922995256E-06
   -0.28199454566307096559E-06
   -0.31194640143694761534E-06
   -0.31197246996993575025E-06
   -0.28294020145270512871E-06
   -0.31300908326737561511E-06
   -0.28607744400605567403E-06
   -0.28714860180514609049E-06
   -0.33218068388695291188E-06
   -0.29925788986124590836E-06
   -0.33245678382367689124E-06
   -0.32763124239582678967E-06
   -0.29067660478340883072E-06
   -0.31236050866178632781E-06
   -0.31122261623493191044E-06
   -0.28456163558531708120E-06
   -0.31293246110211370355E-06
   -0.31304822127844928930E-06
   -0.28771175916333437074E-06
   -0.32009192546667634701E-06
   -0.28775534568795389203E-06
   -0.29078085976216056987E-06
   -0.38069852029107952956E-06
   -0.38441439799319663618E-06
   -0.43077936456676141076E-06
   -0.41122999997183457664E-06
   -0.36760439878060481373E-06
   -0.33823174175978108356E-06
   -0.32648286890246280672E-06
   -0.31506350718684877769E-06
   -0.31915824074814876122E-06
   -0.31896408765268393200E-06
   -0.31949231656308997496E-06
   -0.34723382164941005927E-06
   -0.30262597506572553622E-06
   -0.31076474611226243367E-06
   -0.51139415238668626546E-06
   -0.51572814453216477144E-06
   -0.53493902650015777322E-06
   -0.50899147088274035474E-06
   -0.45288318766532752836E-06
   -0.36405991974183035956E-06
   -0.34103295648056923120E-06
   -0.36486619956076936172E-06
   -0.33633815706033584192E-06
   -0.33964349627443329357E-06
   -0.39290715342168416750E-06
   -0.46071136845516394073E-06
   -0.35666824066174162966E-06
   -0.36003403792287337392E-06
   -0.34312923041156678638E-06
   -0.30529081183181502742E-06
   -0.33723687822604257231E-06
   -0.33059836664890941067E-06
   -0.29252186245098189362E-06
   -0.31276919478469015967E-06
   -0.31155772022824738061E-06
   -0.28596814991069474713E-06
   -0.31376928627068005943E-06
   -0.31411513734441349405E-06
   -0.29120273703909601261E-06
   -0.32640259358334401433E-06
   -0.28926528633503413644E-06
   -0.29314427419921408485E-06
   -0.34606154829309777209E-06
   -0.30662198265500694369E-06
   -0.33809756241455543456E-06
   -0.33105397455818534788E-06
   -0.29279523916916678888E-06
   -0.31283710267559761809E-06
   -0.31161931181802108534E-06
   -0.28624996263809605154E-06
   -0.31403738085519050675E-06
   -0.31453700885639304047E-06
   -0.29220548992733896511E-06
   -0.32847863342897931161E-06
   -0.28977137095371666755E-06
   -0.29368381408434027309E-06
   -0.60503690932920600627E-06
   -0.59842028489344289384E-06
   -0.60490509916574718645E-06
   -0.55675641687289316714E-06
   -0.48439775470737995364E-06
   -0.37596170777933429994E-06
   -0.34838349162188974811E-06
   -0.39072589991621262131E-06
   -0.35152781316877738245E-06
   -0.36512306068777557190E-06
   -0.46013755021413654270E-06
   -0.55608202142772639890E-06
   -0.40984071409194009789E-06
   -0.39298199414289837189E-06
   -0.63544694871981424556E-06
   -0.61676724175471708344E-06
   -0.61480542960849473114E-06
   -0.56331302598139343713E-06
   -0.48836580300675952851E-06
   -0.37768626663688841080E-06
   -0.34971584784594753457E-06
   -0.39507137165478680284E-06
   -0.35590961373806976972E-06
   -0.37355114506241979434E-06
   -0.47909648407504399522E-06
   -0.58164586614315249505E-06
   -0.42173786575801968510E-06
   -0.39974998035024123799E-06
   -0.30940649212267122496E-06
   -0.27982952520801467792E-06
   -0.31138142202720304178E-06
   -0.31139009597750176125E-06
   -0.27983452254452828950E-06
   -0.30941858920671049369E-06
   -0.30941166625529877191E-06
   -0.27982739286118649805E-06
   -0.31136870213032636007E-06
   -0.22811112144354383888E-06
   -0.27982221725868991929E-06
   -0.20224731148269240650E-06
   -0.28454245931604758543E-06
   -0.28454222699043266761E-06
   -0.30947604708105575549E-06
   -0.28005726660212307481E-06
   -0.31182610164673548799E-06
   -0.31201594708252607512E-06
   -0.28025617945720562670E-06
   -0.30990746054085462236E-06
   -0.30959319716700732713E-06
   -0.27994749851982919394E-06
   -0.31139527742481292612E-06
   -0.31139278268614133302E-06
   -0.27989140542750045483E-06
   -0.30943801065999068623E-06
   -0.28465710973257450098E-06
   -0.28463245233941348946E-06
   -0.30940733104123342697E-06
   -0.27983289576629218324E-06
   -0.31138915775899514555E-06
   -0.31140504798078637144E-06
   -0.27984568299211890586E-06
   -0.30943898096244907688E-06
   -0.30941933916782762577E-06
   -0.27983087790357619822E-06
   -0.31136962933463354024E-06
   -0.22811175234958134839E-06
   -0.27982336588765940449E-06
   -0.20224785636493319278E-06
   -0.28454523812487650669E-06
   -0.28454484124657691926E-06
   -0.30951671519918692115E-06
   -0.28023448154098047921E-06
   -0.31216000841137170192E-06
   -0.31255952533571500874E-06
   -0.28073677218424914904E-06
   -0.31066863356149166184E-06
   -0.30992100546189622921E-06
   -0.28013024755706879740E-06
   -0.31143718839162653530E-06
   -0.31142402761011869408E-06
   -0.27996557878836965377E-06
   -0.30946271130251819458E-06
   -0.28479915106446375998E-06
   -0.28473456560029883929E-06
   -0.31130535243832687153E-06
   -0.28590195387793522676E-06
   -0.32051599517052667597E-06
   -0.32248597175385854947E-06
   -0.28877801635452995328E-06
   -0.31789149096210613338E-06
   -0.31301096615696010724E-06
   -0.28294067841721644323E-06
   -0.31196999579900547971E-06
   -0.31194824584509220669E-06
   -0.28199430242873021362E-06
   -0.31045170801949126617E-06
   -0.28714847181740488558E-06
   -0.28607787951103500174E-06
   -0.33823362931014388035E-06
   -0.36760425887481273965E-06
   -0.41122914088097013050E-06
   -0.43078045395971315681E-06
   -0.38441464484404477103E-06
   -0.38069721356681694116E-06
   -0.34723534008767327145E-06
   -0.31949293459853133411E-06
   -0.31896155733084125094E-06
   -0.31916007494343928355E-06
   -0.31506314266310872185E-06
   -0.32648127893595300984E-06
   -0.31076459674576915986E-06
   -0.30262633221207056641E-06
   -0.31236277148365350244E-06
   -0.29067672192977739546E-06
   -0.32763016673240429239E-06
   -0.33245820672490869415E-06
   -0.29925760989386148449E-06
   -0.33217874103354090293E-06
   -0.32009379770354684872E-06
   -0.28771241290169520079E-06
   -0.31304573652471653376E-06
   -0.31293424632835897307E-06
   -0.28456135579588019762E-06
   -0.31122078928971026230E-06
   -0.29078070288957768430E-06
   -0.28775571675527228135E-06
   -0.36406186202343080755E-06
   -0.45288297654890176672E-06
   -0.50899082442304878398E-06
   -0.53493979133830811627E-06
   -0.51572798907947750903E-06
   -0.51139330339573256809E-06
   -0.46071237791399195469E-06
   -0.39290786278879881261E-06
   -0.33964124460619877135E-06
   -0.33633973998804351054E-06
   -0.36486587496565760781E-06
   -0.34103155976062099628E-06
   -0.36003392169597050838E-06
   -0.35666841212112866308E-06
   -0.30940770151495430322E-06
   -0.27983445851632937762E-06
   -0.31139264350535631046E-06
   -0.31141257229731800748E-06
   -0.27985268389474202458E-06
   -0.30945464263701362837E-06
   -0.30942610115611577224E-06
   -0.27983370751369026332E-06
   -0.31137045307061868897E-06
   -0.22811229542920478574E-06
   -0.27982409216830284702E-06
   -0.20224812619249962525E-06
   -0.28454694526007275709E-06
   -0.28454663375146280777E-06
   -0.30953294609961868371E-06
   -0.28031092789403917407E-06
   -0.31230445812905201642E-06
   -0.31282382294416445073E-06
   -0.28102571775949547738E-06
   -0.31124071032406443714E-06
   -0.31021158449102086870E-06
   -0.28027051672944727770E-06
   -0.31147635878377181939E-06
   -0.31145000785313250946E-06
   -0.28000901601007779418E-06
   -0.30947424573254371016E-06
   -0.28489047289401995290E-06
   -0.28480703821904936017E-06
   -0.30940772404892543528E-06
   -0.27983474427832315663E-06
   -0.31139328283361692978E-06
   -0.31141412355057383240E-06
   -0.27985454619171614800E-06
   -0.30945957727099354755E-06
   -0.30942863682551530676E-06
   -0.27983464389434994751E-06
   -0.31137075728051487370E-06
   -0.22811246191914454413E-06
   -0.27982424985607738786E-06
   -0.20224820646852503013E-06
   -0.28454743405692357824E-06
   -0.28454714893665710078E-06
   -0.30953582439372245694E-06
   -0.28032396359436925352E-06
   -0.31232871543661053317E-06
   -0.31287527635361878156E-06
   -0.28109588233737283911E-06
   -0.31140804150925684916E-06
   -0.31031660877058130798E-06
   -0.28031460892098028660E-06
   -0.31149191083214013474E-06
   -0.31145873581652602479E-06
   -0.28001909077946774610E-06
   -0.30947650357232751931E-06
   -0.28491343756730487117E-06
   -0.28482947622126797682E-06
   -0.31277199636910794938E-06
   -0.29252199528800894892E-06
   -0.33059725007279193284E-06
   -0.33723831498765163256E-06
   -0.30529047049879548157E-06
   -0.34312731060675925250E-06
   -0.32640439573654577695E-06
   -0.29120331242273631383E-06
   -0.31411268531854685408E-06
   -0.31377112964332486106E-06
   -0.28596784961896672388E-06
   -0.31155588986603913084E-06
   -0.29314414106208606213E-06
   -0.28926570057245929098E-06
   -0.37596433755623816774E-06
   -0.48439753355872730494E-06
   -0.55675579722762429300E-06
   -0.60490645683627577786E-06
   -0.59842000373394789989E-06
   -0.60503587527630420085E-06
   -0.55608301590173991219E-06
   -0.46013836845407244491E-06
   -0.36512095190821915158E-06
   -0.35152921791117297240E-06
   -0.39072556175439639150E-06
   -0.34838222068428044320E-06