# vtk DataFile Version 3.0
LAPLACIEN  2D
ASCII
DATASET UNSTRUCTURED_GRID
 POINTS        1857  float
   3.1250000000000000E-002  0.93750000000000000        0.0000000000000000     
   6.2500000000000000E-002  0.93750000000000000        0.0000000000000000     
   6.2500000000000000E-002  0.96875000000000000        0.0000000000000000     
   1.8749999999999999E-002  0.95625000000000004        0.0000000000000000     
   4.0625000000000001E-002  0.95937499999999998        0.0000000000000000     
   4.3749999999999997E-002  0.98124999999999996        0.0000000000000000     
   2.1874999999999999E-002  0.97812500000000002        0.0000000000000000     
   9.3750000000000000E-002  0.93750000000000000        0.0000000000000000     
  0.12500000000000000       0.93750000000000000        0.0000000000000000     
  0.12500000000000000       0.96875000000000000        0.0000000000000000     
   8.1250000000000003E-002  0.95625000000000004        0.0000000000000000     
  0.10312499999999999       0.95937499999999998        0.0000000000000000     
  0.10625000000000000       0.98124999999999996        0.0000000000000000     
   8.4375000000000006E-002  0.97812500000000002        0.0000000000000000     
   3.1250000000000000E-002  0.87500000000000000        0.0000000000000000     
   6.2500000000000000E-002  0.87500000000000000        0.0000000000000000     
   6.2500000000000000E-002  0.90625000000000000        0.0000000000000000     
   1.8749999999999999E-002  0.89375000000000004        0.0000000000000000     
   4.0625000000000001E-002  0.89687499999999998        0.0000000000000000     
   4.3749999999999997E-002  0.91874999999999996        0.0000000000000000     
   2.1874999999999999E-002  0.91562500000000002        0.0000000000000000     
   9.3750000000000000E-002  0.87500000000000000        0.0000000000000000     
  0.12500000000000000       0.87500000000000000        0.0000000000000000     
  0.12500000000000000       0.90625000000000000        0.0000000000000000     
   8.1250000000000003E-002  0.89375000000000004        0.0000000000000000     
  0.10312499999999999       0.89687499999999998        0.0000000000000000     
  0.10625000000000000       0.91874999999999996        0.0000000000000000     
   8.4375000000000006E-002  0.91562500000000002        0.0000000000000000     
  0.15625000000000000       0.93750000000000000        0.0000000000000000     
  0.18750000000000000       0.93750000000000000        0.0000000000000000     
  0.18750000000000000       0.96875000000000000        0.0000000000000000     
  0.14374999999999999       0.95625000000000004        0.0000000000000000     
  0.16562499999999999       0.95937499999999998        0.0000000000000000     
  0.16875000000000001       0.98124999999999996        0.0000000000000000     
  0.14687500000000001       0.97812500000000002        0.0000000000000000     
  0.21875000000000000       0.93750000000000000        0.0000000000000000     
  0.25000000000000000       0.93750000000000000        0.0000000000000000     
  0.25000000000000000       0.96875000000000000        0.0000000000000000     
  0.20624999999999999       0.95625000000000004        0.0000000000000000     
  0.22812499999999999       0.95937499999999998        0.0000000000000000     
  0.23125000000000001       0.98124999999999996        0.0000000000000000     
  0.20937500000000001       0.97812500000000002        0.0000000000000000     
  0.15625000000000000       0.87500000000000000        0.0000000000000000     
  0.18750000000000000       0.87500000000000000        0.0000000000000000     
  0.18750000000000000       0.90625000000000000        0.0000000000000000     
  0.14374999999999999       0.89375000000000004        0.0000000000000000     
  0.16562499999999999       0.89687499999999998        0.0000000000000000     
  0.16875000000000001       0.91874999999999996        0.0000000000000000     
  0.14687500000000001       0.91562500000000002        0.0000000000000000     
  0.21875000000000000       0.87500000000000000        0.0000000000000000     
  0.25000000000000000       0.87500000000000000        0.0000000000000000     
  0.25000000000000000       0.90625000000000000        0.0000000000000000     
  0.20624999999999999       0.89375000000000004        0.0000000000000000     
  0.22812499999999999       0.89687499999999998        0.0000000000000000     
  0.23125000000000001       0.91874999999999996        0.0000000000000000     
  0.20937500000000001       0.91562500000000002        0.0000000000000000     
   3.1250000000000000E-002  0.81250000000000000        0.0000000000000000     
   6.2500000000000000E-002  0.81250000000000000        0.0000000000000000     
   6.2500000000000000E-002  0.84375000000000000        0.0000000000000000     
   1.8749999999999999E-002  0.83125000000000004        0.0000000000000000     
   4.0625000000000001E-002  0.83437499999999998        0.0000000000000000     
   4.3749999999999997E-002  0.85624999999999996        0.0000000000000000     
   2.1874999999999999E-002  0.85312500000000002        0.0000000000000000     
   9.3750000000000000E-002  0.81250000000000000        0.0000000000000000     
  0.12500000000000000       0.81250000000000000        0.0000000000000000     
  0.12500000000000000       0.84375000000000000        0.0000000000000000     
   8.1250000000000003E-002  0.83125000000000004        0.0000000000000000     
  0.10312499999999999       0.83437499999999998        0.0000000000000000     
  0.10625000000000000       0.85624999999999996        0.0000000000000000     
   8.4375000000000006E-002  0.85312500000000002        0.0000000000000000     
   3.1250000000000000E-002  0.75000000000000000        0.0000000000000000     
   6.2500000000000000E-002  0.75000000000000000        0.0000000000000000     
   6.2500000000000000E-002  0.78125000000000000        0.0000000000000000     
   1.8749999999999999E-002  0.76875000000000004        0.0000000000000000     
   4.0625000000000001E-002  0.77187499999999998        0.0000000000000000     
   4.3749999999999997E-002  0.79374999999999996        0.0000000000000000     
   2.1874999999999999E-002  0.79062500000000002        0.0000000000000000     
   9.3750000000000000E-002  0.75000000000000000        0.0000000000000000     
  0.12500000000000000       0.75000000000000000        0.0000000000000000     
  0.12500000000000000       0.78125000000000000        0.0000000000000000     
   8.1250000000000003E-002  0.76875000000000004        0.0000000000000000     
  0.10312499999999999       0.77187499999999998        0.0000000000000000     
  0.10625000000000000       0.79374999999999996        0.0000000000000000     
   8.4375000000000006E-002  0.79062500000000002        0.0000000000000000     
  0.15625000000000000       0.81250000000000000        0.0000000000000000     
  0.18750000000000000       0.81250000000000000        0.0000000000000000     
  0.18750000000000000       0.84375000000000000        0.0000000000000000     
  0.14374999999999999       0.83125000000000004        0.0000000000000000     
  0.16562499999999999       0.83437499999999998        0.0000000000000000     
  0.16875000000000001       0.85624999999999996        0.0000000000000000     
  0.14687500000000001       0.85312500000000002        0.0000000000000000     
  0.21875000000000000       0.81250000000000000        0.0000000000000000     
  0.25000000000000000       0.81250000000000000        0.0000000000000000     
  0.25000000000000000       0.84375000000000000        0.0000000000000000     
  0.20624999999999999       0.83125000000000004        0.0000000000000000     
  0.22812499999999999       0.83437499999999998        0.0000000000000000     
  0.23125000000000001       0.85624999999999996        0.0000000000000000     
  0.20937500000000001       0.85312500000000002        0.0000000000000000     
  0.15625000000000000       0.75000000000000000        0.0000000000000000     
  0.18750000000000000       0.75000000000000000        0.0000000000000000     
  0.18750000000000000       0.78125000000000000        0.0000000000000000     
  0.14374999999999999       0.76875000000000004        0.0000000000000000     
  0.16562499999999999       0.77187499999999998        0.0000000000000000     
  0.16875000000000001       0.79374999999999996        0.0000000000000000     
  0.14687500000000001       0.79062500000000002        0.0000000000000000     
  0.21875000000000000       0.75000000000000000        0.0000000000000000     
  0.25000000000000000       0.75000000000000000        0.0000000000000000     
  0.25000000000000000       0.78125000000000000        0.0000000000000000     
  0.20624999999999999       0.76875000000000004        0.0000000000000000     
  0.22812499999999999       0.77187499999999998        0.0000000000000000     
  0.23125000000000001       0.79374999999999996        0.0000000000000000     
  0.20937500000000001       0.79062500000000002        0.0000000000000000     
  0.28125000000000000       0.93750000000000000        0.0000000000000000     
  0.31250000000000000       0.93750000000000000        0.0000000000000000     
  0.31250000000000000       0.96875000000000000        0.0000000000000000     
  0.26874999999999999       0.95625000000000004        0.0000000000000000     
  0.29062500000000002       0.95937499999999998        0.0000000000000000     
  0.29375000000000001       0.98124999999999996        0.0000000000000000     
  0.27187499999999998       0.97812500000000002        0.0000000000000000     
  0.34375000000000000       0.93750000000000000        0.0000000000000000     
  0.37500000000000000       0.93750000000000000        0.0000000000000000     
  0.37500000000000000       0.96875000000000000        0.0000000000000000     
  0.33124999999999999       0.95625000000000004        0.0000000000000000     
  0.35312500000000002       0.95937499999999998        0.0000000000000000     
  0.35625000000000001       0.98124999999999996        0.0000000000000000     
[...]
 CELL_DATA        3584
 SCALARS Tumor_cells float
 LOOKUP_TABLE default
   -0.50433538380559218686E-06
   -0.35684210086082238438E-06
   -0.56121961736416511901E-06
   -0.56122002948459648743E-06
   -0.35684206480285063066E-06
   -0.50433466111249924712E-06
   -0.19052633026561611293E-06
   -0.35684062157492270025E-06
   -0.23563540916921815774E-06
   -0.23563557276983223598E-06
   -0.35684062409026517591E-06
   -0.19052616277478220176E-06
   -0.73879691509410774674E-06
   -0.73879696235757963306E-06
   -0.50433588167485572849E-06
   -0.35684194696812115371E-06
   -0.56121960805354846960E-06
   -0.56122001899519807253E-06
   -0.35684208593044859705E-06
   -0.50433464908750908467E-06
   -0.19052630864962122556E-06
   -0.35684044471817295844E-06
   -0.23563597450527491750E-06
   -0.56121965432095365566E-06
   -0.35684206642490866614E-06
   -0.50433513897319836608E-06
   -0.73879653401662741395E-06
   -0.73879696777753519831E-06
   -0.50433537648531111054E-06
   -0.35684210986101919337E-06
   -0.56121963874194972472E-06
   -0.56122006796684953984E-06
   -0.35684180740128911286E-06
   -0.50433495947615179528E-06
   -0.50433578836177147328E-06
   -0.35684206138720197050E-06
   -0.56121911637176521058E-06
   -0.23563614319642452750E-06
   -0.35684042681435083732E-06
   -0.19052614826373588662E-06
   -0.73879688222493038343E-06
   -0.73879663655427644151E-06
   -0.50433589154124796404E-06
   -0.35684195254343733162E-06
   -0.56121962443493538242E-06
   -0.56122005620139514286E-06
   -0.35684183009414292646E-06
   -0.50433498961939851626E-06
   -0.50433580328962613168E-06
   -0.35684190953340497035E-06
   -0.56121974801082177686E-06
   -0.56122021698266196200E-06
   -0.35684180423551766030E-06
   -0.50433517730855695307E-06
   -0.73879651329286500478E-06
   -0.73879661485748355775E-06
   -0.50433586957237888614E-06
   -0.35684192440544624558E-06
   -0.56121961480242196674E-06
   -0.56122002410064522227E-06
   -0.35684207391764035656E-06
   -0.50433466391074744491E-06
   -0.19052630809576321613E-06
   -0.35684043322912198223E-06
   -0.23563595257878239503E-06
   -0.56121965427250792388E-06
   -0.35684205208869741579E-06
   -0.50433516612239251801E-06
   -0.73879651695560296947E-06
   -0.73879696078901395166E-06
   -0.50433588679153421747E-06
   -0.35684193405606970213E-06
   -0.56121961456199939384E-06
   -0.56122002849091143206E-06
   -0.35684208044154121470E-06
   -0.50433465709993699285E-06
   -0.19052630653293835348E-06
   -0.35684042569534868678E-06
   -0.23563595300470417753E-06
   -0.56121967142159753685E-06
   -0.35684206130237225611E-06
   -0.50433516346443182276E-06
   -0.73879652474421078579E-06
   -0.73879697534547907341E-06
   -0.50433586390797638858E-06
   -0.35684196122181704837E-06
   -0.56121962421738354613E-06
   -0.56122006252365954320E-06
   -0.35684182699602595416E-06
   -0.50433497678145185966E-06
   -0.50433579520568746693E-06
   -0.35684192141046310497E-06
   -0.56121973363287467210E-06
   -0.56122022154268013892E-06
   -0.35684180923924854093E-06
   -0.50433519000863279800E-06
   -0.73879651233628719228E-06
   -0.73879658637672756647E-06
   -0.50433588059124743198E-06
   -0.35684195326710427115E-06
   -0.56121962826218345085E-06
   -0.56122005145289985319E-06
   -0.35684182327200107938E-06
   -0.50433497250074660873E-06
   -0.50433579948200635774E-06
   -0.35684191654059106445E-06
   -0.56121973724115201817E-06
   -0.56122022076832113624E-06
   -0.35684180520230454915E-06
   -0.50433518722386004736E-06
   -0.73879650817256894396E-06
   -0.73879658615447088567E-06
   -0.50433538942249180619E-06
   -0.35684212206974197233E-06
   -0.56121964694817421843E-06
   -0.56122008025188982852E-06
   -0.35684181677674369915E-06
   -0.50433496254938775709E-06
   -0.50433577155991147622E-06
   -0.35684208483236879557E-06
   -0.56121914046297380540E-06
   -0.23563613967181918707E-06
   -0.35684043999236962848E-06
   -0.19052615788292592403E-06
   -0.73879688751173416932E-06
   -0.73879662710717758507E-06
   -0.50433589832498470201E-06
   -0.35684196023410442232E-06
   -0.56121963851207970003E-06
   -0.56122006004379779539E-06
   -0.35684184022512607305E-06
   -0.50433498181341900710E-06
   -0.50433579760530692491E-06
   -0.35684191895203092015E-06
   -0.56121974484074485583E-06
   -0.56122023159431816240E-06
   -0.35684180772999125947E-06
   -0.50433517105008662739E-06
   -0.73879651025891199584E-06
   -0.73879660647171179615E-06
   -0.50433538879148264780E-06
   -0.35684212319927004249E-06
   -0.56121964632258077694E-06
   -0.56122008180338938422E-06
   -0.35684181649008795041E-06
   -0.50433495813083498791E-06
   -0.50433578729781815279E-06
   -0.35684208412242728380E-06
   -0.56121914036145224799E-06
   -0.23563614320801360581E-06
   -0.35684043506488510681E-06
   -0.19052615803319838331E-06
   -0.73879689260637084931E-06
   -0.73879662705686838080E-06
   -0.50433589539221073153E-06
   -0.35684196673778935685E-06
   -0.56121963660519063654E-06
   -0.56122005655761326064E-06
   -0.35684183538633818294E-06
   -0.50433498816469238006E-06
   -0.50433579534001926907E-06
   -0.35684191888351087809E-06
   -0.56121975344558506622E-06
   -0.56122023038724401416E-06
   -0.35684180682794161646E-06
   -0.50433517107784177949E-06
   -0.73879650931865269659E-06
   -0.73879659618701350427E-06
   -0.50433588231407994181E-06
   -0.35684195737235972312E-06
   -0.56121961694948425781E-06
   -0.56122005836379667122E-06
   -0.35684183075669548593E-06
   -0.50433497913184906840E-06
   -0.50433577733992179499E-06
   -0.35684191632456118755E-06
   -0.56121973515372878752E-06
   -0.56122023029859047540E-06
   -0.35684181940718889968E-06
   -0.50433518702616763967E-06
   -0.73879648392162634655E-06
   -0.73879658890869285197E-06
   -0.50433587191407336075E-06
   -0.35684196395649214122E-06
   -0.56121965743118833425E-06
   -0.56122005890976287468E-06
   -0.35684182253888569908E-06
   -0.50433498491206691024E-06
   -0.50433577140385740827E-06
   -0.35684191476352118213E-06
   -0.56121974546222267011E-06
   -0.56122022736258782709E-06
   -0.35684181948179593225E-06
   -0.50433519038970519179E-06
   -0.73879650146801708106E-06
   -0.73879659521647637704E-06
   -0.50433588534157135990E-06
   -0.35684195463779792093E-06
   -0.56121962908176766018E-06
   -0.56122007058683319525E-06
   -0.35684182354829671521E-06
   -0.50433497881126223858E-06
   -0.50433577838077493881E-06
   -0.35684192045400932986E-06
   -0.56121974811395915549E-06
   -0.56122023231819230737E-06
   -0.35684181601471458450E-06
   -0.50433518867614472812E-06
   -0.73879649115833152899E-06
   -0.73879659039312529181E-06
   -0.50433644825311161051E-06
   -0.35684436116128243333E-06
   -0.56123420414608100308E-06
   -0.56123465466737476916E-06
   -0.35684424056730909055E-06
   -0.50433557207036583902E-06
   -0.50433585528161095341E-06
   -0.35684195949428350569E-06
   -0.56121973964068042011E-06
   -0.56122023276886211618E-06
   -0.35684183837150839392E-06
   -0.50433525286382946194E-06
   -0.73879670219679796635E-06
   -0.73879677425520506678E-06
   -0.50433588106707115471E-06
   -0.35684193036388167241E-06
   -0.56121963128647869600E-06
   -0.56122004749053160671E-06
   -0.35684206279174469798E-06
   -0.50433463909199429961E-06
   -0.19052630278223543488E-06
   -0.35684043390003385692E-06
   -0.23563596908160050703E-06
   -0.56121967278663750640E-06
   -0.35684207778869564554E-06
   -0.50433516180178132148E-06
   -0.73879653090477034963E-06
   -0.73879697480257732927E-06
   -0.50433585976598675881E-06
   -0.35684192617518278135E-06
   -0.56121963274556018089E-06
   -0.56122004969184371107E-06
   -0.35684205856726316476E-06
   -0.50433463869564556073E-06
   -0.19052630223991433183E-06
   -0.35684043558518811780E-06
   -0.23563596999916287025E-06
   -0.56121966903724055379E-06
   -0.35684206321514216348E-06
   -0.50433516120613240050E-06
   -0.73879652210487581566E-06
   -0.73879696770525247709E-06
   -0.50433587904075341027E-06
   -0.35684195220411625059E-06
   -0.56121963791821928912E-06
   -0.56122006415750478329E-06
   -0.35684183201218460807E-06
   -0.50433497147194822605E-06
   -0.50433579628578989407E-06
   -0.35684191611126706824E-06
   -0.56121976042413715859E-06
   -0.56122024546981686368E-06
   -0.35684181447863134609E-06
   -0.50433519041509225153E-06
   -0.73879650714918553703E-06
   -0.73879658423124647415E-06
   -0.50433587716317126324E-06
   -0.35684195514229376187E-06
   -0.56121962288653416737E-06
   -0.56122006621316057265E-06
   -0.35684182862400602048E-06
   -0.50433497179765484065E-06
   -0.50433579146656978853E-06
   -0.35684191600326152656E-06
   -0.56121975438347267322E-06
   -0.56122025322946409413E-06
   -0.35684181622860459149E-06
   -0.50433518728667357551E-06
   -0.73879648995544595868E-06
   -0.73879657877236635684E-06
   -0.50433586544069510625E-06
   -0.35684192711495657190E-06
   -0.56121963278177613334E-06
   -0.56122004860721569277E-06
   -0.35684206170363341550E-06
   -0.50433463505533618145E-06
   -0.19052630019099091915E-06
   -0.35684043862919816067E-06
   -0.23563597221548942770E-06
   -0.56121967562157927735E-06
   -0.35684206335391263002E-06
   -0.50433516314168781178E-06
   -0.73879652176682157828E-06
   -0.73879696580899050071E-06
   -0.50433587538238687674E-06
   -0.35684192801244150141E-06
   -0.56121963144463520561E-06
   -0.56122004849630932795E-06
   -0.35684206135455965006E-06
   -0.50433463894764834457E-06
   -0.19052630236724119796E-06
   -0.35684043809644122427E-06
   -0.23563597078435081859E-06
   -0.56121967378062643484E-06
   -0.35684206440645064629E-06
   -0.50433516395311943487E-06
   -0.73879651987400639072E-06
   -0.73879696357661589822E-06
   -0.50433588331023399234E-06
   -0.35684195898820069559E-06
   -0.56121963261135829243E-06
   -0.56122006382444613448E-06
   -0.35684182632310650550E-06
   -0.50433497268473868202E-06
   -0.50433579358617889475E-06
   -0.35684191617630326378E-06
   -0.56121975512853026516E-06
   -0.56122025098559419576E-06
   -0.35684181540202007837E-06
   -0.50433518712057295566E-06
   -0.73879649792195504612E-06
   -0.73879658241116314704E-06
   -0.50433587827794317242E-06
   -0.35684195664022552461E-06
   -0.56121963192414680392E-06
   -0.56122007364391920337E-06
   -0.35684182587029417978E-06
   -0.50433496799021527296E-06
   -0.50433579595805950601E-06
   -0.35684191942868648218E-06
   -0.56121975710283944549E-06
   -0.56122024967653961001E-06
   -0.35684180878018902959E-06
   -0.50433518620073858538E-06
   -0.73879650660490016457E-06
   -0.73879658935294882143E-06
   -0.50433607437604056898E-06
   -0.35684203284965633764E-06
   -0.56122021676134824063E-06
   -0.56122020491545535982E-06
   -0.35684183848863388640E-06
   -0.50433497895016388935E-06
   -0.50433578933868760563E-06
   -0.35684192860747838815E-06
   -0.56121975149192040816E-06
   -0.56122023472478750518E-06
   -0.35684181867590078121E-06
   -0.50433520309916076194E-06
   -0.73879649501649142956E-06
   -0.73879658380817448107E-06
   -0.50433836006814158543E-06
   -0.35684244201422515269E-06
   -0.56122177133266796567E-06
   -0.56122044825905568575E-06
   -0.35684187057421709974E-06
   -0.50433497646231059744E-06
   -0.50433579278657756908E-06
   -0.35684192734750015021E-06
   -0.56121975745223873629E-06
   -0.56122025238269086835E-06
   -0.35684183195807889626E-06
   -0.50433541204183803599E-06
   -0.73879652143347049134E-06
   -0.73879661117539957230E-06
   -0.50478543501994309270E-06
   -0.35738072819600700576E-06
   -0.56322136246013270299E-06
   -0.56206957234347761632E-06
   -0.35701228794500530731E-06
   -0.50435324616380527526E-06
   -0.50433882554887353918E-06
   -0.35685166968451822996E-06
   -0.56122031800592989992E-06
   -0.56122132247057092404E-06
   -0.35686755011895328227E-06
   -0.50439110055371221262E-06
   -0.73882479182348041154E-06
   -0.73883665267302569367E-06
   -0.51341649549254165701E-06
   -0.36033288944123211049E-06
   -0.56877351719429467039E-06
   -0.56378481015348063753E-06
   -0.35737824226809563234E-06
   -0.50437563837634661159E-06
   -0.50434530406101368739E-06
   -0.35690575370651180637E-06
   -0.56122852270096078101E-06
   -0.56124233645523305838E-06
   -0.35721791440870988303E-06
   -0.50580850116869721546E-06
   -0.73899227696218821404E-06
   -0.73910344473667148285E-06
   -0.50433938433239745080E-06
   -0.35684255450890449981E-06
   -0.56122188745507121185E-06
   -0.56122046007495301231E-06
   -0.35684187251506080242E-06
   -0.50433499488260936407E-06
   -0.50433578915782097804E-06
   -0.35684192598359059906E-06
   -0.56121975836554565892E-06
   -0.56122023686315045025E-06
   -0.35684183569872891020E-06
   -0.50433555334491678275E-06
   -0.73879653189867012785E-06
   -0.73879662091668493566E-06
   -0.50433938056130152578E-06
   -0.35684255643306160048E-06
   -0.56122188397772641881E-06
   -0.56122046526623848093E-06
   -0.35684186430892900587E-06
   -0.50433499248403556827E-06
   -0.50433578607301571084E-06
   -0.35684192679885144634E-06
   -0.56121976243227789363E-06
   -0.56122025632227678730E-06
   -0.35684184000316325975E-06
   -0.50433555560926603196E-06
   -0.73879653907034308522E-06
   -0.73879661171776546222E-06
   -0.51670362743310053493E-06
   -0.36088497470293848512E-06
   -0.56898661378475909542E-06
   -0.56382717884214865825E-06
   -0.35738763869149139463E-06
   -0.50437624721818754657E-06
   -0.50434568031476822875E-06
   -0.35691417364664822665E-06
   -0.56123286682000351442E-06
   -0.56125948981298691825E-06
   -0.35737280231518448317E-06
   -0.50670349896120011199E-06
   -0.73904546521279342091E-06
   -0.73915533541577864358E-06
   -0.51671060319394872350E-06
   -0.36088574959144841423E-06
   -0.56898672192642278300E-06
   -0.56382719556601290862E-06
   -0.35738765459802364334E-06
   -0.50437624231999623001E-06
   -0.50434567791389251504E-06
   -0.35691417223774746172E-06
   -0.56123291476415975924E-06
   -0.56125974990926670838E-06
   -0.35737395194351112693E-06
   -0.50671335639256029153E-06
   -0.73904570572122624161E-06
   -0.73915541853083121813E-06
   -0.50433538858830294891E-06
   -0.35684212412799730580E-06
   -0.56121964620548641291E-06
   -0.56122008186432726378E-06
   -0.35684181648228233004E-06
   -0.50433495810026768642E-06
   -0.50433578823804060611E-06
   -0.35684208300440557389E-06
   -0.56121913638893834674E-06
   -0.23563614207914696250E-06
   -0.35684043580365930247E-06
   -0.19052615806138806331E-06
   -0.73879689206817447908E-06
   -0.73879662609367174697E-06
   -0.50433589947272080416E-06
   -0.35684195983011920496E-06
   -0.56121963635798311797E-06
   -0.56122005752883701395E-06
   -0.35684183383881253525E-06
   -0.50433497714643634493E-06
   -0.50433580149716656068E-06
   -0.35684191605590113022E-06
   -0.56121974532774983698E-06
   -0.56122023049934882473E-06
   -0.35684180734922517396E-06
   -0.50433517122247223172E-06
   -0.73879650433114090871E-06
   -0.73879660363935538151E-06
   -0.50433538651379686483E-06
   -0.35684212352669560457E-06
   -0.56121964647436294010E-06
   -0.56122008324776362428E-06
   -0.35684181567129995206E-06
   -0.50433495779191635340E-06
   -0.50433578916764168979E-06
   -0.35684208559694874995E-06
   -0.56121913407785479581E-06
   -0.23563614329302024421E-06
   -0.35684043543025869784E-06
   -0.19052615826391533506E-06
   -0.73879689229889248962E-06
   -0.73879662634065226071E-06
   -0.50433590163743653241E-06
   -0.35684196048016378772E-06
   -0.56121964202316562700E-06
   -0.56122005587763395119E-06
   -0.35684183612413596137E-06
   -0.50433497346667524145E-06
   -0.50433580337609813708E-06
   -0.35684191746598594133E-06
   -0.56121975364854983049E-06
   -0.56122023235051836689E-06
   -0.35684180867802282717E-06
   -0.50433517152973311570E-06
   -0.73879650596086035719E-06
   -0.73879659938101254155E-06
   -0.50433586993691730269E-06
   -0.35684197817990237286E-06
   -0.56121976478747026176E-06
   -0.56122066707531883440E-06
   -0.35684189095634888666E-06
   -0.50433519354979411207E-06
   -0.50433580634496396968E-06
   -0.35684192289556528317E-06
   -0.56121974054526216223E-06
   -0.56122023130275851641E-06
   -0.35684180768406846826E-06
   -0.50433517122755030012E-06
   -0.73879650588951223095E-06
   -0.73879660745011817709E-06
   -0.50435411966055959607E-06
   -0.35701238307034079949E-06
   -0.56206904373765454960E-06
   -0.56322188742214009754E-06
   -0.35738061749311399727E-06
   -0.50478459958503057345E-06
   -0.50439171351508327526E-06
   -0.35686768904581265031E-06
   -0.56122078037756346978E-06
   -0.56122080254794422693E-06
   -0.35685156050465594686E-06
   -0.50433820220641522340E-06
   -0.73883657049431584390E-06
   -0.73882488448207088461E-06
   -0.50433588891162772066E-06
   -0.35684198227217672728E-06
   -0.56122002478802897611E-06
   -0.56122219742773519503E-06
   -0.35684231883048414907E-06
   -0.50433746931005032780E-06
   -0.50433602743850367851E-06
   -0.35684195029999396728E-06
   -0.56121974496405961806E-06
   -0.56122022883521866276E-06
   -0.35684181803082679954E-06
   -0.50433519280231527645E-06
   -0.73879653647702021534E-06
   -0.73879663154087699742E-06
   -0.50437656938056567176E-06
   -0.35737837256884727500E-06
   -0.56378434989215903438E-06
   -0.56877403785155558376E-06
   -0.36033273818153380221E-06
   -0.51341565437862146285E-06
   -0.50580903135132547657E-06
   -0.35721802169910958791E-06
   -0.56124175705361759178E-06
   -0.56122901357832373217E-06
   -0.35690561103282988354E-06
   -0.50434469434722528392E-06
   -0.73910336973950612418E-06
   -0.73899233003134906996E-06
   -0.50433538888677533667E-06
   -0.35684212401246587638E-06
   -0.56121964583984875936E-06
   -0.56122008377858858442E-06
   -0.35684181694913936200E-06
   -0.50433495686687251874E-06
   -0.50433578822871773798E-06
   -0.35684208265854804548E-06
   -0.56121913412272361334E-06
   -0.23563614280772113447E-06
   -0.35684043557815732082E-06
   -0.19052615789895657842E-06
   -0.73879689560698813545E-06
   -0.73879662485941768788E-06
   -0.50433589270624924464E-06
   -0.35684195553077864687E-06
   -0.56121963805840673590E-06
   -0.56122006368737862768E-06
   -0.35684183380544796040E-06
   -0.50433497251492244626E-06
   -0.50433579731428736830E-06
   -0.35684191517417408402E-06
   -0.56121975477006105144E-06
   -0.56122023171322665924E-06
   -0.35684180841824364559E-06
   -0.50433516520472348158E-06
   -0.73879650506856683968E-06
   -0.73879660315790863056E-06
   -0.50433538936963493858E-06
   -0.35684211920464799898E-06
   -0.56121964042848009649E-06
   -0.56122007987695492959E-06
   -0.35684181606110779663E-06
   -0.50433495707647908011E-06
   -0.50433579067163762610E-06
   -0.35684208485895588924E-06
   -0.56121914021535028777E-06
   -0.23563614373230481849E-06
   -0.35684043507450501881E-06
   -0.19052615853179940433E-06
   -0.73879689095498662738E-06
   -0.73879662572766224596E-06
   -0.50433590525801787907E-06
   -0.35684195619579998975E-06
   -0.56121964005794246322E-06
   -0.56122005896682091983E-06
   -0.35684183252615011854E-06
   -0.50433498567958231023E-06
   -0.50433579789628296520E-06
   -0.35684191683904227638E-06
   -0.56121974503009060086E-06
   -0.56122023069388317595E-06
   -0.35684180739724548345E-06
   -0.50433517107042727659E-06
   -0.73879650525461296786E-06
   -0.73879660793944561671E-06
   -0.50433589101890021552E-06
   -0.35684198680564592702E-06
   -0.56122001217810210660E-06
   -0.56122231396670045670E-06
   -0.35684243501556142765E-06
   -0.50433849816402176873E-06
   -0.50433616768823056916E-06
   -0.35684195428605912514E-06
   -0.56121975422122086519E-06
   -0.56122022486982555574E-06
   -0.35684181576784222628E-06
   -0.50433519064126465976E-06
   -0.73879654668348146201E-06
   -0.73879664379836044559E-06
   -0.50437720069501115469E-06
   -0.35738775728814670116E-06
   -0.56382670905881628717E-06
   -0.56898712214950603077E-06
   -0.36088484366415041250E-06
   -0.51670281743496255145E-06
   -0.50670407555589185760E-06
   -0.35737290953259006503E-06
   -0.56125900043135635584E-06
   -0.56123335605470445954E-06
   -0.35691403242495314662E-06
   -0.50434506644059962793E-06