# vtk DataFile Version 3.0
LAPLACIEN  2D
ASCII
DATASET UNSTRUCTURED_GRID
 POINTS        1857  float
   3.1250000000000000E-002  0.93750000000000000        0.0000000000000000     
   6.2500000000000000E-002  0.93750000000000000        0.0000000000000000     
   6.2500000000000000E-002  0.96875000000000000        0.0000000000000000     
   1.8749999999999999E-002  0.95625000000000004        0.0000000000000000     
   4.0625000000000001E-002  0.95937499999999998        0.0000000000000000     
   4.3749999999999997E-002  0.98124999999999996        0.0000000000000000     
   2.1874999999999999E-002  0.97812500000000002        0.0000000000000000     
   9.3750000000000000E-002  0.93750000000000000        0.0000000000000000     
  0.12500000000000000       0.93750000000000000        0.0000000000000000     
  0.12500000000000000       0.96875000000000000        0.0000000000000000     
   8.1250000000000003E-002  0.95625000000000004        0.0000000000000000     
  0.10312499999999999       0.95937499999999998        0.0000000000000000     
  0.10625000000000000       0.98124999999999996        0.0000000000000000     
   8.4375000000000006E-002  0.97812500000000002        0.0000000000000000     
   3.1250000000000000E-002  0.87500000000000000        0.0000000000000000     
   6.2500000000000000E-002  0.87500000000000000        0.0000000000000000     
   6.2500000000000000E-002  0.90625000000000000        0.0000000000000000     
   1.8749999999999999E-002  0.89375000000000004        0.0000000000000000     
   4.0625000000000001E-002  0.89687499999999998        0.0000000000000000     
   4.3749999999999997E-002  0.91874999999999996        0.0000000000000000     
   2.1874999999999999E-002  0.91562500000000002        0.0000000000000000     
   9.3750000000000000E-002  0.87500000000000000        0.0000000000000000     
  0.12500000000000000       0.87500000000000000        0.0000000000000000     
  0.12500000000000000       0.90625000000000000        0.0000000000000000     
   8.1250000000000003E-002  0.89375000000000004        0.0000000000000000     
  0.10312499999999999       0.89687499999999998        0.0000000000000000     
  0.10625000000000000       0.91874999999999996        0.0000000000000000     
   8.4375000000000006E-002  0.91562500000000002        0.0000000000000000     
  0.15625000000000000       0.93750000000000000        0.0000000000000000     
  0.18750000000000000       0.93750000000000000        0.0000000000000000     
  0.18750000000000000       0.96875000000000000        0.0000000000000000     
  0.14374999999999999       0.95625000000000004        0.0000000000000000     
  0.16562499999999999       0.95937499999999998        0.0000000000000000     
  0.16875000000000001       0.98124999999999996        0.0000000000000000     
  0.14687500000000001       0.97812500000000002        0.0000000000000000     
  0.21875000000000000       0.93750000000000000        0.0000000000000000     
  0.25000000000000000       0.93750000000000000        0.0000000000000000     
  0.25000000000000000       0.96875000000000000        0.0000000000000000     
  0.20624999999999999       0.95625000000000004        0.0000000000000000     
  0.22812499999999999       0.95937499999999998        0.0000000000000000     
  0.23125000000000001       0.98124999999999996        0.0000000000000000     
  0.20937500000000001       0.97812500000000002        0.0000000000000000     
  0.15625000000000000       0.87500000000000000        0.0000000000000000     
  0.18750000000000000       0.87500000000000000        0.0000000000000000     
  0.18750000000000000       0.90625000000000000        0.0000000000000000     
  0.14374999999999999       0.89375000000000004        0.0000000000000000     
  0.16562499999999999       0.89687499999999998        0.0000000000000000     
  0.16875000000000001       0.91874999999999996        0.0000000000000000     
  0.14687500000000001       0.91562500000000002        0.0000000000000000     
  0.21875000000000000       0.87500000000000000        0.0000000000000000     
  0.25000000000000000       0.87500000000000000        0.0000000000000000     
  0.25000000000000000       0.90625000000000000        0.0000000000000000     
  0.20624999999999999       0.89375000000000004        0.0000000000000000     
  0.22812499999999999       0.89687499999999998        0.0000000000000000     
  0.23125000000000001       0.91874999999999996        0.0000000000000000     
  0.20937500000000001       0.91562500000000002        0.0000000000000000     
   3.1250000000000000E-002  0.81250000000000000        0.0000000000000000     
   6.2500000000000000E-002  0.81250000000000000        0.0000000000000000     
   6.2500000000000000E-002  0.84375000000000000        0.0000000000000000     
   1.8749999999999999E-002  0.83125000000000004        0.0000000000000000     
   4.0625000000000001E-002  0.83437499999999998        0.0000000000000000     
   4.3749999999999997E-002  0.85624999999999996        0.0000000000000000     
   2.1874999999999999E-002  0.85312500000000002        0.0000000000000000     
   9.3750000000000000E-002  0.81250000000000000        0.0000000000000000     
  0.12500000000000000       0.81250000000000000        0.0000000000000000     
  0.12500000000000000       0.84375000000000000        0.0000000000000000     
   8.1250000000000003E-002  0.83125000000000004        0.0000000000000000     
  0.10312499999999999       0.83437499999999998        0.0000000000000000     
  0.10625000000000000       0.85624999999999996        0.0000000000000000     
   8.4375000000000006E-002  0.85312500000000002        0.0000000000000000     
   3.1250000000000000E-002  0.75000000000000000        0.0000000000000000     
   6.2500000000000000E-002  0.75000000000000000        0.0000000000000000     
   6.2500000000000000E-002  0.78125000000000000        0.0000000000000000     
   1.8749999999999999E-002  0.76875000000000004        0.0000000000000000     
   4.0625000000000001E-002  0.77187499999999998        0.0000000000000000     
   4.3749999999999997E-002  0.79374999999999996        0.0000000000000000     
   2.1874999999999999E-002  0.79062500000000002        0.0000000000000000     
   9.3750000000000000E-002  0.75000000000000000        0.0000000000000000     
  0.12500000000000000       0.75000000000000000        0.0000000000000000     
  0.12500000000000000       0.78125000000000000        0.0000000000000000     
   8.1250000000000003E-002  0.76875000000000004        0.0000000000000000     
  0.10312499999999999       0.77187499999999998        0.0000000000000000     
  0.10625000000000000       0.79374999999999996        0.0000000000000000     
   8.4375000000000006E-002  0.79062500000000002        0.0000000000000000     
  0.15625000000000000       0.81250000000000000        0.0000000000000000     
  0.18750000000000000       0.81250000000000000        0.0000000000000000     
  0.18750000000000000       0.84375000000000000        0.0000000000000000     
  0.14374999999999999       0.83125000000000004        0.0000000000000000     
  0.16562499999999999       0.83437499999999998        0.0000000000000000     
  0.16875000000000001       0.85624999999999996        0.0000000000000000     
  0.14687500000000001       0.85312500000000002        0.0000000000000000     
  0.21875000000000000       0.81250000000000000        0.0000000000000000     
  0.25000000000000000       0.81250000000000000        0.0000000000000000     
  0.25000000000000000       0.84375000000000000        0.0000000000000000     
  0.20624999999999999       0.83125000000000004        0.0000000000000000     
  0.22812499999999999       0.83437499999999998        0.0000000000000000     
  0.23125000000000001       0.85624999999999996        0.0000000000000000     
  0.20937500000000001       0.85312500000000002        0.0000000000000000     
  0.15625000000000000       0.75000000000000000        0.0000000000000000     
  0.18750000000000000       0.75000000000000000        0.0000000000000000     
  0.18750000000000000       0.78125000000000000        0.0000000000000000     
  0.14374999999999999       0.76875000000000004        0.0000000000000000     
  0.16562499999999999       0.77187499999999998        0.0000000000000000     
  0.16875000000000001       0.79374999999999996        0.0000000000000000     
  0.14687500000000001       0.79062500000000002        0.0000000000000000     
  0.21875000000000000       0.75000000000000000        0.0000000000000000     
  0.25000000000000000       0.75000000000000000        0.0000000000000000     
  0.25000000000000000       0.78125000000000000        0.0000000000000000     
  0.20624999999999999       0.76875000000000004        0.0000000000000000     
  0.22812499999999999       0.77187499999999998        0.0000000000000000     
  0.23125000000000001       0.79374999999999996        0.0000000000000000     
  0.20937500000000001       0.79062500000000002        0.0000000000000000     
  0.28125000000000000       0.93750000000000000        0.0000000000000000     
  0.31250000000000000       0.93750000000000000        0.0000000000000000     
  0.31250000000000000       0.96875000000000000        0.0000000000000000     
  0.26874999999999999       0.95625000000000004        0.0000000000000000     
  0.29062500000000002       0.95937499999999998        0.0000000000000000     
  0.29375000000000001       0.98124999999999996        0.0000000000000000     
  0.27187499999999998       0.97812500000000002        0.0000000000000000     
  0.34375000000000000       0.93750000000000000        0.0000000000000000     
  0.37500000000000000       0.93750000000000000        0.0000000000000000     
  0.37500000000000000       0.96875000000000000        0.0000000000000000     
  0.33124999999999999       0.95625000000000004        0.0000000000000000     
  0.35312500000000002       0.95937499999999998        0.0000000000000000     
  0.35625000000000001       0.98124999999999996        0.0000000000000000     
[...]
 CELL_DATA        3584
 SCALARS Tumor_cells float
 LOOKUP_TABLE default
   -0.33493490504134410230E-06
   -0.28470065368400397460E-06
   -0.34677927512761589247E-06
   -0.34678080445677997746E-06
   -0.28470056377738511303E-06
   -0.33493306740604684629E-06
   -0.19280864059207699026E-06
   -0.28469756773737962569E-06
   -0.22157362016907690239E-06
   -0.22157400868479582857E-06
   -0.28469761970646845864E-06
   -0.19280839226324532737E-06
   -0.35745994428469299608E-06
   -0.35746009492741430553E-06
   -0.33493668006626220360E-06
   -0.28470003936571551192E-06
   -0.34677917938780172513E-06
   -0.34678071963274097010E-06
   -0.28470051995437037017E-06
   -0.33493303587030855909E-06
   -0.19280868093573563388E-06
   -0.28469736157026997172E-06
   -0.22157424537931920571E-06
   -0.34677902835970932969E-06
   -0.28470083890808435314E-06
   -0.33493503775422831479E-06
   -0.35745917078150476400E-06
   -0.35745980544109881964E-06
   -0.33493486567790949291E-06
   -0.28470057187122416357E-06
   -0.34677923126515683696E-06
   -0.34678080777583564729E-06
   -0.28469982280566316110E-06
   -0.33493411560439463569E-06
   -0.33493658150478906542E-06
   -0.28470074084956603827E-06
   -0.34677724843062377675E-06
   -0.22157440753721210810E-06
   -0.28469734829186634137E-06
   -0.19280845156478199142E-06
   -0.35745952031356067021E-06
   -0.35745945344090277812E-06
   -0.33493648273789667324E-06
   -0.28470000457022402559E-06
   -0.34677924682455100226E-06
   -0.34678077593288750985E-06
   -0.28469981519050371076E-06
   -0.33493405571784765212E-06
   -0.33493632237013958637E-06
   -0.28470011910199198811E-06
   -0.34677944080425790831E-06
   -0.34678094415208743465E-06
   -0.28469996346909126640E-06
   -0.33493490555781455389E-06
   -0.35745884628015399870E-06
   -0.35745923911649695925E-06
   -0.33493668770310421508E-06
   -0.28470014864454935973E-06
   -0.34677933471646854099E-06
   -0.34678082583854966143E-06
   -0.28470048448742030232E-06
   -0.33493297137363642345E-06
   -0.19280860762186437233E-06
   -0.28469728539171811537E-06
   -0.22157429661456632761E-06
   -0.34677909644396447302E-06
   -0.28470084633380732005E-06
   -0.33493488436172391521E-06
   -0.35745919097227878501E-06
   -0.35745979426489263330E-06
   -0.33493713498256069353E-06
   -0.28470054234532417131E-06
   -0.34678030441763899468E-06
   -0.34678132227635610956E-06
   -0.28470069504658425263E-06
   -0.33493302112279372672E-06
   -0.19280859577366962654E-06
   -0.28469730608642888263E-06
   -0.22157427532491078844E-06
   -0.34677915304577279721E-06
   -0.28470080393403551574E-06
   -0.33493504732519472833E-06
   -0.35745928439126809901E-06
   -0.35746000702824838824E-06
   -0.33493846996628159252E-06
   -0.28470305970195815412E-06
   -0.34678572158453874674E-06
   -0.34678611801319433520E-06
   -0.28470223051286335297E-06
   -0.33493501689182731152E-06
   -0.33493657617818298958E-06
   -0.28470028748521174339E-06
   -0.34677948902457198729E-06
   -0.34678099137753601196E-06
   -0.28470017263131111592E-06
   -0.33493522297937759597E-06
   -0.35745939016875499292E-06
   -0.35745975649356317443E-06
   -0.33496871884830645741E-06
   -0.28473404100963757096E-06
   -0.34684398308869429889E-06
   -0.34682810486285620486E-06
   -0.28472108746128704609E-06
   -0.33494068638884826923E-06
   -0.33493876658761764961E-06
   -0.28470427414234938674E-06
   -0.34678029498268780832E-06
   -0.34678208592714286692E-06
   -0.28470647693268628342E-06
   -0.33494398086480358434E-06
   -0.35746443335295228924E-06
   -0.35746643270720899500E-06
   -0.33493489535423210751E-06
   -0.28470064576310538790E-06
   -0.34677936916531131719E-06
   -0.34678086893457455451E-06
   -0.28469981959177489024E-06
   -0.33493414797318712659E-06
   -0.33493646389300067188E-06
   -0.28470074362181911255E-06
   -0.34677727788227699014E-06
   -0.22157436135258665788E-06
   -0.28469738068710648314E-06
   -0.19280844063385836187E-06
   -0.35745951195044725170E-06
   -0.35745944131765938783E-06
   -0.33493739157367589933E-06
   -0.28470238392396991956E-06
   -0.34678479296137117649E-06
   -0.34678724034909768493E-06
   -0.28470284749849604776E-06
   -0.33493616588139809824E-06
   -0.33493679608765555320E-06
   -0.28470026832266197554E-06
   -0.34677953544146260667E-06
   -0.34678115406540633861E-06
   -0.28470009832936731871E-06
   -0.33493514069186249954E-06
   -0.35745946874743198593E-06
   -0.35745970366788993307E-06
   -0.33493493305308355112E-06
   -0.28470077743404733101E-06
   -0.34677999517295721332E-06
   -0.34678176416241261739E-06
   -0.28470027391216976697E-06
   -0.33493467944674161549E-06
   -0.33493662212179527317E-06
   -0.28470072628720212614E-06
   -0.34677725597116444194E-06
   -0.22157437375482258397E-06
   -0.28469735329261894828E-06
   -0.19280843526013840768E-06
   -0.35745969307216220175E-06
   -0.35745959312504279412E-06
   -0.33494294696295221149E-06
   -0.28472137514400352481E-06
   -0.34682691609638919855E-06
   -0.34684549474223599142E-06
   -0.28473378550597365015E-06
   -0.33496647802426592897E-06
   -0.33494560838049637945E-06
   -0.28470667549227630071E-06
   -0.34678042414126734943E-06
   -0.34678193837572160862E-06
   -0.28470409056881329108E-06
   -0.33493719418996322450E-06
   -0.35746624405308293729E-06
   -0.35746469904650107488E-06
   -0.33497601413816726573E-06
   -0.28477784267422567272E-06
   -0.34693146040829587312E-06
   -0.34693277052706930860E-06
   -0.28477754930856233942E-06
   -0.33497385089944795899E-06
   -0.33494932567505551173E-06
   -0.28471525652739185055E-06
   -0.34678164224253291543E-06
   -0.34678335039023656384E-06
   -0.28471501767550925278E-06
   -0.33494770525439168600E-06
   -0.35747564174723252009E-06
   -0.35747588345172308441E-06
   -0.33566631489512865297E-06
   -0.28572781512609447942E-06
   -0.34840495736969828137E-06
   -0.34820434987404160636E-06
   -0.28551743342665894997E-06
   -0.33523356626876089064E-06
   -0.33506006664683232790E-06
   -0.28490888931660256690E-06
   -0.34681528200370933218E-06
   -0.34681854665767036521E-06
   -0.28495710258435262620E-06
   -0.33518673218937812050E-06
   -0.35762279514920334129E-06
   -0.35768692118053943129E-06
   -0.33523557890950541507E-06
   -0.28551765695904209499E-06
   -0.34820330872672043058E-06
   -0.34840643829391988060E-06
   -0.28572757903260855570E-06
   -0.33566431644785910409E-06
   -0.33518840619948384321E-06
   -0.28495743858897636853E-06
   -0.34681655914799549208E-06
   -0.34681687344587763106E-06
   -0.28490857553776337153E-06
   -0.33505849486892946392E-06
   -0.35768676830286176293E-06
   -0.35762305657960316908E-06
   -0.34101079162509540428E-06
   -0.29788385851559846774E-06
   -0.36388952026063899002E-06
   -0.36389072862691031813E-06
   -0.29788369029574198653E-06
   -0.34100893060229287933E-06
   -0.33768844268035143616E-06
   -0.28877716893794194248E-06
   -0.34739043479075737712E-06
   -0.34739229911825783406E-06
   -0.28877674495106915040E-06
   -0.33768673600606572879E-06
   -0.35967549611953193520E-06
   -0.35967572227888109291E-06
   -0.33493981583341871650E-06
   -0.28470227634020411211E-06
   -0.34678337782475799922E-06
   -0.34678291765861330613E-06
   -0.28470131863134560739E-06
   -0.33493322757766154281E-06
   -0.19280864078606037302E-06
   -0.28469735011029800718E-06
   -0.22157430994096475058E-06
   -0.34677920949681089792E-06
   -0.28470105471847305273E-06
   -0.33493579376321685913E-06
   -0.35745960460829942968E-06
   -0.35746044804014439519E-06
   -0.33494531950598146229E-06
   -0.28470495607325366571E-06
   -0.34678721333563299244E-06
   -0.34678473720051764994E-06
   -0.28470200212365083370E-06
   -0.33493333813715070866E-06
   -0.19280868796203227358E-06
   -0.28469744793717329858E-06
   -0.22157436349811351645E-06
   -0.34677933463671980667E-06
   -0.28470170193548868188E-06
   -0.33493751960509625673E-06
   -0.35746007306157021559E-06
   -0.35746103959337605002E-06
   -0.33514134496697416282E-06
   -0.28486613210183435773E-06
   -0.34704201031664103421E-06
   -0.34695445739304582773E-06
   -0.28478055133538743353E-06
   -0.33495406258008059711E-06
   -0.33494501807714685922E-06
   -0.28472143700832945330E-06
   -0.34678454599449826846E-06
   -0.34678747421414548590E-06
   -0.28474055085608648931E-06
   -0.33499983173434346338E-06
   -0.35748295656757255627E-06
   -0.35749717367067352144E-06
   -0.33550054609018759673E-06
   -0.28507206391005041528E-06
   -0.34728513343333957619E-06
   -0.34709311921829971818E-06
   -0.28484659945347397503E-06
   -0.33496626023321037858E-06
   -0.33495197591208474263E-06
   -0.28474790199987391616E-06
   -0.34679354325813449329E-06
   -0.34679994490292813911E-06
   -0.28480865396806098990E-06
   -0.33513340539711914253E-06
   -0.35751251457903621315E-06
   -0.35755036314281908755E-06
   -0.33494946341351314934E-06
   -0.28470657913875769927E-06
   -0.34678899497202806471E-06
   -0.34678544679400264429E-06
   -0.28470231953944981657E-06
   -0.33493340757585526273E-06
   -0.19280873167745202104E-06
   -0.28469754751551822497E-06
   -0.22157442900419812406E-06
   -0.34677949206992558324E-06
   -0.28470223693442489632E-06
   -0.33493902187113040177E-06
   -0.35746039694240883711E-06
   -0.35746138295973741396E-06
   -0.33495050691199185181E-06
   -0.28470689038175013361E-06
   -0.34678927343671468321E-06
   -0.34678558189627246269E-06
   -0.28470236677412734724E-06
   -0.33493342301242568022E-06
   -0.19280872178837576671E-06
   -0.28469763330708543383E-06
   -0.22157446382367131011E-06
   -0.34677951950522655362E-06
   -0.28470236670337881444E-06
   -0.33493950314857561794E-06
   -0.35746048506962985218E-06
   -0.35746144895052966409E-06
   -0.33576191278414475872E-06
   -0.28518857301207401770E-06
   -0.34739218654822913587E-06
   -0.34714686377685005801E-06
   -0.28487208097241739195E-06
   -0.33497041369557186625E-06
   -0.33495488246845611709E-06
   -0.28476239070445644839E-06
   -0.34680085720094897845E-06
   -0.34681166253831830361E-06
   -0.28485869242878151564E-06
   -0.33525017552218478783E-06
   -0.35753354743723872673E-06
   -0.35758325495799151190E-06
   -0.33582559628339548840E-06
   -0.28521170476326883816E-06
   -0.34740861531975786637E-06
   -0.34715394421393690639E-06
   -0.28487549119153426233E-06
   -0.33497098715623540721E-06
   -0.33495536500645603007E-06
   -0.28476516269348001002E-06
   -0.34680302851539798307E-06
   -0.34681557111652188127E-06
   -0.28487192089205302543E-06
   -0.33528652177138751789E-06
   -0.35753942591133830167E-06
   -0.35759011455954361663E-06
   -0.34023880407935055993E-06
   -0.29008593035989983107E-06
   -0.35375441960593464422E-06
   -0.35233969054999202294E-06
   -0.28809559879839765079E-06
   -0.33585465480054605956E-06
   -0.33540486340952895275E-06
   -0.28584557634762383160E-06
   -0.34701989695457742484E-06
   -0.34703091836849305395E-06
   -0.28638521407905878816E-06
   -0.33690678419566804973E-06
   -0.35804552134415230378E-06
   -0.35882704262498459132E-06
   -0.35045763976634770020E-06
   -0.29706192949123124935E-06
   -0.36045756703832093692E-06
   -0.35696835181924867842E-06
   -0.29094087193567533526E-06
   -0.33638123899501700417E-06
   -0.33577669145580438401E-06
   -0.28734603269330937920E-06
   -0.34750624322352754427E-06
   -0.34756260302074324392E-06
   -0.28926827564963015689E-06
   -0.34140024307795567922E-06
   -0.35869191644234094021E-06
   -0.36106172830755427510E-06
   -0.39200983806397875001E-06
   -0.36796408241004849588E-06
   -0.44332895911692905595E-06
   -0.42701305478693730715E-06
   -0.35242077659129017984E-06
   -0.35488060862920523695E-06
   -0.34627002427137805116E-06
   -0.31128897469265744782E-06
   -0.35148669167203365749E-06
   -0.35120600707458135752E-06
   -0.31515514993617978002E-06
   -0.36220355996456712690E-06
   -0.36579063450051385179E-06
   -0.37555516114167899763E-06
   -0.52324717633020547462E-06
   -0.48622864825644615934E-06
   -0.54016531643348033529E-06
   -0.51067835558865770222E-06
   -0.42025064174174735108E-06
   -0.37085307835906092970E-06
   -0.35587525749320164382E-06
   -0.35196844045968017490E-06
   -0.36350703157375320577E-06
   -0.36439004375349885065E-06
   -0.37476807374573072968E-06
   -0.45691831208501284142E-06
   -0.39641742587357337654E-06
   -0.41593123358125557344E-06
   -0.35784096914971275707E-06
   -0.30076248682506723181E-06
   -0.36329122983388670867E-06
   -0.35865200011046432053E-06
   -0.29190793874503531347E-06
   -0.33655316275351634237E-06
   -0.33591942853991383144E-06
   -0.28810820706809510738E-06
   -0.34791183870742227047E-06
   -0.34809199520041389758E-06
   -0.29124541064786510413E-06
   -0.34532402432898289512E-06
   -0.35933851716636310152E-06
   -0.36245230992775918857E-06
   -0.35944113526184640092E-06
   -0.30140844384607501952E-06
   -0.36368372169918280013E-06
   -0.35884730470976096281E-06
   -0.29201667743216452766E-06
   -0.33657555600162607809E-06
   -0.33593963524675141977E-06
   -0.28822941474018834293E-06
   -0.34802168162361140956E-06
   -0.34827456859098127454E-06
   -0.29170725232444934675E-06
   -0.34643172520843000264E-06
   -0.35954367850134842857E-06
   -0.36271004451564623311E-06
   -0.61273697410937667739E-06
   -0.55488053496350101754E-06
   -0.59469292192865923082E-06
   -0.54474632760630583425E-06
   -0.44089359099357332531E-06
   -0.37695560867137690716E-06
   -0.35986493015115772540E-06
   -0.37099741238147596102E-06
   -0.37390193807968750511E-06
   -0.38034080112062545609E-06
   -0.42337943528939345045E-06
   -0.53671662065717657271E-06
   -0.42980437246610113574E-06
   -0.44101512763820959313E-06
   -0.63430734531691830120E-06
   -0.56654047641053026310E-06
   -0.60059512764369159392E-06
   -0.54816780429180400758E-06
   -0.44279603292117355608E-06
   -0.37763358115350211052E-06
   -0.36041545956566875799E-06
   -0.37342363842820763951E-06
   -0.37639027171216780666E-06
   -0.38498942252963183753E-06
   -0.43436035122301025800E-06
   -0.55394698238506442502E-06
   -0.43611935419454573603E-06
   -0.44502199123191806428E-06
   -0.33493508615845346952E-06
   -0.28470139336730532807E-06
   -0.34678164630381195203E-06
   -0.34678488229258128699E-06
   -0.28470201409042860391E-06
   -0.33493747418477912801E-06
   -0.33493739628258817470E-06
   -0.28470096128643747258E-06
   -0.34677737377270362107E-06
   -0.22157438238861390404E-06
   -0.28469740292406921801E-06
   -0.19280846606740631091E-06
   -0.35746015134131927593E-06
   -0.35745997883874504645E-06
   -0.33495632330436739845E-06
   -0.28478070691806031908E-06
   -0.34695329158238358439E-06
   -0.34704351616259873268E-06
   -0.28486588503712845608E-06
   -0.33513916556069865794E-06
   -0.33500147835818729406E-06
   -0.28474079664946618793E-06
   -0.34678559174008020582E-06
   -0.34678605923356292435E-06
   -0.28472125583780560609E-06
   -0.33494342083326058708E-06
   -0.35749702304831096652E-06
   -0.35748322742507988652E-06
   -0.33493525350558305311E-06
   -0.28470206818021392163E-06
   -0.34678341259375747133E-06
   -0.34678874037859908980E-06
   -0.28470471297204711717E-06
   -0.33494300680156078307E-06
   -0.33493912828918082690E-06
   -0.28470163141030957769E-06
   -0.34677756026770627382E-06
   -0.22157445883586488712E-06
   -0.28469756563165063662E-06
   -0.19280851504194282538E-06
   -0.35746077380916223413E-06
   -0.35746045038887448427E-06
   -0.33496859050638462678E-06
   -0.28484682598254941433E-06
   -0.34709190882813098934E-06
   -0.34728660614995437687E-06
   -0.28507181793971002269E-06
   -0.33549839913762095921E-06
   -0.33513507417783498422E-06
   -0.28480892836100459148E-06
   -0.34679803147444815398E-06
   -0.34679503485094109810E-06
   -0.28474769937801425724E-06
   -0.33495039623456298305E-06
   -0.35755023686995300164E-06
   -0.35751283848370817129E-06
   -0.33585667189435682235E-06
   -0.28809579636972007663E-06
   -0.35233865229368402870E-06
   -0.35375585559330842154E-06
   -0.29008564485207395799E-06
   -0.34023674813869522981E-06
   -0.33690846718493880629E-06
   -0.28638562716427831237E-06
   -0.34702879847873993664E-06
   -0.34702148398028057311E-06
   -0.28584533560753438196E-06
   -0.33540323085921297957E-06
   -0.35882691326070643416E-06
   -0.35804589967314375985E-06
   -0.35488238472187200161E-06
   -0.35242072095979123689E-06
   -0.42701222087363371556E-06
   -0.44333003759951024164E-06
   -0.36796421601721691212E-06
   -0.39200848288630592121E-06
   -0.36220499987329253314E-06
   -0.31515569855639178560E-06
   -0.35120379572886022784E-06
   -0.35148831147387003503E-06
   -0.31128862789776738778E-06
   -0.34626853082283851419E-06
   -0.37555505237864676302E-06
   -0.36579094721755193153E-06
   -0.33638329809247863132E-06
   -0.29094101395479380750E-06
   -0.35696736038796830584E-06
   -0.36045890234990610812E-06
   -0.29706168029378326033E-06
   -0.35045578373311281796E-06
   -0.34140197303483087830E-06
   -0.28926884244669169573E-06
   -0.34756048137255809256E-06
   -0.34750776206175426137E-06
   -0.28734574903196953842E-06
   -0.33577506956635138761E-06
   -0.36106158966920295804E-06
   -0.35869226041082742729E-06
   -0.37085489738604976265E-06
   -0.42025052445665019500E-06
   -0.51067773660658947363E-06
   -0.54016611537852117153E-06
   -0.48622846768665501898E-06
   -0.52324626304211492829E-06
   -0.45691932372858573645E-06
   -0.37476869409707806302E-06
   -0.36438797491794739782E-06
   -0.36350851018920635393E-06
   -0.35196812044937099371E-06
   -0.35587388604455248806E-06
   -0.41593113838810815875E-06
   -0.39641757477016299970E-06
   -0.33493531949663412474E-06
   -0.28470233980788765323E-06
   -0.34678414233899674931E-06
   -0.34679050458220727468E-06
   -0.28470630595927010980E-06
   -0.33494712868476555113E-06
   -0.33494062194146132796E-06
   -0.28470220374689432907E-06
   -0.34677772649080243704E-06
   -0.22157456058826053304E-06
   -0.28469768895127187154E-06
   -0.19280854229845697817E-06
   -0.35746108225484725959E-06
   -0.35746074854731567209E-06
   -0.33497283630725056594E-06
   -0.28487230819448738427E-06
   -0.34714570087470434972E-06
   -0.34739364038588159354E-06
   -0.28518826740631952254E-06
   -0.33575973758628707192E-06
   -0.33525179053881488543E-06
   -0.28485899125901295131E-06
   -0.34680969431821002394E-06
   -0.34680242256562801496E-06
   -0.28476219448406125853E-06
   -0.33495333075610684658E-06
   -0.35758310590765317977E-06
   -0.35753387570221511585E-06
   -0.33493530365356777837E-06
   -0.28470239124946676007E-06
   -0.34678424247613539905E-06
   -0.34679077565300470083E-06
   -0.28470665845048162172E-06
   -0.33494819720176673138E-06
   -0.33494109118140829909E-06
   -0.28470237330638429127E-06
   -0.34677776449534351851E-06
   -0.22157454668641354845E-06
   -0.28469768503498211151E-06
   -0.19280854736907254493E-06
   -0.35746116955126050821E-06
   -0.35746082320369246514E-06
   -0.33497351866265165330E-06
   -0.28487568456709973625E-06
   -0.34715275484725192455E-06
   -0.34741008076128058671E-06
   -0.28521147655905270855E-06
   -0.33582351632665915072E-06
   -0.33528819379583667752E-06
   -0.28487219587011264035E-06
   -0.34681381895040648866E-06
   -0.34680454625529523574E-06
   -0.28476493022548383008E-06
   -0.33495379437710670798E-06
   -0.35758997230241259198E-06
   -0.35753974621933371816E-06
   -0.33655573313175499274E-06
   -0.29190809435395171495E-06
   -0.35865098696977593782E-06
   -0.36329257744089901595E-06
   -0.30076219147613549188E-06
   -0.35783909710334705911E-06
   -0.34532567954833295075E-06
   -0.29124590664222169348E-06
   -0.34808989111886356817E-06
   -0.34791343774321764807E-06
   -0.28810793411906411292E-06
   -0.33591779153678451218E-06
   -0.36245218598516655558E-06
   -0.35933887884797664120E-06
   -0.37695816967767525798E-06
   -0.44089346002643158747E-06
   -0.54474569432477646792E-06
   -0.59469380831262258565E-06
   -0.55488022845770985318E-06
   -0.61273611149433128078E-06
   -0.53671762353217466522E-06
   -0.42338014715064954831E-06
   -0.38033885340615261392E-06
   -0.37390330839327005402E-06
   -0.37099708078471363214E-06
   -0.35986362236370859309E-06