# vtk DataFile Version 3.0
LAPLACIEN  2D
ASCII
DATASET UNSTRUCTURED_GRID
 POINTS        1857  float
   3.1250000000000000E-002  0.93750000000000000        0.0000000000000000     
   6.2500000000000000E-002  0.93750000000000000        0.0000000000000000     
   6.2500000000000000E-002  0.96875000000000000        0.0000000000000000     
   1.8749999999999999E-002  0.95625000000000004        0.0000000000000000     
   4.0625000000000001E-002  0.95937499999999998        0.0000000000000000     
   4.3749999999999997E-002  0.98124999999999996        0.0000000000000000     
   2.1874999999999999E-002  0.97812500000000002        0.0000000000000000     
   9.3750000000000000E-002  0.93750000000000000        0.0000000000000000     
  0.12500000000000000       0.93750000000000000        0.0000000000000000     
  0.12500000000000000       0.96875000000000000        0.0000000000000000     
   8.1250000000000003E-002  0.95625000000000004        0.0000000000000000     
  0.10312499999999999       0.95937499999999998        0.0000000000000000     
  0.10625000000000000       0.98124999999999996        0.0000000000000000     
   8.4375000000000006E-002  0.97812500000000002        0.0000000000000000     
   3.1250000000000000E-002  0.87500000000000000        0.0000000000000000     
   6.2500000000000000E-002  0.87500000000000000        0.0000000000000000     
   6.2500000000000000E-002  0.90625000000000000        0.0000000000000000     
   1.8749999999999999E-002  0.89375000000000004        0.0000000000000000     
   4.0625000000000001E-002  0.89687499999999998        0.0000000000000000     
   4.3749999999999997E-002  0.91874999999999996        0.0000000000000000     
   2.1874999999999999E-002  0.91562500000000002        0.0000000000000000     
   9.3750000000000000E-002  0.87500000000000000        0.0000000000000000     
  0.12500000000000000       0.87500000000000000        0.0000000000000000     
  0.12500000000000000       0.90625000000000000        0.0000000000000000     
   8.1250000000000003E-002  0.89375000000000004        0.0000000000000000     
  0.10312499999999999       0.89687499999999998        0.0000000000000000     
  0.10625000000000000       0.91874999999999996        0.0000000000000000     
   8.4375000000000006E-002  0.91562500000000002        0.0000000000000000     
  0.15625000000000000       0.93750000000000000        0.0000000000000000     
  0.18750000000000000       0.93750000000000000        0.0000000000000000     
  0.18750000000000000       0.96875000000000000        0.0000000000000000     
  0.14374999999999999       0.95625000000000004        0.0000000000000000     
  0.16562499999999999       0.95937499999999998        0.0000000000000000     
  0.16875000000000001       0.98124999999999996        0.0000000000000000     
  0.14687500000000001       0.97812500000000002        0.0000000000000000     
  0.21875000000000000       0.93750000000000000        0.0000000000000000     
  0.25000000000000000       0.93750000000000000        0.0000000000000000     
  0.25000000000000000       0.96875000000000000        0.0000000000000000     
  0.20624999999999999       0.95625000000000004        0.0000000000000000     
  0.22812499999999999       0.95937499999999998        0.0000000000000000     
  0.23125000000000001       0.98124999999999996        0.0000000000000000     
  0.20937500000000001       0.97812500000000002        0.0000000000000000     
  0.15625000000000000       0.87500000000000000        0.0000000000000000     
  0.18750000000000000       0.87500000000000000        0.0000000000000000     
  0.18750000000000000       0.90625000000000000        0.0000000000000000     
  0.14374999999999999       0.89375000000000004        0.0000000000000000     
  0.16562499999999999       0.89687499999999998        0.0000000000000000     
  0.16875000000000001       0.91874999999999996        0.0000000000000000     
  0.14687500000000001       0.91562500000000002        0.0000000000000000     
  0.21875000000000000       0.87500000000000000        0.0000000000000000     
  0.25000000000000000       0.87500000000000000        0.0000000000000000     
  0.25000000000000000       0.90625000000000000        0.0000000000000000     
  0.20624999999999999       0.89375000000000004        0.0000000000000000     
  0.22812499999999999       0.89687499999999998        0.0000000000000000     
  0.23125000000000001       0.91874999999999996        0.0000000000000000     
  0.20937500000000001       0.91562500000000002        0.0000000000000000     
   3.1250000000000000E-002  0.81250000000000000        0.0000000000000000     
   6.2500000000000000E-002  0.81250000000000000        0.0000000000000000     
   6.2500000000000000E-002  0.84375000000000000        0.0000000000000000     
   1.8749999999999999E-002  0.83125000000000004        0.0000000000000000     
   4.0625000000000001E-002  0.83437499999999998        0.0000000000000000     
   4.3749999999999997E-002  0.85624999999999996        0.0000000000000000     
   2.1874999999999999E-002  0.85312500000000002        0.0000000000000000     
   9.3750000000000000E-002  0.81250000000000000        0.0000000000000000     
  0.12500000000000000       0.81250000000000000        0.0000000000000000     
  0.12500000000000000       0.84375000000000000        0.0000000000000000     
   8.1250000000000003E-002  0.83125000000000004        0.0000000000000000     
  0.10312499999999999       0.83437499999999998        0.0000000000000000     
  0.10625000000000000       0.85624999999999996        0.0000000000000000     
   8.4375000000000006E-002  0.85312500000000002        0.0000000000000000     
   3.1250000000000000E-002  0.75000000000000000        0.0000000000000000     
   6.2500000000000000E-002  0.75000000000000000        0.0000000000000000     
   6.2500000000000000E-002  0.78125000000000000        0.0000000000000000     
   1.8749999999999999E-002  0.76875000000000004        0.0000000000000000     
   4.0625000000000001E-002  0.77187499999999998        0.0000000000000000     
   4.3749999999999997E-002  0.79374999999999996        0.0000000000000000     
   2.1874999999999999E-002  0.79062500000000002        0.0000000000000000     
   9.3750000000000000E-002  0.75000000000000000        0.0000000000000000     
  0.12500000000000000       0.75000000000000000        0.0000000000000000     
  0.12500000000000000       0.78125000000000000        0.0000000000000000     
   8.1250000000000003E-002  0.76875000000000004        0.0000000000000000     
  0.10312499999999999       0.77187499999999998        0.0000000000000000     
  0.10625000000000000       0.79374999999999996        0.0000000000000000     
   8.4375000000000006E-002  0.79062500000000002        0.0000000000000000     
  0.15625000000000000       0.81250000000000000        0.0000000000000000     
  0.18750000000000000       0.81250000000000000        0.0000000000000000     
  0.18750000000000000       0.84375000000000000        0.0000000000000000     
  0.14374999999999999       0.83125000000000004        0.0000000000000000     
  0.16562499999999999       0.83437499999999998        0.0000000000000000     
  0.16875000000000001       0.85624999999999996        0.0000000000000000     
  0.14687500000000001       0.85312500000000002        0.0000000000000000     
  0.21875000000000000       0.81250000000000000        0.0000000000000000     
  0.25000000000000000       0.81250000000000000        0.0000000000000000     
  0.25000000000000000       0.84375000000000000        0.0000000000000000     
  0.20624999999999999       0.83125000000000004        0.0000000000000000     
  0.22812499999999999       0.83437499999999998        0.0000000000000000     
  0.23125000000000001       0.85624999999999996        0.0000000000000000     
  0.20937500000000001       0.85312500000000002        0.0000000000000000     
  0.15625000000000000       0.75000000000000000        0.0000000000000000     
  0.18750000000000000       0.75000000000000000        0.0000000000000000     
  0.18750000000000000       0.78125000000000000        0.0000000000000000     
  0.14374999999999999       0.76875000000000004        0.0000000000000000     
  0.16562499999999999       0.77187499999999998        0.0000000000000000     
  0.16875000000000001       0.79374999999999996        0.0000000000000000     
  0.14687500000000001       0.79062500000000002        0.0000000000000000     
  0.21875000000000000       0.75000000000000000        0.0000000000000000     
  0.25000000000000000       0.75000000000000000        0.0000000000000000     
  0.25000000000000000       0.78125000000000000        0.0000000000000000     
  0.20624999999999999       0.76875000000000004        0.0000000000000000     
  0.22812499999999999       0.77187499999999998        0.0000000000000000     
  0.23125000000000001       0.79374999999999996        0.0000000000000000     
  0.20937500000000001       0.79062500000000002        0.0000000000000000     
  0.28125000000000000       0.93750000000000000        0.0000000000000000     
  0.31250000000000000       0.93750000000000000        0.0000000000000000     
  0.31250000000000000       0.96875000000000000        0.0000000000000000     
  0.26874999999999999       0.95625000000000004        0.0000000000000000     
  0.29062500000000002       0.95937499999999998        0.0000000000000000     
  0.29375000000000001       0.98124999999999996        0.0000000000000000     
  0.27187499999999998       0.97812500000000002        0.0000000000000000     
  0.34375000000000000       0.93750000000000000        0.0000000000000000     
  0.37500000000000000       0.93750000000000000        0.0000000000000000     
  0.37500000000000000       0.96875000000000000        0.0000000000000000     
  0.33124999999999999       0.95625000000000004        0.0000000000000000     
  0.35312500000000002       0.95937499999999998        0.0000000000000000     
  0.35625000000000001       0.98124999999999996        0.0000000000000000     
[...]
 CELL_DATA        3584
 SCALARS Tumor_cells float
 LOOKUP_TABLE default
   -0.23222616821155487447E-06
   -0.29609919384028055476E-06
   -0.18808203780624365698E-06
   -0.18808481294001232233E-06
   -0.29609914112752749907E-06
   -0.23222321616022291629E-06
   -0.27657425573515791828E-06
   -0.29609297292096127564E-06
   -0.29186862212289977873E-06
   -0.29186931754489570235E-06
   -0.29609328275623265019E-06
   -0.27657401559544245704E-06
    0.17764087721392679946E-07
    0.17763848220108450367E-07
   -0.23223490681081023623E-06
   -0.29610220706140795298E-06
   -0.18809548676513654160E-06
   -0.18809647108094390464E-06
   -0.29610240440310318788E-06
   -0.23222695746275766552E-06
   -0.27657654473567655897E-06
   -0.29609298973852288126E-06
   -0.29187081130525480168E-06
   -0.18808010265906799838E-06
   -0.29609893989750247938E-06
   -0.23222954579348529732E-06
    0.17759380721014531070E-07
    0.17758732570243042230E-07
   -0.23223007035220720314E-06
   -0.29610235340726452869E-06
   -0.18809392612833468934E-06
   -0.18809835134146788336E-06
   -0.29610195791951981958E-06
   -0.23223076287290394769E-06
   -0.23223194821704306849E-06
   -0.29609869523894533624E-06
   -0.18807688098022102865E-06
   -0.29187109262775858642E-06
   -0.29609308612761639003E-06
   -0.27657632994590422143E-06
    0.17759124177271667786E-07
    0.17758927101437787468E-07
   -0.23226977696423889072E-06
   -0.29612816876438727133E-06
   -0.18820308849524818283E-06
   -0.18820565685708006245E-06
   -0.29612808584522726534E-06
   -0.23226604620429521963E-06
   -0.23224959641128608093E-06
   -0.29609029744073365418E-06
   -0.18809145710053039983E-06
   -0.18809435631765179217E-06
   -0.29609015825813338708E-06
   -0.23224707966513494828E-06
    0.17703377195879043332E-07
    0.17702843099073562061E-07
   -0.23226133026104745163E-06
   -0.29612276653592378971E-06
   -0.18816553742729514740E-06
   -0.18815010818269332892E-06
   -0.29611666865093874906E-06
   -0.23224591696924703014E-06
   -0.27658792847847521882E-06
   -0.29609132871790113285E-06
   -0.29187724302076421366E-06
   -0.18808777151292974761E-06
   -0.29609760939140780375E-06
   -0.23224424697499772577E-06
    0.17721221821698110376E-07
    0.17732831458393544687E-07
   -0.23236240477989741645E-06
   -0.29619762985714826164E-06
   -0.18838533091590096938E-06
   -0.18829674332940328082E-06
   -0.29615932906493521419E-06
   -0.23230062024745443665E-06
   -0.27662188698556863719E-06
   -0.29608432448227218812E-06
   -0.29190094632934859526E-06
   -0.18811718590767981710E-06
   -0.29610337335496066199E-06
   -0.23230876000231700119E-06
    0.17580225805373893104E-07
    0.17660245579289766029E-07
   -0.23249834688108672194E-06
   -0.29630226048061069509E-06
   -0.18879789630493706315E-06
   -0.18871477079670369764E-06
   -0.29625952464837015849E-06
   -0.23244081047117706772E-06
   -0.23234027875897559122E-06
   -0.29603260454441423472E-06
   -0.18815173917771985630E-06
   -0.18816321531553060020E-06
   -0.29605811782013855672E-06
   -0.23238020009243877469E-06
    0.17333885009812897843E-07
    0.17416328382050836537E-07
   -0.23339188313325551655E-06
   -0.29702357851459957203E-06
   -0.19074322214011564823E-06
   -0.19015791891675553273E-06
   -0.29668665353684792052E-06
   -0.23296459435062834045E-06
   -0.23262678241146797173E-06
   -0.29578885558585404966E-06
   -0.18837673562474139073E-06
   -0.18845439637557640241E-06
   -0.29604609914616574370E-06
   -0.23297508096080337437E-06
    0.15916484036700075269E-07
    0.16575697438046862298E-07
   -0.23224893835041265067E-06
   -0.29611662929531669513E-06
   -0.18814774511883027845E-06
   -0.18816828810448271217E-06
   -0.29612241864483084732E-06
   -0.23225741447408876708E-06
   -0.23224698014868031060E-06
   -0.29609743034867884210E-06
   -0.18808457574210811725E-06
   -0.29187742365697067802E-06
   -0.29609143201328645915E-06
   -0.27658765854362801370E-06
    0.17733250980546169132E-07
    0.17720736471879433296E-07
   -0.23244445442715201106E-06
   -0.29625967010931166775E-06
   -0.18871258214358997438E-06
   -0.18880060628728064511E-06
   -0.29630210124655993309E-06
   -0.23249480295403013734E-06
   -0.23238301746317673257E-06
   -0.29605847343679994712E-06
   -0.18816005682423362948E-06
   -0.18815473522020789133E-06
   -0.29603224183230994053E-06
   -0.23233763674847402202E-06
    0.17416807328726595826E-07
    0.17333426603474113007E-07
   -0.23230360280378569392E-06
   -0.29615923646671510860E-06
   -0.18829459801220267811E-06
   -0.18838802597998325575E-06
   -0.29619728724811280897E-06
   -0.23235846214350456368E-06
   -0.23231152832017687024E-06
   -0.29610330291841741474E-06
   -0.18811373337530997285E-06
   -0.29190113601055403522E-06
   -0.29608441903880890965E-06
   -0.27662168613516901432E-06
    0.17660643197073720077E-07
    0.17579632745546016694E-07
   -0.23296813275938425535E-06
   -0.29668697836946893045E-06
   -0.19015591434495734870E-06
   -0.19074597757243619695E-06
   -0.29702328825268603306E-06
   -0.23338835459769832927E-06
   -0.23297792492576587636E-06
   -0.29604655740644342442E-06
   -0.18845095650360237706E-06
   -0.18837967598288401782E-06
   -0.29578854407230118664E-06
   -0.23262409043496755303E-06
    0.16575974383371863898E-07
    0.15915979331603669521E-07
   -0.23372445892257137467E-06
   -0.29731731607457020934E-06
   -0.19193891599318603888E-06
   -0.19194120683911090367E-06
   -0.29731708235446605103E-06
   -0.23372109163802872369E-06
   -0.23310392113302744950E-06
   -0.29574888192020341389E-06
   -0.18861942910569530979E-06
   -0.18862269049916167222E-06
   -0.29574844631423700656E-06
   -0.23310108281771856330E-06
    0.15255894077467555860E-07
    0.15255499386191037254E-07
   -0.23915653426482342728E-06
   -0.30253698970458264297E-06
   -0.20336827531560409562E-06
   -0.20150786443263247039E-06
   -0.30133152695540863147E-06
   -0.23754383173450996231E-06
   -0.23545153943316857776E-06
   -0.29455327446409699354E-06
   -0.19037473976605012752E-06
   -0.19064607167786783310E-06
   -0.29561446117977122275E-06
   -0.23675463906983942046E-06
    0.66857416271576710708E-08
    0.88898001258615103540E-08
   -0.23754691603407646888E-06
   -0.30133160590962784603E-06
   -0.20150625487897408275E-06
   -0.20337062529367512864E-06
   -0.30253694197321452114E-06
   -0.23915353412462965082E-06
   -0.23675734515663384996E-06
   -0.29561511109201990849E-06
   -0.19064225853086583303E-06
   -0.19037761898912635363E-06
   -0.29455284617125582231E-06
   -0.23544895503601150161E-06
    0.88900756666167455970E-08
    0.66853573163193004401E-08
   -0.25958523504009201182E-06
   -0.33265870145077051487E-06
   -0.25232968164045023181E-06
   -0.25233125265727138749E-06
   -0.33265902412537270374E-06
   -0.25958290657770252185E-06
   -0.25078623503179611994E-06
   -0.29680290354814954311E-06
   -0.19923336012127436935E-06
   -0.19923664454225853339E-06
   -0.29680225218210840502E-06
   -0.25078397640996711937E-06
   -0.23828479357248040873E-07
   -0.23828824655204103278E-07
   -0.23260013492314376904E-06
   -0.29636551263305810293E-06
   -0.18879458384645838120E-06
   -0.18853629693228263447E-06
   -0.29623914615362809625E-06
   -0.23239629386414395514E-06
   -0.27668354055806812396E-06
   -0.29606850303735685235E-06
   -0.29195331624821350447E-06
   -0.18819001689186944334E-06
   -0.29614638111344075627E-06
   -0.23247604804054586451E-06
    0.17275090366802320288E-07
    0.17546087804947508142E-07
   -0.23293561392742390578E-06
   -0.29659263514429154684E-06
   -0.18924158723323661550E-06
   -0.18876811381700078489E-06
   -0.29633095352326966109E-06
   -0.23249619593502639468E-06
   -0.27675377750009304594E-06
   -0.29605041336112002648E-06
   -0.29202235622320335951E-06
   -0.18829832931931245423E-06
   -0.29625272692106840258E-06
   -0.23273656298223160901E-06
    0.16892353143382428603E-07
    0.17449295376490062360E-07
   -0.23563207703588144390E-06
   -0.29874361263070471648E-06
   -0.19449470925069221089E-06
   -0.19258111791647892535E-06
   -0.29755185012093476012E-06
   -0.23389810042450108311E-06
   -0.23316754960299329782E-06
   -0.29525316569471693485E-06
   -0.18887989196750883512E-06
   -0.18919058493010418443E-06
   -0.29639571876433009161E-06
   -0.23458681032771054282E-06
    0.12778810058288900289E-07
    0.15209193695138922193E-07
   -0.23896905263796481163E-06
   -0.30114294981077899643E-06
   -0.19865274293536497342E-06
   -0.19495627247806266527E-06
   -0.29857039645572157942E-06
   -0.23487790486208698896E-06
   -0.23377170126678066107E-06
   -0.29463370680916362160E-06
   -0.18954928201286652579E-06
   -0.19029439531105662395E-06
   -0.29750243917730772969E-06
   -0.23717842188300071892E-06
    0.88320179662230872467E-08
    0.14021485000682605362E-07
   -0.23321713350900300501E-06
   -0.29677398060327403201E-06
   -0.18952602263183072701E-06
   -0.18890013835328137686E-06
   -0.29639484614418562627E-06
   -0.23255794032947303036E-06
   -0.27680096664595399655E-06
   -0.29604262649733978160E-06
   -0.29207704219285142475E-06
   -0.18839414384012486613E-06
   -0.29637998961253819957E-06
   -0.23297732713881396034E-06
    0.16616247716687484676E-07
    0.17408139611275892121E-07
   -0.23335461778801320137E-06
   -0.29685684143869985834E-06
   -0.18962387556328996052E-06
   -0.18893762668418598018E-06
   -0.29641969831531121055E-06
   -0.23257731889952897303E-06
   -0.27681854026877230012E-06
   -0.29604298259333536984E-06
   -0.29210251250337657468E-06
   -0.18844363194625248219E-06
   -0.29646042502466406637E-06
   -0.23310804928402938183E-06
    0.16505776014592058696E-07
    0.17404294060827059816E-07
   -0.24182190473652093145E-06
   -0.30302556148889118996E-06
   -0.20126788908147379011E-06
   -0.19629641611375562471E-06
   -0.29925394351479236599E-06
   -0.23547904277686058939E-06
   -0.23417030237589839440E-06
   -0.29425720361286550849E-06
   -0.19007627890736960889E-06
   -0.19126844836924291666E-06
   -0.29889929232466352895E-06
   -0.23957939472967568934E-06
    0.60303883462441324430E-08
    0.13503839093173106036E-07
   -0.24317841424010927833E-06
   -0.30384915576498072307E-06
   -0.20214455335830015886E-06
   -0.19666975223497760742E-06
   -0.29950659674563579788E-06
   -0.23566535739645830815E-06
   -0.23431608335757922221E-06
   -0.29414641954934062742E-06
   -0.19031565106796812026E-06
   -0.19176420300468061570E-06
   -0.29977143353183277096E-06
   -0.24084489809213919606E-06
    0.49438005041658258903E-08
    0.13441317868122273838E-07
   -0.25486158561626371714E-06
   -0.31753968035646050200E-06
   -0.22856578589165276124E-06
   -0.21933161188218040730E-06
   -0.31107663350576640921E-06
   -0.24463844012983517349E-06
   -0.24001613401437542599E-06
   -0.29259688943210719146E-06
   -0.19438862486004254652E-06
   -0.19588091972410440840E-06
   -0.29917904948074276154E-06
   -0.24801239722974680300E-06
   -0.12849728719492898714E-07
   -0.22364311676515332635E-08
   -0.28497083124206432155E-06
   -0.33983723864764879381E-06
   -0.26242958673434207768E-06
   -0.23904704298778264182E-06
   -0.32305566606480843353E-06
   -0.25255744784579864471E-06
   -0.24506900404755740294E-06
   -0.29146181609761367874E-06
   -0.19997276044776177560E-06
   -0.20426344941377598675E-06
   -0.31055107208547675071E-06
   -0.26921544315597435210E-06
   -0.38885683898324428290E-07
   -0.13379264633309694927E-07
   -0.36479511067317078633E-06
   -0.45824579788909757368E-06
   -0.39723212721510523838E-06
   -0.37884278280830040992E-06
   -0.43607801131709277507E-06
   -0.31501625205438595483E-06
   -0.28425608020377383967E-06
   -0.31879704934520050701E-06
   -0.22298291741739514746E-06
   -0.22780490988624793383E-06
   -0.33631346562304635516E-06
   -0.32453558289431277216E-06
   -0.12839717903712775268E-06
   -0.97951197743508264149E-07
   -0.40267979900024147261E-06
   -0.57740686485229576124E-06
   -0.46027455609598406753E-06
   -0.50208693069784296844E-06
   -0.56593785955764208924E-06
   -0.40797077474369685491E-06
   -0.33678787602177156389E-06
   -0.37682895819753882882E-06
   -0.26983741699451481323E-06
   -0.30436987998837934973E-06
   -0.46196423287946662077E-06
   -0.45667676232624113595E-06
   -0.30664758200117406687E-06
   -0.20822486731362707181E-06
   -0.31590149553692612508E-06
   -0.35776238986967739960E-06
   -0.28665914141875160372E-06
   -0.25136385717361185411E-06
   -0.33038746157558470604E-06
   -0.25760026226650226865E-06
   -0.24830929169276447803E-06
   -0.29124780541808926468E-06
   -0.20457255138192996238E-06
   -0.21225952893175639002E-06
   -0.32442877642313759278E-06
   -0.29000944144616806496E-06
   -0.58331280255855742756E-07
   -0.19484116322650044804E-07
   -0.33068824877386063220E-06
   -0.36538300457995943376E-06
   -0.29453625838189678914E-06
   -0.25505810715623022201E-06
   -0.33270744257839682316E-06
   -0.25919183934359222557E-06
   -0.24944227567888376116E-06
   -0.29130676905040154242E-06
   -0.20669817174740416499E-06
   -0.21640383096598676248E-06
   -0.33238171176380717104E-06
   -0.30003055760389793941E-06
   -0.65848930875267632911E-07
   -0.20972929773135006129E-07
   -0.45846030162491917395E-06
   -0.66239080342771033758E-06
   -0.53521546743613426537E-06
   -0.58716361808334933245E-06
   -0.64736119502541785896E-06
   -0.47223888043366648178E-06
   -0.37594944594661201980E-06
   -0.42730798929469784051E-06
   -0.31905008988230609257E-06
   -0.39975229676663425430E-06
   -0.59604958586391227281E-06
   -0.56476295434683506207E-06
   -0.44144481372202025777E-06
   -0.29566205206637346948E-06
   -0.50239001205473424132E-06
   -0.69499242856430803816E-06
   -0.55046617980692793707E-06
   -0.60749223386583156899E-06
   -0.66823205683396782379E-06
   -0.49086771510348002699E-06
   -0.38817215708942190724E-06
   -0.44513508293525129795E-06
   -0.34302051385054931701E-06
   -0.44427837131609540990E-06
   -0.65868721170348015760E-06
   -0.62288672445692124523E-06
   -0.48814033826558954710E-06
   -0.32608235292710273444E-06
   -0.23239922745360574901E-06
   -0.29623899638835515195E-06
   -0.18853423756438406016E-06
   -0.18879730024954368450E-06
   -0.29636509923869537577E-06
   -0.23259641038108507818E-06
   -0.23247881158957355339E-06
   -0.29614627796191693511E-06
   -0.18818657995472304630E-06
   -0.29195347168715220453E-06
   -0.29606863215670145677E-06
   -0.27668330719967191572E-06
    0.17546471115250444444E-07
    0.17274438953467071119E-07
   -0.23390164449863710395E-06
   -0.29755193900143016906E-06
   -0.19257927581173000214E-06
   -0.19449726951022225439E-06
   -0.29874329760195363447E-06
   -0.23562876998905740433E-06
   -0.23458969519014385220E-06
   -0.29639625161324157019E-06
   -0.18918691775696327723E-06
   -0.18888268384750781463E-06
   -0.29525293454995753094E-06
   -0.23316485692870419903E-06
    0.15209462727960108589E-07
    0.12778347415635756948E-07
   -0.23249915790757265186E-06
   -0.29633076026546463673E-06
   -0.18876598245868620661E-06
   -0.18924428904832866904E-06
   -0.29659220242353529832E-06
   -0.23293184369857244743E-06
   -0.23273934534488445750E-06
   -0.29625273560174627854E-06
   -0.18829504474865380970E-06
   -0.29202251176204266062E-06
   -0.29605056609274803890E-06
   -0.27675358989946167528E-06
    0.17449624138986645231E-07
    0.16891684248775980564E-07
   -0.23488147989172088470E-06
   -0.29857052850607742581E-06
   -0.19495436375862783380E-06
   -0.19865512439282780910E-06
   -0.30114259358889493635E-06
   -0.23896590724941166108E-06
   -0.23718120559878502136E-06
   -0.29750310697269298613E-06
   -0.19029070708088242406E-06
   -0.18955201955426944741E-06
   -0.29463345847910865784E-06
   -0.23376905552452723845E-06
    0.14021731534451963524E-07
    0.88315287962445251941E-08
   -0.24464150023197488895E-06
   -0.31107660477963227877E-06
   -0.21933020804542590652E-06
   -0.22856756999126890439E-06
   -0.31753951608624490904E-06
   -0.25485904906371258583E-06
   -0.24801474205268143072E-06
   -0.29917982522340177345E-06
   -0.19587713983498027946E-06
   -0.19439142924603837936E-06
   -0.29259656229009103196E-06
   -0.24001366474581276795E-06
   -0.22362595677426206309E-08
   -0.12850297529726389469E-07
   -0.31501817403164336891E-06
   -0.43607746597723640393E-06
   -0.37884188149185780855E-06
   -0.39723316408522343271E-06
   -0.45824641802042730488E-06
   -0.36479421201670751854E-06
   -0.32453698759472437999E-06
   -0.33631436902795874932E-06
   -0.22780162726034414014E-06
   -0.22298529048649186550E-06
   -0.31879661511091570752E-06
   -0.28425466945401110596E-06
   -0.97950890254500577559E-07
   -0.12839774913179710774E-06
   -0.25256053920319370417E-06
   -0.32305544586881898162E-06
   -0.23904577057935843399E-06
   -0.26243098641776530988E-06
   -0.33983695410249201185E-06
   -0.28496909658367869745E-06
   -0.26921748005410162426E-06
   -0.31055211665082367874E-06
   -0.20425980471089443148E-06
   -0.19997529739457723005E-06
   -0.29146147390426520358E-06
   -0.24506669106017933258E-06
   -0.13379038284975019415E-07
   -0.38886037556529945225E-07
   -0.40797277237922921358E-06
   -0.56593709247737499427E-06
   -0.50208547817804756879E-06
   -0.46027082789648856768E-06
   -0.57740603934614632510E-06
   -0.40267799775049616884E-06
   -0.45667745140081228668E-06
   -0.46196506852596336450E-06
   -0.30436734160413858116E-06
   -0.26983905751758308900E-06
   -0.37682859631902676308E-06
   -0.33678696668069790361E-06
   -0.20822461620473867304E-06
   -0.30664760223153073159E-06
   -0.23256093163858706083E-06
   -0.29639465495591253795E-06
   -0.18889807088553217390E-06
   -0.18952869696377429540E-06
   -0.29677352786351722669E-06
   -0.23321336508982976224E-06
   -0.23298012523837358949E-06
   -0.29638002988676838478E-06
   -0.18839076326086600079E-06
   -0.29207723677348548465E-06
   -0.29604282204745064230E-06
   -0.27680078070354626829E-06
    0.17408581504562898178E-07
    0.16615647035086709961E-07
   -0.23548271563413112681E-06
   -0.29925410857710335510E-06
   -0.19629455934995646659E-06
   -0.20127014550054697159E-06
   -0.30302515255559863311E-06
   -0.24181887422834305841E-06
   -0.23958202717450887726E-06
   -0.29889987888598946543E-06
   -0.19126472940656123849E-06
   -0.19007915296375277686E-06
   -0.29425700537855064839E-06
   -0.23416768087178996014E-06
    0.13504071693468632553E-07
    0.60299379369645179381E-08
   -0.23258080886911615657E-06
   -0.29641947628553582072E-06
   -0.18893548470288231222E-06
   -0.18962656721347533028E-06
   -0.29685649227688189456E-06
   -0.23335089814551611463E-06
   -0.23311084824679629059E-06
   -0.29646051311836306433E-06
   -0.18844031860314336334E-06
   -0.29210267260683545332E-06
   -0.29604307260368728597E-06
   -0.27681843250390603105E-06
    0.17404663231214277013E-07
    0.16505129463058214244E-07
   -0.23566985381183768419E-06
   -0.29950675489803543886E-06
   -0.19666791708566021819E-06
   -0.20214687399021958490E-06
   -0.30384877370395765448E-06
   -0.24317553934159817208E-06
   -0.24084756662387264218E-06
   -0.29977198512091706777E-06
   -0.19176068934168957291E-06
   -0.19031839876922533295E-06
   -0.29414607489865909857E-06
   -0.23431343367726266059E-06
    0.13441541884896826912E-07
    0.49432784974815173641E-08
   -0.25760390727161325278E-06
   -0.33038720136171673168E-06
   -0.25136263637686113332E-06
   -0.28666050960701085627E-06
   -0.35776189936338195375E-06
   -0.31590002254144976108E-06
   -0.29001128108679782415E-06
   -0.32442981377455436024E-06
   -0.21225606177354159058E-06
   -0.20457500758357191470E-06
   -0.29124744232214722588E-06
   -0.24830708554678252342E-06
   -0.19483995459155635711E-07
   -0.58331623915819332942E-07
   -0.47224182181731997139E-06
   -0.64736275282860513503E-06
   -0.58717104150119940101E-06
   -0.53525473875918103264E-06
   -0.66239679559612656448E-06
   -0.45845784844724347390E-06
   -0.56476264933932342042E-06
   -0.59605038538877511354E-06
   -0.39975011101250511317E-06
   -0.31905117860275629485E-06
   -0.42730772366744505310E-06
   -0.37594902222687404341E-06