# vtk DataFile Version 3.0
LAPLACIEN  2D
ASCII
DATASET UNSTRUCTURED_GRID
 POINTS        1857  float
   3.1250000000000000E-002  0.93750000000000000        0.0000000000000000     
   6.2500000000000000E-002  0.93750000000000000        0.0000000000000000     
   6.2500000000000000E-002  0.96875000000000000        0.0000000000000000     
   1.8749999999999999E-002  0.95625000000000004        0.0000000000000000     
   4.0625000000000001E-002  0.95937499999999998        0.0000000000000000     
   4.3749999999999997E-002  0.98124999999999996        0.0000000000000000     
   2.1874999999999999E-002  0.97812500000000002        0.0000000000000000     
   9.3750000000000000E-002  0.93750000000000000        0.0000000000000000     
  0.12500000000000000       0.93750000000000000        0.0000000000000000     
  0.12500000000000000       0.96875000000000000        0.0000000000000000     
   8.1250000000000003E-002  0.95625000000000004        0.0000000000000000     
  0.10312499999999999       0.95937499999999998        0.0000000000000000     
  0.10625000000000000       0.98124999999999996        0.0000000000000000     
   8.4375000000000006E-002  0.97812500000000002        0.0000000000000000     
   3.1250000000000000E-002  0.87500000000000000        0.0000000000000000     
   6.2500000000000000E-002  0.87500000000000000        0.0000000000000000     
   6.2500000000000000E-002  0.90625000000000000        0.0000000000000000     
   1.8749999999999999E-002  0.89375000000000004        0.0000000000000000     
   4.0625000000000001E-002  0.89687499999999998        0.0000000000000000     
   4.3749999999999997E-002  0.91874999999999996        0.0000000000000000     
   2.1874999999999999E-002  0.91562500000000002        0.0000000000000000     
   9.3750000000000000E-002  0.87500000000000000        0.0000000000000000     
  0.12500000000000000       0.87500000000000000        0.0000000000000000     
  0.12500000000000000       0.90625000000000000        0.0000000000000000     
   8.1250000000000003E-002  0.89375000000000004        0.0000000000000000     
  0.10312499999999999       0.89687499999999998        0.0000000000000000     
  0.10625000000000000       0.91874999999999996        0.0000000000000000     
   8.4375000000000006E-002  0.91562500000000002        0.0000000000000000     
  0.15625000000000000       0.93750000000000000        0.0000000000000000     
  0.18750000000000000       0.93750000000000000        0.0000000000000000     
  0.18750000000000000       0.96875000000000000        0.0000000000000000     
  0.14374999999999999       0.95625000000000004        0.0000000000000000     
  0.16562499999999999       0.95937499999999998        0.0000000000000000     
  0.16875000000000001       0.98124999999999996        0.0000000000000000     
  0.14687500000000001       0.97812500000000002        0.0000000000000000     
  0.21875000000000000       0.93750000000000000        0.0000000000000000     
  0.25000000000000000       0.93750000000000000        0.0000000000000000     
  0.25000000000000000       0.96875000000000000        0.0000000000000000     
  0.20624999999999999       0.95625000000000004        0.0000000000000000     
  0.22812499999999999       0.95937499999999998        0.0000000000000000     
  0.23125000000000001       0.98124999999999996        0.0000000000000000     
  0.20937500000000001       0.97812500000000002        0.0000000000000000     
  0.15625000000000000       0.87500000000000000        0.0000000000000000     
  0.18750000000000000       0.87500000000000000        0.0000000000000000     
  0.18750000000000000       0.90625000000000000        0.0000000000000000     
  0.14374999999999999       0.89375000000000004        0.0000000000000000     
  0.16562499999999999       0.89687499999999998        0.0000000000000000     
  0.16875000000000001       0.91874999999999996        0.0000000000000000     
  0.14687500000000001       0.91562500000000002        0.0000000000000000     
  0.21875000000000000       0.87500000000000000        0.0000000000000000     
  0.25000000000000000       0.87500000000000000        0.0000000000000000     
  0.25000000000000000       0.90625000000000000        0.0000000000000000     
  0.20624999999999999       0.89375000000000004        0.0000000000000000     
  0.22812499999999999       0.89687499999999998        0.0000000000000000     
  0.23125000000000001       0.91874999999999996        0.0000000000000000     
  0.20937500000000001       0.91562500000000002        0.0000000000000000     
   3.1250000000000000E-002  0.81250000000000000        0.0000000000000000     
   6.2500000000000000E-002  0.81250000000000000        0.0000000000000000     
   6.2500000000000000E-002  0.84375000000000000        0.0000000000000000     
   1.8749999999999999E-002  0.83125000000000004        0.0000000000000000     
   4.0625000000000001E-002  0.83437499999999998        0.0000000000000000     
   4.3749999999999997E-002  0.85624999999999996        0.0000000000000000     
   2.1874999999999999E-002  0.85312500000000002        0.0000000000000000     
   9.3750000000000000E-002  0.81250000000000000        0.0000000000000000     
  0.12500000000000000       0.81250000000000000        0.0000000000000000     
  0.12500000000000000       0.84375000000000000        0.0000000000000000     
   8.1250000000000003E-002  0.83125000000000004        0.0000000000000000     
  0.10312499999999999       0.83437499999999998        0.0000000000000000     
  0.10625000000000000       0.85624999999999996        0.0000000000000000     
   8.4375000000000006E-002  0.85312500000000002        0.0000000000000000     
   3.1250000000000000E-002  0.75000000000000000        0.0000000000000000     
   6.2500000000000000E-002  0.75000000000000000        0.0000000000000000     
   6.2500000000000000E-002  0.78125000000000000        0.0000000000000000     
   1.8749999999999999E-002  0.76875000000000004        0.0000000000000000     
   4.0625000000000001E-002  0.77187499999999998        0.0000000000000000     
   4.3749999999999997E-002  0.79374999999999996        0.0000000000000000     
   2.1874999999999999E-002  0.79062500000000002        0.0000000000000000     
   9.3750000000000000E-002  0.75000000000000000        0.0000000000000000     
  0.12500000000000000       0.75000000000000000        0.0000000000000000     
  0.12500000000000000       0.78125000000000000        0.0000000000000000     
   8.1250000000000003E-002  0.76875000000000004        0.0000000000000000     
  0.10312499999999999       0.77187499999999998        0.0000000000000000     
  0.10625000000000000       0.79374999999999996        0.0000000000000000     
   8.4375000000000006E-002  0.79062500000000002        0.0000000000000000     
  0.15625000000000000       0.81250000000000000        0.0000000000000000     
  0.18750000000000000       0.81250000000000000        0.0000000000000000     
  0.18750000000000000       0.84375000000000000        0.0000000000000000     
  0.14374999999999999       0.83125000000000004        0.0000000000000000     
  0.16562499999999999       0.83437499999999998        0.0000000000000000     
  0.16875000000000001       0.85624999999999996        0.0000000000000000     
  0.14687500000000001       0.85312500000000002        0.0000000000000000     
  0.21875000000000000       0.81250000000000000        0.0000000000000000     
  0.25000000000000000       0.81250000000000000        0.0000000000000000     
  0.25000000000000000       0.84375000000000000        0.0000000000000000     
  0.20624999999999999       0.83125000000000004        0.0000000000000000     
  0.22812499999999999       0.83437499999999998        0.0000000000000000     
  0.23125000000000001       0.85624999999999996        0.0000000000000000     
  0.20937500000000001       0.85312500000000002        0.0000000000000000     
  0.15625000000000000       0.75000000000000000        0.0000000000000000     
  0.18750000000000000       0.75000000000000000        0.0000000000000000     
  0.18750000000000000       0.78125000000000000        0.0000000000000000     
  0.14374999999999999       0.76875000000000004        0.0000000000000000     
  0.16562499999999999       0.77187499999999998        0.0000000000000000     
  0.16875000000000001       0.79374999999999996        0.0000000000000000     
  0.14687500000000001       0.79062500000000002        0.0000000000000000     
  0.21875000000000000       0.75000000000000000        0.0000000000000000     
  0.25000000000000000       0.75000000000000000        0.0000000000000000     
  0.25000000000000000       0.78125000000000000        0.0000000000000000     
  0.20624999999999999       0.76875000000000004        0.0000000000000000     
  0.22812499999999999       0.77187499999999998        0.0000000000000000     
  0.23125000000000001       0.79374999999999996        0.0000000000000000     
  0.20937500000000001       0.79062500000000002        0.0000000000000000     
  0.28125000000000000       0.93750000000000000        0.0000000000000000     
  0.31250000000000000       0.93750000000000000        0.0000000000000000     
  0.31250000000000000       0.96875000000000000        0.0000000000000000     
  0.26874999999999999       0.95625000000000004        0.0000000000000000     
  0.29062500000000002       0.95937499999999998        0.0000000000000000     
  0.29375000000000001       0.98124999999999996        0.0000000000000000     
  0.27187499999999998       0.97812500000000002        0.0000000000000000     
  0.34375000000000000       0.93750000000000000        0.0000000000000000     
  0.37500000000000000       0.93750000000000000        0.0000000000000000     
  0.37500000000000000       0.96875000000000000        0.0000000000000000     
  0.33124999999999999       0.95625000000000004        0.0000000000000000     
  0.35312500000000002       0.95937499999999998        0.0000000000000000     
  0.35625000000000001       0.98124999999999996        0.0000000000000000     
[...]
 CELL_DATA        3584
 SCALARS Tumor_cells float
 LOOKUP_TABLE default
   -0.19226991144154200499E-06
   -0.31206070774007510608E-06
   -0.12005442006048830270E-06
   -0.12005763155430350934E-06
   -0.31206075992907327978E-06
   -0.19226653770039364889E-06
   -0.32493831324361913450E-06
   -0.31205173145854903925E-06
   -0.33480256146868374391E-06
   -0.33480344644735659998E-06
   -0.31205202458424947384E-06
   -0.32493804891626927124E-06
    0.19611119236952337411E-06
    0.19611098427484011208E-06
   -0.19229388688640954818E-06
   -0.31205543417607528988E-06
   -0.12012257075886012446E-06
   -0.12011641661884416581E-06
   -0.31205803227892489006E-06
   -0.19228654017985665215E-06
   -0.32495122112481394786E-06
   -0.31204008956477630269E-06
   -0.33481322754652188156E-06
   -0.12005352202717097469E-06
   -0.31203779662081843136E-06
   -0.19228351700855632783E-06
    0.19605543831266372826E-06
    0.19606044702137085655E-06
   -0.19229012119986250497E-06
   -0.31205790346125736962E-06
   -0.12011352792656004103E-06
   -0.12012596217145230067E-06
   -0.31205521186125494328E-06
   -0.19228911948678969291E-06
   -0.19228641718291899770E-06
   -0.31203753804839739428E-06
   -0.12004973447196271583E-06
   -0.33481367886788940594E-06
   -0.31204017344533797381E-06
   -0.32495097610946641031E-06
    0.19606085407801456432E-06
    0.19605497542907283069E-06
   -0.19240877656332166437E-06
   -0.31200417552769749480E-06
   -0.12049072771746465236E-06
   -0.12049374170138333606E-06
   -0.31200411240667431050E-06
   -0.19240441292092462662E-06
   -0.19235913651899492658E-06
   -0.31188087996988207606E-06
   -0.12012142336674310427E-06
   -0.12012497188928874689E-06
   -0.31188074327943903409E-06
   -0.19235613558749206525E-06
    0.19569323699761821304E-06
    0.19569266796379184701E-06
   -0.19236031767187997554E-06
   -0.31205295657742952782E-06
   -0.12039121538263402632E-06
   -0.12031115685840262541E-06
   -0.31204255725284980828E-06
   -0.19236845694246886961E-06
   -0.32500137321831164084E-06
   -0.31198038536889723357E-06
   -0.33485416846710769008E-06
   -0.12011064702649270174E-06
   -0.31196269691312256857E-06
   -0.19234763152896152181E-06
    0.19578809312967836110E-06
    0.19589023470846107449E-06
   -0.19253422362862421505E-06
   -0.31207835202352367003E-06
   -0.12108682835786550657E-06
   -0.12073077461539463377E-06
   -0.31200678159318174784E-06
   -0.19258605383577832303E-06
   -0.32513096988565550051E-06
   -0.31179954592600936287E-06
   -0.33497386718271526341E-06
   -0.12027801475362486493E-06
   -0.31180731377346880212E-06
   -0.19255846857426245057E-06
    0.19499265488426747668E-06
    0.19554112218966519189E-06
   -0.19284768308095461373E-06
   -0.31189599989639842326E-06
   -0.12204439443836073003E-06
   -0.12175862497110083875E-06
   -0.31178525494265068887E-06
   -0.19289584130041366935E-06
   -0.19263415478728338122E-06
   -0.31115022482535906374E-06
   -0.12041592060510264120E-06
   -0.12046999480006470316E-06
   -0.31125900847319648858E-06
   -0.19273625870956023678E-06
    0.19391272191229677407E-06
    0.19439876496143243304E-06
   -0.19395169578153500690E-06
   -0.31208095282701622036E-06
   -0.12625812394159627546E-06
   -0.12458864611947994409E-06
   -0.31131029710069651264E-06
   -0.19426694942993682659E-06
   -0.19340202555928882568E-06
   -0.30888697737126936489E-06
   -0.12123589857319512482E-06
   -0.12159552785182477525E-06
   -0.30984844643619699306E-06
   -0.19402797346223546476E-06
    0.18842296047085654253E-06
    0.19157513836813583581E-06
   -0.19237196001201999060E-06
   -0.31204239165913385323E-06
   -0.12030847501485346082E-06
   -0.12039437320818747917E-06
   -0.31205258246997071271E-06
   -0.19235578527934155937E-06
   -0.19235085950771696602E-06
   -0.31196252708308721252E-06
   -0.12010691701467804347E-06
   -0.33485447248194012798E-06
   -0.31198044816105415863E-06
   -0.32500104446440332354E-06
    0.19589066993533325406E-06
    0.19578758960046210361E-06
   -0.19290004444967183291E-06
   -0.31178537576761579265E-06
   -0.12175612090291992341E-06
   -0.12204756551960449240E-06
   -0.31189586905569255231E-06
   -0.19284360648128221778E-06
   -0.19273959003294774106E-06
   -0.31125942940938440639E-06
   -0.12046614258152308533E-06
   -0.12041946243230898950E-06
   -0.31114980002205831887E-06
   -0.19263096350679886826E-06
    0.19439928629071766653E-06
    0.19391225121204758476E-06
   -0.19258943908611168143E-06
   -0.31200655788081897755E-06
   -0.12072829044046355212E-06
   -0.12109000694892654035E-06
   -0.31207794088935602487E-06
   -0.19252964736325636018E-06
   -0.19256178590313777760E-06
   -0.31180728197399786001E-06
   -0.12027399640245549661E-06
   -0.33497422450568730954E-06
   -0.31179966478051949800E-06
   -0.32513075416954691485E-06
    0.19554153186792973742E-06
    0.19499202497120960291E-06
   -0.19427106140992266942E-06
   -0.31131060443172990759E-06
   -0.12458634008736805100E-06
   -0.12626122736767600959E-06
   -0.31208070448949270241E-06
   -0.19394772045548683301E-06
   -0.19403130307325187198E-06
   -0.30984908591248201974E-06
   -0.12159136155115658904E-06
   -0.12123936010219791340E-06
   -0.30888667967185200715E-06
   -0.19339885011060562382E-06
    0.19157548516522749330E-06
    0.18842238730000781264E-06
   -0.19510077777782549118E-06
   -0.31136340697376477004E-06
   -0.12804310499296651720E-06
   -0.12804571214882119547E-06
   -0.31136324319153766936E-06
   -0.19509693737889689524E-06
   -0.19426849306814363308E-06
   -0.30790351927195051995E-06
   -0.12206687691801701208E-06
   -0.12207075494006026240E-06
   -0.30790302238685561853E-06
   -0.19426521078583639864E-06
    0.18688320695442245720E-06
    0.18688277669846061679E-06
   -0.20167780518191712890E-06
   -0.31399329025380446701E-06
   -0.14676090128291258900E-06
   -0.14267020070761537792E-06
   -0.31180611736647222638E-06
   -0.20185979225941302067E-06
   -0.19847700949757745182E-06
   -0.29811989888589807394E-06
   -0.12651908447879057129E-06
   -0.12748100329501846478E-06
   -0.30104555051896048035E-06
   -0.20026496848283031641E-06
    0.16303616509082498171E-06
    0.17086963111937521755E-06
   -0.20186327641051966069E-06
   -0.31180603773796581671E-06
   -0.14266848334673560630E-06
   -0.14676333577483130258E-06
   -0.31399343125023335819E-06
   -0.20167459953436668171E-06
   -0.20026788535617368505E-06
   -0.30104635130509354896E-06
   -0.12747655185903014628E-06
   -0.12652241523309171077E-06
   -0.29811937911780337950E-06
   -0.19847415246564649263E-06
    0.17086993225219126084E-06
    0.16303574217582473879E-06
   -0.22996253701405229700E-06
   -0.34050403946962624614E-06
   -0.21481638180621407387E-06
   -0.21481794487328537718E-06
   -0.34050460561119280990E-06
   -0.22996029564131629260E-06
   -0.22013338182358073139E-06
   -0.28293976392947117494E-06
   -0.14363665919100533223E-06
   -0.14364034668128915879E-06
   -0.28293901966966404235E-06
   -0.22013118652505191512E-06
    0.10135486679590235955E-06
    0.10135440159147698689E-06
   -0.19287388407728840789E-06
   -0.31217698596574927543E-06
   -0.12225557329353478709E-06
   -0.12131600098389983880E-06
   -0.31197853628644886251E-06
   -0.19296332201221880318E-06
   -0.32535576607563013261E-06
   -0.31146402150201566132E-06
   -0.33519697148876988791E-06
   -0.12060852728921296403E-06
   -0.31167576850682904277E-06
   -0.19301699015586751286E-06
    0.19348393623062541272E-06
    0.19514470665983256165E-06
   -0.19331742926978060677E-06
   -0.31239376346682854904E-06
   -0.12351144828414255951E-06
   -0.12184254490462430696E-06
   -0.31200604652247380046E-06
   -0.19338367352102487964E-06
   -0.32562059583495718352E-06
   -0.31108312438712672741E-06
   -0.33543500254535180642E-06
   -0.12106633631090273673E-06
   -0.31177104924726473172E-06
   -0.19367433105290313743E-06
    0.19168701320753245098E-06
    0.19495915403580344251E-06
   -0.19649722701061752370E-06
   -0.31293379362277470615E-06
   -0.13365242996323777354E-06
   -0.12869107815450901611E-06
   -0.31090735672912475693E-06
   -0.19671037958317558419E-06
   -0.19478904187225909843E-06
   -0.30464366804080334869E-06
   -0.12269212563711957588E-06
   -0.12396772522498896796E-06
   -0.30846054971734106284E-06
   -0.19696264274459139287E-06
    0.17784233022364532968E-06
    0.18808974597545514632E-06
   -0.20029482259892749175E-06
   -0.31485310250974804720E-06
   -0.14179164749883611901E-06
   -0.13253244619385673984E-06
   -0.31102067662138056976E-06
   -0.19945103977028663992E-06
   -0.19639664629622583929E-06
   -0.29983157425476469120E-06
   -0.12434176465319862261E-06
   -0.12717904684977221038E-06
   -0.30889866400508552384E-06
   -0.20132253458524141316E-06
    0.16532721966780382860E-06
    0.18596639683475405946E-06
   -0.19370958787935222010E-06
   -0.31264550403463600431E-06
   -0.12436509419868855724E-06
   -0.12214405402920839172E-06
   -0.31207837099727466437E-06
   -0.19368155068617549672E-06
   -0.32582280502136502906E-06
   -0.31082967380130631333E-06
   -0.33560560364377279034E-06
   -0.12146285722092516274E-06
   -0.31208660018904794562E-06
   -0.19428912610998575320E-06
    0.19035576596082524123E-06
    0.19502331865780883170E-06
   -0.19393205418977548496E-06
   -0.31281438952327338947E-06
   -0.12469496101808617508E-06
   -0.12222054126082796284E-06
   -0.31214002965933276273E-06
   -0.19380019537029614376E-06
   -0.32591562531621620051E-06
   -0.31073964162384565179E-06
   -0.33567896929287166472E-06
   -0.12167813461674443115E-06
   -0.31239414966874873371E-06
   -0.19465718430625712318E-06
    0.18977418913762012949E-06
    0.19517417927155504259E-06
   -0.20387939088004325784E-06
   -0.31691142687446472615E-06
   -0.14730549244105129229E-06
   -0.13480590464686783076E-06
   -0.31148450953263997166E-06
   -0.20137759516294063605E-06
   -0.19758172481146095825E-06
   -0.29652635539853438344E-06
   -0.12554487602812549449E-06
   -0.12996049830972785451E-06
   -0.31112047828289093493E-06
   -0.20542781541675362576E-06
    0.15628274152915721585E-06
    0.18575685407292139741E-06
   -0.20587925290172777152E-06
   -0.31815130855306455804E-06
   -0.14939881810280465499E-06
   -0.13543149100529517143E-06
   -0.31187200212362711456E-06
   -0.20213078817504499379E-06
   -0.19810326029785130151E-06
   -0.29522424426315202256E-06
   -0.12607994804525246854E-06
   -0.13145774243648867942E-06
   -0.31326207519399822931E-06
   -0.20782657095502544000E-06
    0.15245478113454956635E-06
    0.18645708852420485658E-06
   -0.21906504430347944832E-06
   -0.32812240521820367282E-06
   -0.18573292785054441445E-06
   -0.16718018760531815498E-06
   -0.31796542169421813902E-06
   -0.21466455955173683897E-06
   -0.20649995683367206334E-06
   -0.28149260173154389592E-06
   -0.13429015691961718925E-06
   -0.13893364152342431407E-06
   -0.29793573095874298931E-06
   -0.21609756152994627216E-06
    0.11647146319752850336E-06
    0.14912867329363788417E-06
   -0.25821898475468339262E-06
   -0.35318032950326692093E-06
   -0.24205738380180188538E-06
   -0.19555664720983957355E-06
   -0.32968329067233409062E-06
   -0.22996230933126353520E-06
   -0.21552250809594377165E-06
   -0.26577334569634148568E-06
   -0.14336669700767022938E-06
   -0.15550565949141142865E-06
   -0.31004634621481833544E-06
   -0.24533091917733617998E-06
    0.60525873474990068301E-07
    0.13072536078517273804E-06
   -0.35337509189526282994E-06
   -0.47323110844210054080E-06
   -0.35860667198084970105E-06
   -0.35640190814670560472E-06
   -0.45162287487860844267E-06
   -0.31213759419592739799E-06
   -0.26931840984795338549E-06
   -0.28734319590073332750E-06
   -0.17773314413695941777E-06
   -0.18945210342542991881E-06
   -0.32413825581260122904E-06
   -0.31678410823678550040E-06
   -0.75570823968731969676E-07
   -0.15305863190773615150E-07
   -0.29998362235432243156E-06
   -0.54739517857053441685E-06
   -0.36549350768972054770E-06
   -0.46539540791612488220E-06
   -0.58064280546147906175E-06
   -0.44257190528949712100E-06
   -0.35094137124399375792E-06
   -0.34957231863756992214E-06
   -0.24332486312577655370E-06
   -0.30376009980244968906E-06
   -0.47044802388936739826E-06
   -0.40841392549587890805E-06
   -0.29144771300442304201E-06
   -0.16700268670777967436E-06
   -0.30635639937435728725E-06
   -0.37797867416201035859E-06
   -0.28716415628794241809E-06
   -0.21665541291783004128E-06
   -0.33949325735702114524E-06
   -0.24103522038878554666E-06
   -0.22167665233072450587E-06
   -0.25649174232323429275E-06
   -0.15073113691219033987E-06
   -0.17142288364647707677E-06
   -0.33156993822903303425E-06
   -0.27648430004873560802E-06
    0.19414547006628142000E-07
    0.12112159574339616744E-06
   -0.33425316118944510970E-06
   -0.39096093833835675002E-06
   -0.30367893935181491573E-06
   -0.22431015819122953862E-06
   -0.34364275615350414515E-06
   -0.24540511225021641993E-06
   -0.22405051369774220504E-06
   -0.25301436348998670743E-06
   -0.15452444099490514923E-06
   -0.18045080162098309253E-06
   -0.34706666956740358551E-06
   -0.29352810627801036838E-06
    0.20471396915478403070E-08
    0.11958954157921796751E-06
   -0.31629155094022043472E-06
   -0.59698836470755499192E-06
   -0.40646089608729619074E-06
   -0.53949378614813366598E-06
   -0.66960282835830785596E-06
   -0.53747258731027284912E-06
   -0.41485998738216565159E-06
   -0.41897261576478965658E-06
   -0.32100432648733262246E-06
   -0.43827117928056511363E-06
   -0.60916250763768502050E-06
   -0.48818764514376098585E-06
   -0.43210211401335548966E-06
   -0.28439388659385922851E-06
   -0.34403169722561167821E-06
   -0.61450710188431079502E-06
   -0.39918603403448554634E-06
   -0.55126172372858468473E-06
   -0.69374356008520978094E-06
   -0.56949843362507478364E-06
   -0.43640344142168958752E-06
   -0.44748371569357880438E-06
   -0.36526640873936207053E-06
   -0.50659554041961712217E-06
   -0.68050670539498952440E-06
   -0.54692445893026473544E-06
   -0.48283677133217798678E-06
   -0.32683080831489390998E-06
   -0.19296667957410832748E-06
   -0.31197823724866624386E-06
   -0.12131365967549731806E-06
   -0.12225872563609690626E-06
   -0.31217652850122130275E-06
   -0.19286956443804558928E-06
   -0.19302026286046113400E-06
   -0.31167574548496100386E-06
   -0.12060445795796300512E-06
   -0.33519711344702777235E-06
   -0.31146412211361833416E-06
   -0.32535549576457631446E-06
    0.19514509865897368932E-06
    0.19348325306044480456E-06
   -0.19671447016127386353E-06
   -0.31090732819178061203E-06
   -0.12868894516617921603E-06
   -0.13365514521535999092E-06
   -0.31293352582736194278E-06
   -0.19649366968194019353E-06
   -0.19696592701983620620E-06
   -0.30846126909135271000E-06
   -0.12396338523969010446E-06
   -0.12269534431977241259E-06
   -0.30464340443785676129E-06
   -0.19478592032166529694E-06
    0.18809010774700984718E-06
    0.17784184753199549295E-06
   -0.19338708921351846565E-06
   -0.31200571736631641865E-06
   -0.12184010138157720581E-06
   -0.12351450298438611391E-06
   -0.31239324306833418935E-06
   -0.19331313090865861794E-06
   -0.19367760463248692822E-06
   -0.31177113272298499400E-06
   -0.12106244900593734683E-06
   -0.33543513898418731130E-06
   -0.31108334112937867098E-06
   -0.32562040897592036353E-06
    0.19495953875021137554E-06
    0.19168629183704630652E-06
   -0.19945518696170225069E-06
   -0.31102066890368121665E-06
   -0.13253035648011474257E-06
   -0.14179405694619525022E-06
   -0.31485269950873803378E-06
   -0.20029158265916127468E-06
   -0.20132551960047421739E-06
   -0.30889953026881189692E-06
   -0.12717480251406548220E-06
   -0.12434488987476190792E-06
   -0.29983132179360192996E-06
   -0.19639365183596660355E-06
    0.18596667348277359353E-06
    0.16532673047730879184E-06
   -0.21466788724613529461E-06
   -0.31796515788012143153E-06
   -0.16717877036592022222E-06
   -0.18573457332564774719E-06
   -0.32812233901743396678E-06
   -0.21906264547511479942E-06
   -0.21609981265217464803E-06
   -0.29793663878329537239E-06
   -0.13892943463635573511E-06
   -0.13429327910672845733E-06
   -0.28149222897897230170E-06
   -0.20649744769178780203E-06
    0.14912890986109753125E-06
    0.11647086925830742122E-06
   -0.31213940411710002502E-06
   -0.45162214247141883839E-06
   -0.35640082753379558147E-06
   -0.35860690512893726348E-06
   -0.47323172975295181490E-06
   -0.35337440691290668838E-06
   -0.31678543488566720536E-06
   -0.32413925559998741068E-06
   -0.18944878424956150439E-06
   -0.17773562347596910115E-06
   -0.28734270725855448123E-06
   -0.26931726532297817314E-06
   -0.15305439862132985125E-07
   -0.75571554115180102761E-07
   -0.22996564355097149124E-06
   -0.32968281802256144026E-06
   -0.19555542431370443164E-06
   -0.24205864173973248626E-06
   -0.35318018554730808842E-06
   -0.25821753380698087837E-06
   -0.24533278570763491353E-06
   -0.31004761570573607696E-06
   -0.15550180375665586698E-06
   -0.14336938066316771078E-06
   -0.26577297497913823588E-06
   -0.21552031713499857459E-06
    0.13072561300614323993E-06
    0.60525582008200021313E-07
   -0.44257374341075745471E-06
   -0.58064108954103157121E-06
   -0.46539173242179064056E-06
   -0.36547802020872303172E-06
   -0.54739065939273618473E-06
   -0.29997664336510567921E-06
   -0.40841318821637484375E-06
   -0.47044865847497074368E-06
   -0.30375758382511039326E-06
   -0.24332635391564891701E-06
   -0.34957185324266845222E-06
   -0.35094076370676318563E-06
   -0.16700212897366539518E-06
   -0.29144677374716212425E-06
   -0.19368500947757796417E-06
   -0.31207805121318087834E-06
   -0.12214167632676619861E-06
   -0.12436811561223434152E-06
   -0.31264496575013807917E-06
   -0.19370540055341177681E-06
   -0.19429239062062441757E-06
   -0.31208668206659777209E-06
   -0.12145887052155583307E-06
   -0.33560581958254325618E-06
   -0.31082992222218824944E-06
   -0.32582262679069703597E-06
    0.19502377038105735829E-06
    0.19035511615677620006E-06
   -0.20138181947552842735E-06
   -0.31148453886360856600E-06
   -0.13480389192140502970E-06
   -0.14730774268682648731E-06
   -0.31691094840273324440E-06
   -0.20387643865570746717E-06
   -0.20543060491989940769E-06
   -0.31112130013400542988E-06
   -0.12995620448907168992E-06
   -0.12554808960353435987E-06
   -0.29652608798343062542E-06
   -0.19757875199473298926E-06
    0.18575711109871390058E-06
    0.15628234668070506503E-06
   -0.19380441730469149897E-06
   -0.31213973070842507246E-06
   -0.12221812397792604620E-06
   -0.12469797976267854993E-06
   -0.31281396003509117039E-06
   -0.19392785305325733946E-06
   -0.19466047489961365195E-06
   -0.31239431081534626283E-06
   -0.12167419341509944782E-06
   -0.33567914077753543184E-06
   -0.31073980158215939981E-06
   -0.32591553323522675859E-06
    0.19517458457722441790E-06
    0.18977348423297860595E-06
   -0.20213610835649043785E-06
   -0.31187198443325819613E-06
   -0.13542953643489260261E-06
   -0.14940111954544923256E-06
   -0.31815077694022116549E-06
   -0.20587657208461376769E-06
   -0.20782936057625844091E-06
   -0.31326281371486904718E-06
   -0.13145371637369532828E-06
   -0.12608306033330594016E-06
   -0.29522381956762706168E-06
   -0.19810028406173189845E-06
    0.18645734110662284591E-06
    0.15245426460238638113E-06
   -0.24103910644023402476E-06
   -0.33949272530677200337E-06
   -0.21665426811797013824E-06
   -0.28716559634096338091E-06
   -0.37797823798628888042E-06
   -0.30635517898665232922E-06
   -0.27648592113742356137E-06
   -0.33157119915641009195E-06
   -0.17141926393622579028E-06
   -0.15073353229637550610E-06
   -0.25649134525034286173E-06
   -0.22167465444539696946E-06
    0.12112172126141513107E-06
    0.19414325478500021310E-07
   -0.53747740398591037352E-06
   -0.66961440128856247479E-06
   -0.53952774354589730890E-06
   -0.40659309227399857133E-06
   -0.59702075502200662492E-06
   -0.31630888539402128760E-06
   -0.48819041172222315995E-06
   -0.60916409339339620144E-06
   -0.43826906749493016225E-06
   -0.32100523193792413430E-06
   -0.41897286633957605710E-06
   -0.41486030690728980779E-06