# vtk DataFile Version 3.0
LAPLACIEN  2D
ASCII
DATASET UNSTRUCTURED_GRID
 POINTS        1857  float
   3.1250000000000000E-002  0.93750000000000000        0.0000000000000000     
   6.2500000000000000E-002  0.93750000000000000        0.0000000000000000     
   6.2500000000000000E-002  0.96875000000000000        0.0000000000000000     
   1.8749999999999999E-002  0.95625000000000004        0.0000000000000000     
   4.0625000000000001E-002  0.95937499999999998        0.0000000000000000     
   4.3749999999999997E-002  0.98124999999999996        0.0000000000000000     
   2.1874999999999999E-002  0.97812500000000002        0.0000000000000000     
   9.3750000000000000E-002  0.93750000000000000        0.0000000000000000     
  0.12500000000000000       0.93750000000000000        0.0000000000000000     
  0.12500000000000000       0.96875000000000000        0.0000000000000000     
   8.1250000000000003E-002  0.95625000000000004        0.0000000000000000     
  0.10312499999999999       0.95937499999999998        0.0000000000000000     
  0.10625000000000000       0.98124999999999996        0.0000000000000000     
   8.4375000000000006E-002  0.97812500000000002        0.0000000000000000     
   3.1250000000000000E-002  0.87500000000000000        0.0000000000000000     
   6.2500000000000000E-002  0.87500000000000000        0.0000000000000000     
   6.2500000000000000E-002  0.90625000000000000        0.0000000000000000     
   1.8749999999999999E-002  0.89375000000000004        0.0000000000000000     
   4.0625000000000001E-002  0.89687499999999998        0.0000000000000000     
   4.3749999999999997E-002  0.91874999999999996        0.0000000000000000     
   2.1874999999999999E-002  0.91562500000000002        0.0000000000000000     
   9.3750000000000000E-002  0.87500000000000000        0.0000000000000000     
  0.12500000000000000       0.87500000000000000        0.0000000000000000     
  0.12500000000000000       0.90625000000000000        0.0000000000000000     
   8.1250000000000003E-002  0.89375000000000004        0.0000000000000000     
  0.10312499999999999       0.89687499999999998        0.0000000000000000     
  0.10625000000000000       0.91874999999999996        0.0000000000000000     
   8.4375000000000006E-002  0.91562500000000002        0.0000000000000000     
  0.15625000000000000       0.93750000000000000        0.0000000000000000     
  0.18750000000000000       0.93750000000000000        0.0000000000000000     
  0.18750000000000000       0.96875000000000000        0.0000000000000000     
  0.14374999999999999       0.95625000000000004        0.0000000000000000     
  0.16562499999999999       0.95937499999999998        0.0000000000000000     
  0.16875000000000001       0.98124999999999996        0.0000000000000000     
  0.14687500000000001       0.97812500000000002        0.0000000000000000     
  0.21875000000000000       0.93750000000000000        0.0000000000000000     
  0.25000000000000000       0.93750000000000000        0.0000000000000000     
  0.25000000000000000       0.96875000000000000        0.0000000000000000     
  0.20624999999999999       0.95625000000000004        0.0000000000000000     
  0.22812499999999999       0.95937499999999998        0.0000000000000000     
  0.23125000000000001       0.98124999999999996        0.0000000000000000     
  0.20937500000000001       0.97812500000000002        0.0000000000000000     
  0.15625000000000000       0.87500000000000000        0.0000000000000000     
  0.18750000000000000       0.87500000000000000        0.0000000000000000     
  0.18750000000000000       0.90625000000000000        0.0000000000000000     
  0.14374999999999999       0.89375000000000004        0.0000000000000000     
  0.16562499999999999       0.89687499999999998        0.0000000000000000     
  0.16875000000000001       0.91874999999999996        0.0000000000000000     
  0.14687500000000001       0.91562500000000002        0.0000000000000000     
  0.21875000000000000       0.87500000000000000        0.0000000000000000     
  0.25000000000000000       0.87500000000000000        0.0000000000000000     
  0.25000000000000000       0.90625000000000000        0.0000000000000000     
  0.20624999999999999       0.89375000000000004        0.0000000000000000     
  0.22812499999999999       0.89687499999999998        0.0000000000000000     
  0.23125000000000001       0.91874999999999996        0.0000000000000000     
  0.20937500000000001       0.91562500000000002        0.0000000000000000     
   3.1250000000000000E-002  0.81250000000000000        0.0000000000000000     
   6.2500000000000000E-002  0.81250000000000000        0.0000000000000000     
   6.2500000000000000E-002  0.84375000000000000        0.0000000000000000     
   1.8749999999999999E-002  0.83125000000000004        0.0000000000000000     
   4.0625000000000001E-002  0.83437499999999998        0.0000000000000000     
   4.3749999999999997E-002  0.85624999999999996        0.0000000000000000     
   2.1874999999999999E-002  0.85312500000000002        0.0000000000000000     
   9.3750000000000000E-002  0.81250000000000000        0.0000000000000000     
  0.12500000000000000       0.81250000000000000        0.0000000000000000     
  0.12500000000000000       0.84375000000000000        0.0000000000000000     
   8.1250000000000003E-002  0.83125000000000004        0.0000000000000000     
  0.10312499999999999       0.83437499999999998        0.0000000000000000     
  0.10625000000000000       0.85624999999999996        0.0000000000000000     
   8.4375000000000006E-002  0.85312500000000002        0.0000000000000000     
   3.1250000000000000E-002  0.75000000000000000        0.0000000000000000     
   6.2500000000000000E-002  0.75000000000000000        0.0000000000000000     
   6.2500000000000000E-002  0.78125000000000000        0.0000000000000000     
   1.8749999999999999E-002  0.76875000000000004        0.0000000000000000     
   4.0625000000000001E-002  0.77187499999999998        0.0000000000000000     
   4.3749999999999997E-002  0.79374999999999996        0.0000000000000000     
   2.1874999999999999E-002  0.79062500000000002        0.0000000000000000     
   9.3750000000000000E-002  0.75000000000000000        0.0000000000000000     
  0.12500000000000000       0.75000000000000000        0.0000000000000000     
  0.12500000000000000       0.78125000000000000        0.0000000000000000     
   8.1250000000000003E-002  0.76875000000000004        0.0000000000000000     
  0.10312499999999999       0.77187499999999998        0.0000000000000000     
  0.10625000000000000       0.79374999999999996        0.0000000000000000     
   8.4375000000000006E-002  0.79062500000000002        0.0000000000000000     
  0.15625000000000000       0.81250000000000000        0.0000000000000000     
  0.18750000000000000       0.81250000000000000        0.0000000000000000     
  0.18750000000000000       0.84375000000000000        0.0000000000000000     
  0.14374999999999999       0.83125000000000004        0.0000000000000000     
  0.16562499999999999       0.83437499999999998        0.0000000000000000     
  0.16875000000000001       0.85624999999999996        0.0000000000000000     
  0.14687500000000001       0.85312500000000002        0.0000000000000000     
  0.21875000000000000       0.81250000000000000        0.0000000000000000     
  0.25000000000000000       0.81250000000000000        0.0000000000000000     
  0.25000000000000000       0.84375000000000000        0.0000000000000000     
  0.20624999999999999       0.83125000000000004        0.0000000000000000     
  0.22812499999999999       0.83437499999999998        0.0000000000000000     
  0.23125000000000001       0.85624999999999996        0.0000000000000000     
  0.20937500000000001       0.85312500000000002        0.0000000000000000     
  0.15625000000000000       0.75000000000000000        0.0000000000000000     
  0.18750000000000000       0.75000000000000000        0.0000000000000000     
  0.18750000000000000       0.78125000000000000        0.0000000000000000     
  0.14374999999999999       0.76875000000000004        0.0000000000000000     
  0.16562499999999999       0.77187499999999998        0.0000000000000000     
  0.16875000000000001       0.79374999999999996        0.0000000000000000     
  0.14687500000000001       0.79062500000000002        0.0000000000000000     
  0.21875000000000000       0.75000000000000000        0.0000000000000000     
  0.25000000000000000       0.75000000000000000        0.0000000000000000     
  0.25000000000000000       0.78125000000000000        0.0000000000000000     
  0.20624999999999999       0.76875000000000004        0.0000000000000000     
  0.22812499999999999       0.77187499999999998        0.0000000000000000     
  0.23125000000000001       0.79374999999999996        0.0000000000000000     
  0.20937500000000001       0.79062500000000002        0.0000000000000000     
  0.28125000000000000       0.93750000000000000        0.0000000000000000     
  0.31250000000000000       0.93750000000000000        0.0000000000000000     
  0.31250000000000000       0.96875000000000000        0.0000000000000000     
  0.26874999999999999       0.95625000000000004        0.0000000000000000     
  0.29062500000000002       0.95937499999999998        0.0000000000000000     
  0.29375000000000001       0.98124999999999996        0.0000000000000000     
  0.27187499999999998       0.97812500000000002        0.0000000000000000     
  0.34375000000000000       0.93750000000000000        0.0000000000000000     
  0.37500000000000000       0.93750000000000000        0.0000000000000000     
  0.37500000000000000       0.96875000000000000        0.0000000000000000     
  0.33124999999999999       0.95625000000000004        0.0000000000000000     
  0.35312500000000002       0.95937499999999998        0.0000000000000000     
  0.35625000000000001       0.98124999999999996        0.0000000000000000     
[...]
 CELL_DATA        3584
 SCALARS Tumor_cells float
 LOOKUP_TABLE default
   -0.21222650926487803282E-06
   -0.30591296050050208875E-06
   -0.15310842203734612514E-06
   -0.15311143944091101452E-06
   -0.30591295920334873943E-06
   -0.21222332732060199922E-06
   -0.30363713789821266488E-06
   -0.30590530723122177067E-06
   -0.31604563666278636669E-06
   -0.31604645661468221087E-06
   -0.30590561262429216906E-06
   -0.30363688841379430731E-06
    0.11159679510730938730E-06
    0.11159655883760361904E-06
   -0.21224214696697646787E-06
   -0.30591597002156161561E-06
   -0.15314367471581986090E-06
   -0.15314203499017870957E-06
   -0.30591663298058403726E-06
   -0.21223384729666240472E-06
   -0.30364381362484360459E-06
   -0.30590252527612523043E-06
   -0.31605085976344352101E-06
   -0.15310611344348599759E-06
   -0.30590681167225700621E-06
   -0.21223379761004657320E-06
    0.11157544105711293337E-06
    0.11157672831210010212E-06
   -0.21223720859644249490E-06
   -0.30591655649523298282E-06
   -0.15313929641656298899E-06
   -0.15314682709772538992E-06
   -0.30591573300091475133E-06
   -0.21223767913277500646E-06
   -0.21223647834506537615E-06
   -0.30590655366142749523E-06
   -0.15310258384800651962E-06
   -0.31605123955867452564E-06
   -0.30590261947608866268E-06
   -0.30364358547588832798E-06
    0.11157714688950440415E-06
    0.11157497199536485956E-06
   -0.21231447218099052874E-06
   -0.30592892136938539447E-06
   -0.15336679129099934265E-06
   -0.15336959227884462783E-06
   -0.30592884637604327783E-06
   -0.21231039104644074077E-06
   -0.21227790353261490840E-06
   -0.30585352877033733203E-06
   -0.15313794662358657612E-06
   -0.15314119827495786463E-06
   -0.30585339383908383626E-06
   -0.21227511726376586210E-06
    0.11140797280481162891E-06
    0.11140744075567032673E-06
   -0.21229100832275762385E-06
   -0.30593831719420335467E-06
   -0.15329869114435015634E-06
   -0.15325769723814624562E-06
   -0.30592860564238714931E-06
   -0.21227976925359653074E-06
   -0.30367216923077301341E-06
   -0.30588431968785092598E-06
   -0.31607029703490830829E-06
   -0.15313090109164831117E-06
   -0.30588525780914293505E-06
   -0.21226952901663770535E-06
    0.11145505718815094823E-06
    0.11149873771155649614E-06
   -0.21244390610906205265E-06
   -0.30601921828646485415E-06
   -0.15373186885978152173E-06
   -0.15353303545979857109E-06
   -0.30596071427743994166E-06
   -0.21240478588290443795E-06
   -0.30374899736202518182E-06
   -0.30582286215606145362E-06
   -0.31613269716277771155E-06
   -0.15321277292016707257E-06
   -0.30584548810400881020E-06
   -0.21240107671427838164E-06
    0.11106354396807242449E-06
    0.11131713748848815980E-06
   -0.21266708833246467624E-06
   -0.30604561918773861315E-06
   -0.15441255766361548203E-06
   -0.15424276069528666696E-06
   -0.30597263438172726150E-06
   -0.21263446387955931228E-06
   -0.21245487317548989550E-06
   -0.30556482447813497820E-06
   -0.15329096340825541891E-06
   -0.15331851670139414453E-06
   -0.30562383431118872559E-06
   -0.21252578636213731434E-06
    0.11047809959461541521E-06
    0.11071544224768423703E-06
   -0.21376046014173736230E-06
   -0.30666240698212836323E-06
   -0.15746611874666250088E-06
   -0.15639645757881621548E-06
   -0.30613162192501223590E-06
   -0.21355715602987169673E-06
   -0.21296945210328839326E-06
   -0.30456229760265016755E-06
   -0.15377148491294552055E-06
   -0.15396191612361773420E-06
   -0.30511029434117954229E-06
   -0.21347648771123576983E-06
    0.10733616925962164009E-06
    0.10901578079883331586E-06
   -0.21228306311731981970E-06
   -0.30592849530611287028E-06
   -0.15325515821846210118E-06
   -0.15330169586441865313E-06
   -0.30593795987204710715E-06
   -0.21228674700079164071E-06
   -0.21227253249078466124E-06
   -0.30588506282939245611E-06
   -0.15312742080224031656E-06
   -0.31607055435096714402E-06
   -0.30588440431432992748E-06
   -0.30367185766848743326E-06
    0.11149918472621485811E-06
    0.11145456211953827952E-06
   -0.21263842101543843922E-06
   -0.30597275061365520295E-06
   -0.15424038287422013010E-06
   -0.15441550913666266818E-06
   -0.30604545455277676293E-06
   -0.21266323536440824675E-06
   -0.21252887630194324782E-06
   -0.30562422478177988765E-06
   -0.15331498808672082418E-06
   -0.15329425645254741447E-06
   -0.30556442206798936722E-06
   -0.21245193298972646705E-06
    0.11071595383760898953E-06
    0.11047760909120015932E-06
   -0.21240796814496756632E-06
   -0.30596054107997539355E-06
   -0.15353070896234597423E-06
   -0.15373482928009636028E-06
   -0.30601883875998686871E-06
   -0.21243960609117551507E-06
   -0.21240414538927489927E-06
   -0.30584543640934949362E-06
   -0.15320900496717953521E-06
   -0.31613297047031105989E-06
   -0.30582297746374431247E-06
   -0.30374879746321980017E-06
    0.11131754577943347962E-06
    0.11106291676200970535E-06
   -0.21356100221459248482E-06
   -0.30613195459480855491E-06
   -0.15639428699224027778E-06
   -0.15746908515439593085E-06
   -0.30666213473848083744E-06
   -0.21375665085197580853E-06
   -0.21347959102623798553E-06
   -0.30511087231971004199E-06
   -0.15395807744026090812E-06
   -0.15377471580411644541E-06
   -0.30456199531101943996E-06
   -0.21296647983668886822E-06
    0.10901607064407506915E-06
    0.10733562286556378585E-06
   -0.21443921141671157282E-06
   -0.30658050325527048596E-06
   -0.15900261592059436146E-06
   -0.15900509880205576067E-06
   -0.30658030011392800865E-06
   -0.21443557285115104720E-06
   -0.21366319184938320250E-06
   -0.30414513092987731879E-06
   -0.15427005380119340155E-06
   -0.15427365207429710172E-06
   -0.30414465306961145719E-06
   -0.21366007453754889217E-06
    0.10623650294689452560E-06
    0.10623609767601058321E-06
   -0.22067889041695894139E-06
   -0.31096066192016719017E-06
   -0.17418679422456737722E-06
   -0.17125819960203490543E-06
   -0.30930630280731058352E-06
   -0.21977169805045077179E-06
   -0.21698922406637077894E-06
   -0.29930153832499506118E-06
   -0.15730289865501657651E-06
   -0.15787659942418063287E-06
   -0.30118900958894546664E-06
   -0.21859141426372298816E-06
    0.90589149882582525579E-07
    0.95341830261404478740E-07
   -0.21977502687340755075E-06
   -0.30930630096679788051E-06
   -0.17125651887877220624E-06
   -0.17418919763845987081E-06
   -0.31096069598540504995E-06
   -0.22067576227741199260E-06
   -0.21859425771949531320E-06
   -0.30118974978442932623E-06
   -0.15787238474075023329E-06
   -0.15730604607480613889E-06
   -0.29930107027604168837E-06
   -0.21698648404614250727E-06
    0.95342118412732697576E-07
    0.90588739628066735602E-07
   -0.24524094366043309494E-06
   -0.33983954456798195753E-06
   -0.23320650607332937575E-06
   -0.23320809372150560201E-06
   -0.33984002096575565021E-06
   -0.24523862882984150408E-06
   -0.23580938531263185150E-06
   -0.29325199204867880661E-06
   -0.17039677059634118503E-06
   -0.17040029480272822549E-06
   -0.29325130225790551183E-06
   -0.23580713954372729997E-06
    0.44335842944591704051E-07
    0.44335446171972513153E-07
   -0.21276593364271508358E-06
   -0.30620308062087052280E-06
   -0.15448964028276725215E-06
   -0.15394435876247059773E-06
   -0.30602700300650084776E-06
   -0.21262091732109600106E-06
   -0.30388324883327403033E-06
   -0.30570191569919758976E-06
   -0.31625557209971365061E-06
   -0.15339214003394453400E-06
   -0.30584582484572411724E-06
   -0.21270822420376078320E-06
    0.11027918194582446370E-06
    0.11108040474787606344E-06
   -0.21319975387702673527E-06
   -0.30647582666024256993E-06
   -0.15530862446136970487E-06
   -0.15432812436762045553E-06
   -0.30612206012882703999E-06
   -0.21285462145720751099E-06
   -0.30403851063219909040E-06
   -0.30556206416531866351E-06
   -0.31640125077087042705E-06
   -0.15364647548929358549E-06
   -0.30597658326354205621E-06
   -0.21316353421941477195E-06
    0.10932490826433794434E-06
    0.11092958458098847584E-06
   -0.21630717522585448513E-06
   -0.30820265724752729690E-06
   -0.16302552257784334210E-06
   -0.15971725995644335918E-06
   -0.30660456262646915204E-06
   -0.21519670593366346015E-06
   -0.21391116450912583041E-06
   -0.30255806609900004918E-06
   -0.15471086195404570030E-06
   -0.15542357038946382135E-06
   -0.30483634356757612250E-06
   -0.21579540365520517115E-06
    0.10091205896145829315E-06
    0.10667709477935196392E-06
   -0.22004798162958163991E-06
   -0.31061212333083468290E-06
   -0.16915881820298021046E-06
   -0.16289124139844821590E-06
   -0.30738310604944838821E-06
   -0.21698748596864588312E-06
   -0.21498561535276272287E-06
   -0.30025137664866563344E-06
   -0.15585138448220656637E-06
   -0.15748704109912609775E-06
   -0.30579537288316265362E-06
   -0.21935266674218260159E-06
    0.93107160895381573896E-07
    0.10502436180945458257E-06
   -0.21357302539502478742E-06
   -0.30672363130060968913E-06
   -0.15585066167516387243E-06
   -0.15454988807038741377E-06
   -0.30620781118933085647E-06
   -0.21301088492868674153E-06
   -0.30415061621076831164E-06
   -0.30547453998867141044E-06
   -0.31651169914327333559E-06
   -0.15386886378424982521E-06
   -0.30619931068384078774E-06
   -0.21358737168088006400E-06
    0.10862591097035926403E-06
    0.11091046172135441707E-06
   -0.21377129144230055324E-06
   -0.30685782149579836744E-06
   -0.15605088167708334748E-06
   -0.15461180180484935764E-06
   -0.30625266599364382725E-06
   -0.21306707175520108032E-06
   -0.30419761921624574084E-06
   -0.30544790310757862588E-06
   -0.31656238114145236312E-06
   -0.15398758610037938237E-06
   -0.30637514710201605859E-06
   -0.21383150874028706989E-06
    0.10833109896863030108E-06
    0.11095108422874771828E-06
   -0.22340234339513925962E-06
   -0.31275523951312497963E-06
   -0.17319379267338401526E-06
   -0.16474071036171423612E-06
   -0.30807883750579853102E-06
   -0.21817954376653797240E-06
   -0.21574431428725272527E-06
   -0.29872264830861623049E-06
   -0.15671447079142295178E-06
   -0.15928667388355080792E-06
   -0.30767798091549178214E-06
   -0.22267974449065882050E-06
    0.87507855843686447715E-07
    0.10459815307041585444E-06
   -0.22515005416401655991E-06
   -0.31385306534024071618E-06
   -0.17465503505138606685E-06
   -0.16526513954953966921E-06
   -0.30842693800483504905E-06
   -0.21860203330387230375E-06
   -0.21605446193889823803E-06
   -0.29816910592950506296E-06
   -0.15710710707613414983E-06
   -0.16023359707338772659E-06
   -0.30915430122912487071E-06
   -0.22454557323415584330E-06
    0.85221923941333064722E-07
    0.10481565593985586960E-06
   -0.23755799530275143656E-06
   -0.32592366984574573950E-06
   -0.20646639851065777253E-06
   -0.19265787880741958324E-06
   -0.31776622644400973497E-06
   -0.22978838451766596844E-06
   -0.22334090657353621704E-06
   -0.29070759809412691591E-06
   -0.16324983361815941619E-06
   -0.16618391835462314947E-06
   -0.30179247298151724014E-06
   -0.23243555145504107133E-06
    0.57851384506055661704E-07
    0.79023606786480381869E-07
   -0.27240393544428170904E-06
   -0.34986629846726732678E-06
   -0.25171586978360137968E-06
   -0.21681652373241111741E-06
   -0.32998170608084653069E-06
   -0.24147863451340740549E-06
   -0.23046975392509833835E-06
   -0.28278354146440225320E-06
   -0.17074171282155554158E-06
   -0.17871483835984838569E-06
   -0.31369512459632401023E-06
   -0.25804118576114508723E-06
    0.16682491085511653112E-07
    0.64430964155923722294E-07
   -0.36135204779505249783E-06
   -0.47071260708339652624E-06
   -0.38065184832328689691E-06
   -0.36983891003052934214E-06
   -0.44820493582649828591E-06
   -0.31484499569886157269E-06
   -0.27744409095446514188E-06
   -0.30573943584270021358E-06
   -0.20000394635288759559E-06
   -0.20818043466005491215E-06
   -0.33275163860186002611E-06
   -0.32216387040646430119E-06
   -0.99203861546833172937E-07
   -0.52339989407728312821E-07
   -0.35139345077762001984E-06
   -0.56781891013130204632E-06
   -0.41422442839920195089E-06
   -0.48766210781597318267E-06
   -0.57988048272730079353E-06
   -0.42913154938348467679E-06
   -0.34549031665766394870E-06
   -0.36496514280387113767E-06
   -0.25694406254673921468E-06
   -0.30537202958297819718E-06
   -0.47101503153300926555E-06
   -0.43634002838687911955E-06
   -0.30223769458790543641E-06
   -0.18573238160562306890E-06
   -0.31196493962642958709E-06
   -0.37137311367948097536E-06
   -0.28647314963426752032E-06
   -0.23346041121721263538E-06
   -0.33871755291959912554E-06
   -0.24953047935416631499E-06
   -0.23525944426945626672E-06
   -0.27841003183968617673E-06
   -0.17683510996130447463E-06
   -0.19068034450502726274E-06
   -0.33154491498116792105E-06
   -0.28421426566710900270E-06
   -0.13743744877672899985E-07
    0.56845949388885616183E-07
   -0.33317463308954237682E-06
   -0.38172605484750818275E-06
   -0.29867094454229849470E-06
   -0.23904459788301665521E-06
   -0.34197311845079820604E-06
   -0.25242623299183379319E-06
   -0.23706229718185919225E-06
   -0.27695337121055958027E-06
   -0.17981907482055592234E-06
   -0.19720427252912941611E-06
   -0.34328676409072592361E-06
   -0.29777617265674211955E-06
   -0.26124186211721300816E-07
    0.55404198051237328629E-07
   -0.38578555406197939370E-06
   -0.63569436828242006721E-06
   -0.47208465294320905505E-06
   -0.56940843175706151869E-06
   -0.66809384599144986150E-06
   -0.51126482364490765780E-06
   -0.39800847477611942675E-06
   -0.42518738532345604926E-06
   -0.32104875482370080209E-06
   -0.42343638125359169821E-06
   -0.61105107973694625109E-06
   -0.53117221931704497513E-06
   -0.44440946392526798533E-06
   -0.29114964568161100508E-06
   -0.42317760739096850112E-06
   -0.66220399473680555517E-06
   -0.47906645467311735224E-06
   -0.58727283814204489925E-06
   -0.69212934373045955161E-06
   -0.53756662856374406107E-06
   -0.41530327537166295776E-06
   -0.44880259225031626289E-06
   -0.35547445665013284333E-06
   -0.48163048403983766772E-06
   -0.68069651575237422098E-06
   -0.59156029149227546628E-06
   -0.49565231820079817215E-06
   -0.32929956795816142819E-06
   -0.21262407933432584386E-06
   -0.30602676605802018473E-06
   -0.15394214900453385056E-06
   -0.15449259795429754654E-06
   -0.30620264517017663671E-06
   -0.21276186539857246134E-06
   -0.21271126595986026348E-06
   -0.30584574796005073355E-06
   -0.15338835435140025772E-06
   -0.31625573030856454352E-06
   -0.30570203884803734195E-06
   -0.30388298438907660727E-06
    0.11108079719291341340E-06
    0.11027851747738170676E-06
   -0.21520054975096263016E-06
   -0.30660460491384624876E-06
   -0.15971524651785049670E-06
   -0.16302819242335638845E-06
   -0.30820234740899023976E-06
   -0.21630371638315938169E-06
   -0.21579852593555938779E-06
   -0.30483697712332255874E-06
   -0.15541952874686161973E-06
   -0.15471390456024253422E-06
   -0.30255783269548747804E-06
   -0.21390821436616688451E-06
    0.10667741542033221825E-06
    0.10091158631060653606E-06
   -0.21285783055491206717E-06
   -0.30612178302443965351E-06
   -0.15432581199097304542E-06
   -0.15531151974785625188E-06
   -0.30647535515293435336E-06
   -0.21319564689230160242E-06
   -0.21316658207572780078E-06
   -0.30597662909327525991E-06
   -0.15364286911294516918E-06
   -0.31640141964682184736E-06
   -0.30556226953435016880E-06
   -0.30403833734710204881E-06
    0.11092994948150480083E-06
    0.10932417848173211230E-06
   -0.21699140259510299805E-06
   -0.30738318450230896011E-06
   -0.16288921192315134607E-06
   -0.16916124044732345847E-06
   -0.31061174678477695944E-06
   -0.22004475145940529211E-06
   -0.21935558703710322575E-06
   -0.30579615367818653101E-06
   -0.15748302736078336074E-06
   -0.15585437724050222534E-06
   -0.30025113381998558293E-06
   -0.21498276200426464911E-06
    0.10502463589154586723E-06
    0.93106657407537780445E-07
   -0.22979161354420386832E-06
   -0.31776607690433919867E-06
   -0.19265647221176283562E-06
   -0.20646811658650047898E-06
   -0.32592356960799926914E-06
   -0.23755548084595208638E-06
   -0.23243787106349749582E-06
   -0.30179332916626913662E-06
   -0.16617987029089382652E-06
   -0.16325282419445807485E-06
   -0.29070726694329874051E-06
   -0.22333837086325167271E-06
    0.79023807251768375514E-07
    0.57850788457327598555E-07
   -0.31484687118006525048E-06
   -0.44820427247859276790E-06
   -0.36983793986992472385E-06
   -0.38065260272471733928E-06
   -0.47071323673903423166E-06
   -0.36135124851142956386E-06
   -0.32216523107884838210E-06
   -0.33275257550796770528E-06
   -0.20817710625459956116E-06
   -0.20000637967677955923E-06
   -0.30573899590512335751E-06
   -0.27744282577709884196E-06
   -0.52339626599364335769E-07
   -0.99204528411225829379E-07
   -0.24148186817754098000E-06
   -0.32998135284828197836E-06
   -0.21681526356482118403E-06
   -0.25171719746365458894E-06
   -0.34986608627368225985E-06
   -0.27240237031448533233E-06
   -0.25804313540836616762E-06
   -0.31369630318043362764E-06
   -0.17871103077898906437E-06
   -0.17074434733048882854E-06
   -0.28278317999748657817E-06
   -0.23046747100911532811E-06
    0.64431194693510613144E-07
    0.16682178437382602079E-07
   -0.42913347030739780511E-06
   -0.57987930150422826521E-06
   -0.48765964743135073812E-06
   -0.41421537943605359891E-06
   -0.56781665565602220094E-06
   -0.35138963248522559033E-06
   -0.43634019535379933005E-06
   -0.47101580470719073680E-06
   -0.30536951350748991153E-06
   -0.25694564885787552189E-06
   -0.36496473576025228200E-06
   -0.34548958273623396813E-06
   -0.18573200461764184001E-06
   -0.30223736919595839586E-06
   -0.21301413214554983357E-06
   -0.30620757280123140810E-06
   -0.15454764689376290948E-06
   -0.15585352355141683796E-06
   -0.30672313533113839838E-06
   -0.21356902284710121138E-06
   -0.21359042862833559114E-06
   -0.30619937865838054750E-06
   -0.15386513460038454130E-06
   -0.31651190675258331956E-06
   -0.30547474938812718904E-06
   -0.30415043908830841062E-06
    0.11091089120679645810E-06
    0.10862528825313043027E-06
   -0.21818352317592623540E-06
   -0.30807891402552223540E-06
   -0.16473874368221412428E-06
   -0.17319608530398644172E-06
   -0.31275478717430777882E-06
   -0.22339930988923388568E-06
   -0.22268247855183505183E-06
   -0.30767868435160438588E-06
   -0.15928262523346978290E-06
   -0.15671752809691705579E-06
   -0.29872241343577598748E-06
   -0.21574150856396148707E-06
    0.10459838420897001410E-06
    0.87507453513790127818E-07
   -0.21307096206887887670E-06
   -0.30625241704869143642E-06
   -0.15460953874881163970E-06
   -0.15605377060350021672E-06
   -0.30685742585562976184E-06
   -0.21376730424407071929E-06
   -0.21383459143505563722E-06
   -0.30637527002374494298E-06
   -0.15398391137614460001E-06
   -0.31656256390862950426E-06
   -0.30544802942282769937E-06
   -0.30419752169316289232E-06
    0.11095146264962510994E-06
    0.10833042881920003558E-06
   -0.21860696557574054853E-06
   -0.30842701464778288314E-06
   -0.16526320254774047986E-06
   -0.17465737254758416840E-06
   -0.31385260706758264308E-06
   -0.22514723592766641060E-06
   -0.22454834229988058324E-06
   -0.30915493470773921623E-06
   -0.16022976497610138293E-06
   -0.15711008004984183497E-06
   -0.29816872633682827632E-06
   -0.21605162747662004439E-06
    0.10481590720431299967E-06
    0.85221396852002211383E-07
   -0.24953428170171841319E-06
   -0.33871713499753369306E-06
   -0.23345920856859245167E-06
   -0.28647452333677277526E-06
   -0.37137261040194314103E-06
   -0.31196363181100602703E-06
   -0.28421599646237481893E-06
   -0.33154609397782387662E-06
   -0.19067675324154884686E-06
   -0.17683754799097207123E-06
   -0.27840965878313341010E-06
   -0.23525733705112437266E-06
    0.56846083930278433692E-07
   -0.13744047019100294129E-07
   -0.51126840263677790112E-06
   -0.66809923618616311299E-06
   -0.56942695911707039989E-06
   -0.47216539383877807118E-06
   -0.63571075610498672510E-06
   -0.38578927044562203621E-06
   -0.53117235753213615191E-06
   -0.61105198924027992503E-06
   -0.42343421221854948869E-06
   -0.32104972553361618638E-06
   -0.42518726604844334255E-06
   -0.39800838448818957279E-06