# vtk DataFile Version 3.0
LAPLACIEN  2D
ASCII
DATASET UNSTRUCTURED_GRID
 POINTS        1857  float
   3.1250000000000000E-002  0.93750000000000000        0.0000000000000000     
   6.2500000000000000E-002  0.93750000000000000        0.0000000000000000     
   6.2500000000000000E-002  0.96875000000000000        0.0000000000000000     
   1.8749999999999999E-002  0.95625000000000004        0.0000000000000000     
   4.0625000000000001E-002  0.95937499999999998        0.0000000000000000     
   4.3749999999999997E-002  0.98124999999999996        0.0000000000000000     
   2.1874999999999999E-002  0.97812500000000002        0.0000000000000000     
   9.3750000000000000E-002  0.93750000000000000        0.0000000000000000     
  0.12500000000000000       0.93750000000000000        0.0000000000000000     
  0.12500000000000000       0.96875000000000000        0.0000000000000000     
   8.1250000000000003E-002  0.95625000000000004        0.0000000000000000     
  0.10312499999999999       0.95937499999999998        0.0000000000000000     
  0.10625000000000000       0.98124999999999996        0.0000000000000000     
   8.4375000000000006E-002  0.97812500000000002        0.0000000000000000     
   3.1250000000000000E-002  0.87500000000000000        0.0000000000000000     
   6.2500000000000000E-002  0.87500000000000000        0.0000000000000000     
   6.2500000000000000E-002  0.90625000000000000        0.0000000000000000     
   1.8749999999999999E-002  0.89375000000000004        0.0000000000000000     
   4.0625000000000001E-002  0.89687499999999998        0.0000000000000000     
   4.3749999999999997E-002  0.91874999999999996        0.0000000000000000     
   2.1874999999999999E-002  0.91562500000000002        0.0000000000000000     
   9.3750000000000000E-002  0.87500000000000000        0.0000000000000000     
  0.12500000000000000       0.87500000000000000        0.0000000000000000     
  0.12500000000000000       0.90625000000000000        0.0000000000000000     
   8.1250000000000003E-002  0.89375000000000004        0.0000000000000000     
  0.10312499999999999       0.89687499999999998        0.0000000000000000     
  0.10625000000000000       0.91874999999999996        0.0000000000000000     
   8.4375000000000006E-002  0.91562500000000002        0.0000000000000000     
  0.15625000000000000       0.93750000000000000        0.0000000000000000     
  0.18750000000000000       0.93750000000000000        0.0000000000000000     
  0.18750000000000000       0.96875000000000000        0.0000000000000000     
  0.14374999999999999       0.95625000000000004        0.0000000000000000     
  0.16562499999999999       0.95937499999999998        0.0000000000000000     
  0.16875000000000001       0.98124999999999996        0.0000000000000000     
  0.14687500000000001       0.97812500000000002        0.0000000000000000     
  0.21875000000000000       0.93750000000000000        0.0000000000000000     
  0.25000000000000000       0.93750000000000000        0.0000000000000000     
  0.25000000000000000       0.96875000000000000        0.0000000000000000     
  0.20624999999999999       0.95625000000000004        0.0000000000000000     
  0.22812499999999999       0.95937499999999998        0.0000000000000000     
  0.23125000000000001       0.98124999999999996        0.0000000000000000     
  0.20937500000000001       0.97812500000000002        0.0000000000000000     
  0.15625000000000000       0.87500000000000000        0.0000000000000000     
  0.18750000000000000       0.87500000000000000        0.0000000000000000     
  0.18750000000000000       0.90625000000000000        0.0000000000000000     
  0.14374999999999999       0.89375000000000004        0.0000000000000000     
  0.16562499999999999       0.89687499999999998        0.0000000000000000     
  0.16875000000000001       0.91874999999999996        0.0000000000000000     
  0.14687500000000001       0.91562500000000002        0.0000000000000000     
  0.21875000000000000       0.87500000000000000        0.0000000000000000     
  0.25000000000000000       0.87500000000000000        0.0000000000000000     
  0.25000000000000000       0.90625000000000000        0.0000000000000000     
  0.20624999999999999       0.89375000000000004        0.0000000000000000     
  0.22812499999999999       0.89687499999999998        0.0000000000000000     
  0.23125000000000001       0.91874999999999996        0.0000000000000000     
  0.20937500000000001       0.91562500000000002        0.0000000000000000     
   3.1250000000000000E-002  0.81250000000000000        0.0000000000000000     
   6.2500000000000000E-002  0.81250000000000000        0.0000000000000000     
   6.2500000000000000E-002  0.84375000000000000        0.0000000000000000     
   1.8749999999999999E-002  0.83125000000000004        0.0000000000000000     
   4.0625000000000001E-002  0.83437499999999998        0.0000000000000000     
   4.3749999999999997E-002  0.85624999999999996        0.0000000000000000     
   2.1874999999999999E-002  0.85312500000000002        0.0000000000000000     
   9.3750000000000000E-002  0.81250000000000000        0.0000000000000000     
  0.12500000000000000       0.81250000000000000        0.0000000000000000     
  0.12500000000000000       0.84375000000000000        0.0000000000000000     
   8.1250000000000003E-002  0.83125000000000004        0.0000000000000000     
  0.10312499999999999       0.83437499999999998        0.0000000000000000     
  0.10625000000000000       0.85624999999999996        0.0000000000000000     
   8.4375000000000006E-002  0.85312500000000002        0.0000000000000000     
   3.1250000000000000E-002  0.75000000000000000        0.0000000000000000     
   6.2500000000000000E-002  0.75000000000000000        0.0000000000000000     
   6.2500000000000000E-002  0.78125000000000000        0.0000000000000000     
   1.8749999999999999E-002  0.76875000000000004        0.0000000000000000     
   4.0625000000000001E-002  0.77187499999999998        0.0000000000000000     
   4.3749999999999997E-002  0.79374999999999996        0.0000000000000000     
   2.1874999999999999E-002  0.79062500000000002        0.0000000000000000     
   9.3750000000000000E-002  0.75000000000000000        0.0000000000000000     
  0.12500000000000000       0.75000000000000000        0.0000000000000000     
  0.12500000000000000       0.78125000000000000        0.0000000000000000     
   8.1250000000000003E-002  0.76875000000000004        0.0000000000000000     
  0.10312499999999999       0.77187499999999998        0.0000000000000000     
  0.10625000000000000       0.79374999999999996        0.0000000000000000     
   8.4375000000000006E-002  0.79062500000000002        0.0000000000000000     
  0.15625000000000000       0.81250000000000000        0.0000000000000000     
  0.18750000000000000       0.81250000000000000        0.0000000000000000     
  0.18750000000000000       0.84375000000000000        0.0000000000000000     
  0.14374999999999999       0.83125000000000004        0.0000000000000000     
  0.16562499999999999       0.83437499999999998        0.0000000000000000     
  0.16875000000000001       0.85624999999999996        0.0000000000000000     
  0.14687500000000001       0.85312500000000002        0.0000000000000000     
  0.21875000000000000       0.81250000000000000        0.0000000000000000     
  0.25000000000000000       0.81250000000000000        0.0000000000000000     
  0.25000000000000000       0.84375000000000000        0.0000000000000000     
  0.20624999999999999       0.83125000000000004        0.0000000000000000     
  0.22812499999999999       0.83437499999999998        0.0000000000000000     
  0.23125000000000001       0.85624999999999996        0.0000000000000000     
  0.20937500000000001       0.85312500000000002        0.0000000000000000     
  0.15625000000000000       0.75000000000000000        0.0000000000000000     
  0.18750000000000000       0.75000000000000000        0.0000000000000000     
  0.18750000000000000       0.78125000000000000        0.0000000000000000     
  0.14374999999999999       0.76875000000000004        0.0000000000000000     
  0.16562499999999999       0.77187499999999998        0.0000000000000000     
  0.16875000000000001       0.79374999999999996        0.0000000000000000     
  0.14687500000000001       0.79062500000000002        0.0000000000000000     
  0.21875000000000000       0.75000000000000000        0.0000000000000000     
  0.25000000000000000       0.75000000000000000        0.0000000000000000     
  0.25000000000000000       0.78125000000000000        0.0000000000000000     
  0.20624999999999999       0.76875000000000004        0.0000000000000000     
  0.22812499999999999       0.77187499999999998        0.0000000000000000     
  0.23125000000000001       0.79374999999999996        0.0000000000000000     
  0.20937500000000001       0.79062500000000002        0.0000000000000000     
  0.28125000000000000       0.93750000000000000        0.0000000000000000     
  0.31250000000000000       0.93750000000000000        0.0000000000000000     
  0.31250000000000000       0.96875000000000000        0.0000000000000000     
  0.26874999999999999       0.95625000000000004        0.0000000000000000     
  0.29062500000000002       0.95937499999999998        0.0000000000000000     
  0.29375000000000001       0.98124999999999996        0.0000000000000000     
  0.27187499999999998       0.97812500000000002        0.0000000000000000     
  0.34375000000000000       0.93750000000000000        0.0000000000000000     
  0.37500000000000000       0.93750000000000000        0.0000000000000000     
  0.37500000000000000       0.96875000000000000        0.0000000000000000     
  0.33124999999999999       0.95625000000000004        0.0000000000000000     
  0.35312500000000002       0.95937499999999998        0.0000000000000000     
  0.35625000000000001       0.98124999999999996        0.0000000000000000     
[...]
 CELL_DATA        3584
 SCALARS VEGF float
 LOOKUP_TABLE default
   -0.17078633095067929752E-07
   -0.96308920690434131227E-08
   -0.34814127746267976261E-07
   -0.29473700555040460884E-07
   -0.85207182746215646495E-08
   -0.22061666471529208149E-07
   -0.14661847650300535668E-09
   -0.14378042761247283316E-07
   -0.76607774954296915801E-08
   -0.49903565438622833118E-08
   -0.15269664102273976626E-07
   -0.55136249148621825149E-08
   -0.14616135898965668840E-07
   -0.13594560416994745771E-07
   -0.42593039054071690364E-07
   -0.34305356476193356129E-07
   -0.51835221180880486088E-07
   -0.42366546725948679859E-07
   -0.22270612287769610411E-07
   -0.32298984503263082192E-07
   -0.12676943533019016991E-07
   -0.31434632009486416694E-07
   -0.11625140698450134902E-07
   -0.20501896625103962808E-07
   -0.18152492802446298262E-07
   -0.38012739499654826458E-07
   -0.37286512376003224124E-07
   -0.32334807891254353061E-07
   -0.26868624868571380285E-07
   -0.22873806105146439453E-07
   -0.47097841707466833762E-07
   -0.45576283593370407146E-07
   -0.34000818568920613767E-07
   -0.48620259336627232816E-07
   -0.31920659686143954612E-07
   -0.18254322674856420384E-07
   -0.25394797133525623540E-07
   -0.72330720427264519361E-08
   -0.31429376116055422335E-07
   -0.17425459264886928809E-07
   -0.32852964920529246538E-07
   -0.35877371759548492698E-07
   -0.55457312910051998430E-07
   -0.51406449821110143874E-07
   -0.66067220825153420426E-07
   -0.60439517119021653944E-07
   -0.51702986118426361702E-07
   -0.62086007719332913275E-07
   -0.49684094475612467680E-07
   -0.45523651894831151262E-07
   -0.51228482720686986952E-07
   -0.44097123403456110185E-07
   -0.45854088829277677315E-07
   -0.54803668818058721818E-07
   -0.62069952996584684586E-07
   -0.61312727645988568971E-07
   -0.50484261368034172244E-07
   -0.39668423596795652143E-07
   -0.55238392708916126042E-07
   -0.44971323009708585646E-07
   -0.25479244201943763072E-07
   -0.34745921646558013378E-07
   -0.15997791873856566532E-07
   -0.36239155375757914754E-07
   -0.18349522216580827532E-07
   -0.28867815360470092226E-07
   -0.25856903322980869226E-07
   -0.48351406857662526858E-07
   -0.42706368440141166355E-07
   -0.37020912758565063738E-07
   -0.51031366369297371590E-07
   -0.39694314687480420271E-07
   -0.53490465702336483237E-07
   -0.43663580404303302924E-07
   -0.25402067766013335557E-07
   -0.34802035547203193295E-07
   -0.16454990520790621609E-07
   -0.37079271643880897105E-07
   -0.19790804097405399537E-07
   -0.30747418133179895109E-07
   -0.27311028303430145546E-07
   -0.50221412674486706926E-07
   -0.43403157726475901320E-07
   -0.37609433085206722003E-07
   -0.62278795975028197349E-07
   -0.54925839057254460764E-07
   -0.63561067453138831149E-07
   -0.57654112664820156607E-07
   -0.53128330829415115560E-07
   -0.63403128227040143663E-07
   -0.52944851244730328466E-07
   -0.50756148231663354442E-07
   -0.59303307746646751782E-07
   -0.54631837703961207796E-07
   -0.54658148398125515887E-07
   -0.66275571674174919808E-07
   -0.67331659969714490316E-07
   -0.65747647800410841828E-07
   -0.38849185485443722819E-07
   -0.29181700960209012810E-07
   -0.49574469826459074512E-08
   -0.97818268781326572187E-08
   -0.33931570627913429276E-07
   -0.52324366659281023845E-07
   -0.49260923629155200601E-07
   -0.47102450120736683477E-07
   -0.59158990315687363615E-07
   -0.54662311684224830409E-07
   -0.50067930006403376766E-07
   -0.59533608842120503285E-07
   -0.56721777296329978401E-07
   -0.56145473547997665794E-07
   -0.29204766869259238016E-07
   -0.25935900004942952736E-07
   -0.49576117757637031373E-07
   -0.48815301494706116066E-07
   -0.39118293835583917944E-07
   -0.56150713148120852168E-07
   -0.41777328746245426090E-07
   -0.25609779565584116556E-07
   -0.33392206853530277245E-07
   -0.13661188156977118211E-07
   -0.36020802275673660689E-07
   -0.20598680997541459323E-07
   -0.37328385290103591837E-07
   -0.41052466151503322810E-07
   -0.56649900443363225451E-07
   -0.52667532752058334367E-07
   -0.63144679042217300872E-07
   -0.57759004567724517008E-07
   -0.54959054149358868069E-07
   -0.68534564225799374172E-07
   -0.60648901515777725080E-07
   -0.53926696659215804984E-07
   -0.61290888569401467752E-07
   -0.51805037006982570581E-07
   -0.50834419811380544686E-07
   -0.57896871765102448762E-07
   -0.66264860173800665332E-07
   -0.66298460169382015773E-07
   -0.29238916147975928950E-07
   -0.25829248307870677075E-07
   -0.48243757418670171683E-07
   -0.47035016190671109173E-07
   -0.39094290574073654100E-07
   -0.56624278339797848701E-07
   -0.43547358721703372644E-07
   -0.26988336371311326166E-07
   -0.35184824642105796789E-07
   -0.15034683687357942657E-07
   -0.36814876693930249099E-07
   -0.21025371447951660712E-07
   -0.37872941127896080984E-07
   -0.41698054402560730846E-07
   -0.45547002793224628171E-07
   -0.33438183970756422882E-07
   -0.15245133551504642112E-07
    0.87997117124541952169E-09
   -0.29160613603509076951E-07
   -0.45026108513390431679E-07
   -0.53798405059615439231E-07
   -0.49253211233158618997E-07
   -0.61224313832784652039E-07
   -0.51586102256734556964E-07
   -0.47130100249127190971E-07
   -0.54179976959159858489E-07
   -0.56614211699388703176E-07
   -0.55632233612724902989E-07
   -0.35149542892649271362E-07
   -0.17393185060818939314E-07
    0.29960575357716743656E-07
    0.35624885634641324459E-07
   -0.17592432613098605401E-07
   -0.41534028410986912999E-07
   -0.53661981627335614477E-07
   -0.50401841031582969313E-07
   -0.66931431610914870722E-07
   -0.59900634234746059813E-07
   -0.50877039837214308840E-07
   -0.59113780561798319769E-07
   -0.52979041281496104419E-07
   -0.52186707062902465240E-07
    0.34290127092543673339E-06
    0.42734466458988892973E-06
    0.98185473717580306324E-06
    0.88746008581495646911E-06
    0.35890840061918632075E-06
    0.20576204143943701668E-06
    0.45028816207318639339E-07
    0.47685361428755761944E-07
   -0.29511338540613332991E-07
   -0.19132482436820840295E-07
    0.64483825473224970115E-07
    0.87667106868866214906E-07
    0.16154030658736306026E-06
    0.15054856702690936117E-06
    0.21217276023991030957E-06
    0.35914232420978389384E-06
    0.88182519881408993037E-06
    0.98755551465061581670E-06
    0.42720115200607477183E-06
    0.33659648646847755951E-06
    0.93228427850913370501E-07
    0.65044563781765962469E-07
   -0.26062418273746122520E-07
   -0.22401617419448655496E-07
    0.47263853797260326812E-07
    0.39612752029997432714E-07
    0.14980697959892340736E-06
    0.16239105034543995188E-06
    0.38296387333336669666E-05
    0.50768991341114416642E-05
    0.10687106426381650116E-04
    0.10692773183384045749E-04
    0.50767204879918140852E-05
    0.38233084512597347596E-05
    0.15741446180617539516E-05
    0.14115168182772717628E-05
    0.52434135931947732440E-06
    0.53135055196776266118E-06
    0.14110101066576151457E-05
    0.15686196173941055974E-05
    0.26792425873285544609E-05
    0.26800424700472969123E-05
   -0.44221446513007250799E-07
   -0.33834272864074526638E-07
   -0.41141258008848477198E-07
   -0.35217713529363758090E-07
   -0.22056514184750598738E-07
   -0.33042457624612434173E-07
   -0.15551719728735146931E-07
   -0.36256075249989146266E-07
   -0.19543579538883758291E-07
   -0.30550769289219197233E-07
   -0.26072716006268430999E-07
   -0.48029932815443315495E-07
   -0.41097636993212998202E-07
   -0.35698512390334332657E-07
   -0.16335659903559785611E-07
   -0.13233158264542869240E-07
   -0.31523455521442002182E-08
   -0.11448563436872295721E-07
   -0.12100036036170057873E-07
   -0.28182697950941854785E-07
   -0.12637386269894045258E-07
   -0.33017667599469332049E-07
   -0.17673753700375049521E-07
   -0.28369407215691121455E-07
   -0.20135722566551112312E-07
   -0.37136384129846272123E-07
   -0.32509907595593630319E-07
   -0.28927140215457484313E-07
    0.13555321223493329415E-06
    0.13159229416812361159E-06
    0.31577062402291765593E-06
    0.22819076511246625825E-06
    0.67405164963096088105E-07
    0.17304816232643183445E-08
   -0.27125627433853409989E-07
   -0.19810303640422712672E-07
   -0.47691828135690746657E-07
   -0.39747481200840964447E-07
   -0.65752509298574910720E-08
    0.84112915296467159239E-08
    0.14692896558552647732E-07
    0.48828918424259174638E-08
    0.85836963427104352719E-06
    0.70577042273915784368E-06
    0.13346767114350765854E-05
    0.91742005234322515728E-06
    0.37357588415227109864E-06
    0.15158470820280789445E-06
    0.40270505381102842103E-07
    0.75308211911707101910E-07
   -0.13986578283975322172E-08
    0.25999942195969869501E-07
    0.17285083297098096238E-06
    0.31339159912809960432E-06
    0.27372973212008140977E-06
    0.21519853610683057912E-06
    0.48029227998838935570E-07
    0.27535297677733246189E-07
    0.61802961050853057391E-07
    0.25292950419280489168E-07
    0.40641037355710204044E-08
   -0.21007138693435127703E-07
   -0.77980801291433849722E-08
   -0.26782113906660110328E-07
   -0.13436461125554234678E-07
   -0.22954170337871082584E-07
   -0.63141547288624863839E-08
   -0.96737501561402097288E-08
   -0.15218285517380802777E-07
   -0.16036407284047747040E-07
    0.12491616975580319348E-06
    0.66997457909796544545E-07
    0.10998645711023393292E-06
    0.47823158717065139814E-07
    0.15076562458131728312E-07
   -0.16975626402289115768E-07
   -0.43135238798725717162E-08
   -0.21001654747830599749E-07
   -0.84858174277032865965E-08
   -0.15858611291143493090E-07
    0.10561489078456610152E-07
    0.27399012487969794586E-07
    0.19438091942704113586E-08
   -0.42913605392795251512E-08
    0.25805643215966402391E-05
    0.18746714203240802123E-05
    0.31248040747713055390E-05
    0.20096177491519989031E-05
    0.88484307168426291101E-06
    0.37824121937520891966E-06
    0.15465467733464855324E-06
    0.26352513859664182551E-06
    0.10555292321363193081E-06
    0.19246520211865485161E-06
    0.60192069457696137124E-06
    0.11083387384074727814E-05
    0.81017616557241452049E-06
    0.62679052381283675242E-06
    0.46873912870191120848E-05
    0.30297170672307061012E-05
    0.44804759208651344905E-05
    0.26915911419389810598E-05
    0.12418203432236185100E-05
    0.50789992974084889269E-06
    0.23854283265631465816E-06
    0.44216205436965165969E-06
    0.23380567826370199554E-06
    0.41694423973202747028E-06
    0.11380443084582026335E-05
    0.22127586945074401772E-05
    0.13543541339083901726E-05
    0.10099947669563636559E-05
    0.32070331359947474282E-05
    0.33016848951757441204E-05
    0.65279888267723931727E-05
    0.53588472521255388955E-05
    0.24132109128545065512E-05
    0.14306582320636778389E-05
    0.57993223312894814613E-06
    0.65899745064741610649E-06
    0.24277393687929821237E-06
    0.30914893195224229973E-06
    0.92020900925113643891E-06
    0.12908917538401749915E-05
    0.15632878534136191170E-05
    0.14040931840936770572E-05
    0.15794191334907138006E-04
    0.14077549921134448305E-04
    0.24962111573351814068E-04
    0.18833929394405484739E-04
    0.88822159211359402151E-05
    0.49470689814279875999E-05
    0.22684483629560135309E-05
    0.28744259977433003449E-05
    0.13729116445242815357E-05
    0.18026003262825769934E-05
    0.46173787868265880679E-05
    0.70130490725849428983E-05
    0.68865232726396333077E-05
    0.59154619343031206196E-05
    0.34445433985083187621E-04
    0.39022558120821545147E-04
    0.74593643598416282947E-04
    0.66868470817375480941E-04
    0.32897608009209453950E-04
    0.22431200196591105254E-04
    0.10199533035707961158E-04
    0.10481612974263122733E-04
    0.47216523973226010187E-05
    0.51960399061012954152E-05
    0.12424998613518777602E-04
    0.15358937309925381958E-04
    0.20872648321715166978E-04
    0.19737561407093293060E-04
    0.18257249248668187412E-03
    0.17589624707385514740E-03
    0.30113336847975059624E-03
    0.24509328211108090791E-03
    0.12529756920110475082E-03
    0.78155085228577477483E-04
    0.38748613572157582002E-04
    0.45283809916277680257E-04
    0.23270181104437310035E-04
    0.28010077952471190222E-04
    0.63738231915027809501E-04
    0.87519837193900142645E-04
    0.94788325894584580882E-04
    0.84998952558608571739E-04
    0.46838487754173809441E-04
    0.36677036808161290538E-04
    0.58247900205030249149E-04
    0.40735029756623186269E-04
    0.19997343043143091311E-04
    0.10395208555665050274E-04
    0.52144525467497268885E-05
    0.73911537376412630841E-05
    0.40704901766570826047E-05
    0.57188715260508599277E-05
    0.13753906093551426616E-04
    0.22531197669271462483E-04
    0.18249226105548991541E-04
    0.15007576750614078391E-04
    0.85735109032705666401E-04
    0.59473233361428323653E-04
    0.83971217819693867702E-04
    0.54654314226490492278E-04
    0.27944116413043832228E-04
    0.13566633494656292564E-04
    0.74216363214495908527E-05
    0.11776519458320535788E-04
    0.73837488109992438718E-05
    0.11136605452424415283E-04
    0.25434699971451031256E-04
    0.44719719343767600059E-04
    0.30025354823917211152E-04
    0.23652623465283045606E-04
    0.56080076896280659469E-03
    0.47080372395121944601E-03
    0.71789401145023405259E-03
    0.54085111694377797399E-03
    0.28830599760205661165E-03
    0.16654107890700062017E-03
    0.89963029391875657921E-04
    0.11842207164107139709E-03
    0.69139583788373413218E-04
    0.90248448774928358997E-04
    0.19519890213052837119E-03
    0.29230036596301754324E-03
    0.25736863557063719603E-03
    0.22041266929416334806E-03
    0.10412190084800195498E-02
    0.77280332472301623784E-03
    0.10439387338744084057E-02
    0.73143199922541394294E-03
    0.40742982103378149426E-03
    0.21884406688890280343E-03
    0.12915139537690256103E-03
    0.19104585361615447105E-03
    0.12683820439982144415E-03
    0.17849825557705094824E-03
    0.36677648941918998939E-03
    0.59211966688200892532E-03
    0.42913034418473762878E-03
    0.35176285597749492326E-03
   -0.27475835488217976350E-07
   -0.22478747496848067547E-07
   -0.39793781034213770237E-07
   -0.34680274355968625064E-07
   -0.33225339471458876189E-07
   -0.49800731307513042384E-07
   -0.41336802704742143545E-07
   -0.25735861843947118541E-07
   -0.34971406206103504077E-07
   -0.14774802084675085915E-07
   -0.35983501559791868531E-07
   -0.20116994490895868838E-07
   -0.35954286644474987818E-07
   -0.39383364817664627101E-07
    0.85119442854079591038E-08
    0.67904434547477028808E-07
    0.22273269476273079055E-06
    0.32161478010786404185E-06
    0.13162375533447798412E-06
    0.12939184190437612864E-06
    0.14167813571890336505E-07
   -0.57446442673053060462E-08
   -0.46290964030785984050E-07
   -0.40105077184853627076E-07
   -0.19828805688159975947E-07
   -0.32039008740990525986E-07
    0.44230240939621600979E-08
    0.15792939884709007437E-07
   -0.22615646537632330800E-07
   -0.12521616212708744672E-07
   -0.16024077363472822442E-07
    0.33094370316760696534E-08
   -0.12622911183986029598E-07
   -0.21912798259092331364E-07
   -0.30440176453389859704E-07
   -0.19796733918770542669E-07
   -0.32787490284288098165E-07
   -0.12903138713873548681E-07
   -0.32743970030699904113E-07
   -0.17202010699025395173E-07
   -0.29181845964409905699E-07
   -0.30794324916053375721E-07
    0.15836685945338205724E-06
    0.37407634960328118029E-06
    0.91196354789813002182E-06
    0.13405223349468509478E-05
    0.70580415130853376619E-06
    0.85221183229039350085E-06
    0.31915227427531968118E-06
    0.17368431406975219328E-06
    0.19459563402897176940E-07
    0.61903138113531451767E-08
    0.75291216203092108766E-07
    0.35357998746965134021E-07
    0.21474030986135750367E-06
    0.27483176328635862160E-06
    0.14370741176424389105E-05
    0.24134531197508829951E-05
    0.53532224369028417413E-05
    0.65336979322779609855E-05
    0.33015548305424112240E-05
    0.32007474390161109291E-05
    0.12964768702615285704E-05
    0.92078790955502004633E-06
    0.30223954600648571083E-06
    0.24989940812088611123E-06
    0.65858692721488065799E-06
    0.57452316625820913539E-06
    0.14033627783411970009E-05
    0.15641515681059270392E-05
    0.22437526557249566812E-04
    0.32897799236021393215E-04
    0.66862841609662600900E-04
    0.74599291740134202272E-04
    0.39022401216515529968E-04
    0.34439142412344388785E-04
    0.15364494278330569662E-04
    0.12425528862632607152E-04
    0.51890523722697567293E-05
    0.47286794117677939640E-05
    0.10481120285610749833E-04
    0.10194015130655408445E-04
    0.19736778669358930304E-04
    0.20873468120100196907E-04
    0.49534850434058043191E-05
    0.88824619087785253163E-05
    0.18828314733118012633E-04
    0.24967819782121861806E-04
    0.14077425932587738945E-04
    0.15787916092382700919E-04
    0.70186434217264297324E-05
    0.46179637854884338257E-05
    0.17956955126360377196E-05
    0.13800406331482966571E-05
    0.28740186054745666975E-05
    0.22630408507247598569E-05
    0.59147359285680348875E-05
    0.68873921431464006372E-05
    0.78161375416745175427E-04
    0.12529777059951710235E-03
    0.24508774875596440936E-03
    0.30113897260747904102E-03
    0.17589611650890580588E-03
    0.18256624840791226840E-03
    0.87525433595160616676E-04
    0.63738783685653133907E-04
    0.28003092404127256958E-04
    0.23277211703511137248E-04
    0.45283322794745780400E-04
    0.38743089780592789115E-04
    0.84998186457244258828E-04
    0.94789166962954072280E-04
   -0.15440043873431246964E-07
    0.36426174957206013770E-08
    0.20717561777704233234E-07
    0.68264905237985469506E-07
    0.28145765024714631950E-07
    0.42452475286648361466E-07
   -0.29771148003628023989E-08
   -0.59748911246871844658E-08
   -0.27371945736702969350E-07
   -0.86656421965534971244E-08
   -0.26508295115110010278E-07
   -0.12362637264802037006E-07
   -0.16290977803492653967E-07
   -0.13502529494360900435E-07
    0.38502366919761390914E-06
    0.88534429791873670360E-06
    0.20041630083346020226E-05
    0.31306510205569848707E-05
    0.18747065385987796852E-05
    0.25744085582003840589E-05
    0.11141008765003074798E-05
    0.60275507285988672148E-06
    0.18592542905901610741E-06
    0.11314232245699030084E-06
    0.26350857520813873352E-06
    0.14974240709866113953E-06
    0.62633299522199842442E-06
    0.81127905348727688055E-06
   -0.11408592239179309287E-07
    0.14655045381729531539E-07
    0.43247757475977866029E-07
    0.11644847008450712304E-06
    0.67608004034027133535E-07
    0.11933960906002675634E-06
    0.34095761718293411776E-07
    0.10900805025006735507E-07
   -0.20276358829531632583E-07
   -0.37149841364136126256E-08
   -0.20727840215167558329E-07
   -0.88781242881704504285E-08
   -0.45459265334214414081E-08
    0.36595941083246181323E-08
    0.51468275430304343884E-06
    0.12423228562406764250E-05
    0.26861396500141251659E-05
    0.44863290692507488871E-05
    0.30297558108075622582E-05
    0.46812403129866882211E-05
    0.22185229575672873685E-05
    0.11388798663964203478E-05
    0.41040486959534240347E-06
    0.24139533315809291819E-06
    0.44214594422688960968E-06
    0.23363075432400271888E-06
    0.10095383373349982236E-05
    0.13554585415231837077E-05
    0.10401627454955208720E-04
    0.19997599059273136627E-04
    0.40729444531073717185E-04
    0.58253619329367283691E-04
    0.36676926016329818351E-04
    0.46832228377384950435E-04
    0.22536802774981430875E-04
    0.13754497456566122375E-04
    0.57119681591060552148E-05
    0.40776206582085301001E-05
    0.73907496377233328737E-05
    0.52090470316985612513E-05
    0.15006857817442631494E-04
    0.18250102934495802932E-04
    0.16654737621677389659E-03
    0.28830628156751019354E-03
    0.54084588279270805113E-03
    0.71789967588436142364E-03
    0.47080370030892890101E-03
    0.56079463978516276654E-03
    0.29230605623681537837E-03
    0.19519949904321201345E-03
    0.90241448281771111475E-04
    0.69146611701061648373E-04
    0.11842160442747948559E-03
    0.89957517783857896530E-04
    0.22041195999301720987E-03