# vtk DataFile Version 3.0
LAPLACIEN  2D
ASCII
DATASET UNSTRUCTURED_GRID
 POINTS        1857  float
   3.1250000000000000E-002  0.93750000000000000        0.0000000000000000     
   6.2500000000000000E-002  0.93750000000000000        0.0000000000000000     
   6.2500000000000000E-002  0.96875000000000000        0.0000000000000000     
   1.8749999999999999E-002  0.95625000000000004        0.0000000000000000     
   4.0625000000000001E-002  0.95937499999999998        0.0000000000000000     
   4.3749999999999997E-002  0.98124999999999996        0.0000000000000000     
   2.1874999999999999E-002  0.97812500000000002        0.0000000000000000     
   9.3750000000000000E-002  0.93750000000000000        0.0000000000000000     
  0.12500000000000000       0.93750000000000000        0.0000000000000000     
  0.12500000000000000       0.96875000000000000        0.0000000000000000     
   8.1250000000000003E-002  0.95625000000000004        0.0000000000000000     
  0.10312499999999999       0.95937499999999998        0.0000000000000000     
  0.10625000000000000       0.98124999999999996        0.0000000000000000     
   8.4375000000000006E-002  0.97812500000000002        0.0000000000000000     
   3.1250000000000000E-002  0.87500000000000000        0.0000000000000000     
   6.2500000000000000E-002  0.87500000000000000        0.0000000000000000     
   6.2500000000000000E-002  0.90625000000000000        0.0000000000000000     
   1.8749999999999999E-002  0.89375000000000004        0.0000000000000000     
   4.0625000000000001E-002  0.89687499999999998        0.0000000000000000     
   4.3749999999999997E-002  0.91874999999999996        0.0000000000000000     
   2.1874999999999999E-002  0.91562500000000002        0.0000000000000000     
   9.3750000000000000E-002  0.87500000000000000        0.0000000000000000     
  0.12500000000000000       0.87500000000000000        0.0000000000000000     
  0.12500000000000000       0.90625000000000000        0.0000000000000000     
   8.1250000000000003E-002  0.89375000000000004        0.0000000000000000     
  0.10312499999999999       0.89687499999999998        0.0000000000000000     
  0.10625000000000000       0.91874999999999996        0.0000000000000000     
   8.4375000000000006E-002  0.91562500000000002        0.0000000000000000     
  0.15625000000000000       0.93750000000000000        0.0000000000000000     
  0.18750000000000000       0.93750000000000000        0.0000000000000000     
  0.18750000000000000       0.96875000000000000        0.0000000000000000     
  0.14374999999999999       0.95625000000000004        0.0000000000000000     
  0.16562499999999999       0.95937499999999998        0.0000000000000000     
  0.16875000000000001       0.98124999999999996        0.0000000000000000     
  0.14687500000000001       0.97812500000000002        0.0000000000000000     
  0.21875000000000000       0.93750000000000000        0.0000000000000000     
  0.25000000000000000       0.93750000000000000        0.0000000000000000     
  0.25000000000000000       0.96875000000000000        0.0000000000000000     
  0.20624999999999999       0.95625000000000004        0.0000000000000000     
  0.22812499999999999       0.95937499999999998        0.0000000000000000     
  0.23125000000000001       0.98124999999999996        0.0000000000000000     
  0.20937500000000001       0.97812500000000002        0.0000000000000000     
  0.15625000000000000       0.87500000000000000        0.0000000000000000     
  0.18750000000000000       0.87500000000000000        0.0000000000000000     
  0.18750000000000000       0.90625000000000000        0.0000000000000000     
  0.14374999999999999       0.89375000000000004        0.0000000000000000     
  0.16562499999999999       0.89687499999999998        0.0000000000000000     
  0.16875000000000001       0.91874999999999996        0.0000000000000000     
  0.14687500000000001       0.91562500000000002        0.0000000000000000     
  0.21875000000000000       0.87500000000000000        0.0000000000000000     
  0.25000000000000000       0.87500000000000000        0.0000000000000000     
  0.25000000000000000       0.90625000000000000        0.0000000000000000     
  0.20624999999999999       0.89375000000000004        0.0000000000000000     
  0.22812499999999999       0.89687499999999998        0.0000000000000000     
  0.23125000000000001       0.91874999999999996        0.0000000000000000     
  0.20937500000000001       0.91562500000000002        0.0000000000000000     
   3.1250000000000000E-002  0.81250000000000000        0.0000000000000000     
   6.2500000000000000E-002  0.81250000000000000        0.0000000000000000     
   6.2500000000000000E-002  0.84375000000000000        0.0000000000000000     
   1.8749999999999999E-002  0.83125000000000004        0.0000000000000000     
   4.0625000000000001E-002  0.83437499999999998        0.0000000000000000     
   4.3749999999999997E-002  0.85624999999999996        0.0000000000000000     
   2.1874999999999999E-002  0.85312500000000002        0.0000000000000000     
   9.3750000000000000E-002  0.81250000000000000        0.0000000000000000     
  0.12500000000000000       0.81250000000000000        0.0000000000000000     
  0.12500000000000000       0.84375000000000000        0.0000000000000000     
   8.1250000000000003E-002  0.83125000000000004        0.0000000000000000     
  0.10312499999999999       0.83437499999999998        0.0000000000000000     
  0.10625000000000000       0.85624999999999996        0.0000000000000000     
   8.4375000000000006E-002  0.85312500000000002        0.0000000000000000     
   3.1250000000000000E-002  0.75000000000000000        0.0000000000000000     
   6.2500000000000000E-002  0.75000000000000000        0.0000000000000000     
   6.2500000000000000E-002  0.78125000000000000        0.0000000000000000     
   1.8749999999999999E-002  0.76875000000000004        0.0000000000000000     
   4.0625000000000001E-002  0.77187499999999998        0.0000000000000000     
   4.3749999999999997E-002  0.79374999999999996        0.0000000000000000     
   2.1874999999999999E-002  0.79062500000000002        0.0000000000000000     
   9.3750000000000000E-002  0.75000000000000000        0.0000000000000000     
  0.12500000000000000       0.75000000000000000        0.0000000000000000     
  0.12500000000000000       0.78125000000000000        0.0000000000000000     
   8.1250000000000003E-002  0.76875000000000004        0.0000000000000000     
  0.10312499999999999       0.77187499999999998        0.0000000000000000     
  0.10625000000000000       0.79374999999999996        0.0000000000000000     
   8.4375000000000006E-002  0.79062500000000002        0.0000000000000000     
  0.15625000000000000       0.81250000000000000        0.0000000000000000     
  0.18750000000000000       0.81250000000000000        0.0000000000000000     
  0.18750000000000000       0.84375000000000000        0.0000000000000000     
  0.14374999999999999       0.83125000000000004        0.0000000000000000     
  0.16562499999999999       0.83437499999999998        0.0000000000000000     
  0.16875000000000001       0.85624999999999996        0.0000000000000000     
  0.14687500000000001       0.85312500000000002        0.0000000000000000     
  0.21875000000000000       0.81250000000000000        0.0000000000000000     
  0.25000000000000000       0.81250000000000000        0.0000000000000000     
  0.25000000000000000       0.84375000000000000        0.0000000000000000     
  0.20624999999999999       0.83125000000000004        0.0000000000000000     
  0.22812499999999999       0.83437499999999998        0.0000000000000000     
  0.23125000000000001       0.85624999999999996        0.0000000000000000     
  0.20937500000000001       0.85312500000000002        0.0000000000000000     
  0.15625000000000000       0.75000000000000000        0.0000000000000000     
  0.18750000000000000       0.75000000000000000        0.0000000000000000     
  0.18750000000000000       0.78125000000000000        0.0000000000000000     
  0.14374999999999999       0.76875000000000004        0.0000000000000000     
  0.16562499999999999       0.77187499999999998        0.0000000000000000     
  0.16875000000000001       0.79374999999999996        0.0000000000000000     
  0.14687500000000001       0.79062500000000002        0.0000000000000000     
  0.21875000000000000       0.75000000000000000        0.0000000000000000     
  0.25000000000000000       0.75000000000000000        0.0000000000000000     
  0.25000000000000000       0.78125000000000000        0.0000000000000000     
  0.20624999999999999       0.76875000000000004        0.0000000000000000     
  0.22812499999999999       0.77187499999999998        0.0000000000000000     
  0.23125000000000001       0.79374999999999996        0.0000000000000000     
  0.20937500000000001       0.79062500000000002        0.0000000000000000     
  0.28125000000000000       0.93750000000000000        0.0000000000000000     
  0.31250000000000000       0.93750000000000000        0.0000000000000000     
  0.31250000000000000       0.96875000000000000        0.0000000000000000     
  0.26874999999999999       0.95625000000000004        0.0000000000000000     
  0.29062500000000002       0.95937499999999998        0.0000000000000000     
  0.29375000000000001       0.98124999999999996        0.0000000000000000     
  0.27187499999999998       0.97812500000000002        0.0000000000000000     
  0.34375000000000000       0.93750000000000000        0.0000000000000000     
  0.37500000000000000       0.93750000000000000        0.0000000000000000     
  0.37500000000000000       0.96875000000000000        0.0000000000000000     
  0.33124999999999999       0.95625000000000004        0.0000000000000000     
  0.35312500000000002       0.95937499999999998        0.0000000000000000     
  0.35625000000000001       0.98124999999999996        0.0000000000000000     
[...]
 CELL_DATA        3584
 SCALARS VEGF float
 LOOKUP_TABLE default
    0.11175671116616284696E-06
    0.85480062261504132768E-07
    0.70781821684379636327E-07
    0.69091371156674773249E-07
    0.81507714358699857325E-07
    0.10967831956781121320E-06
    0.56204644353948809018E-07
    0.11055161669714723089E-06
    0.13169696065207759928E-06
    0.11997965781100370555E-06
    0.10608140466319840076E-06
    0.66633122744887527925E-07
    0.10715074121583935197E-06
    0.10757780347003462206E-06
    0.61536484720145159860E-07
    0.48170059524838067892E-07
    0.61642404237104374356E-07
    0.66025151535779245031E-07
    0.72800762035842637349E-07
    0.10670027862374513470E-06
    0.45104769167335608829E-07
    0.70661471268993260066E-07
    0.74571997275462304324E-07
    0.10882498501957332526E-06
    0.69424901469603774014E-07
    0.63851293020863213499E-07
    0.64409022385504141282E-07
    0.76096034852679440458E-07
    0.10887306650613296976E-06
    0.77479284688797848559E-07
    0.68902537660988651730E-07
    0.63403915265278317203E-07
    0.48959956566900380098E-07
    0.58246718305871466873E-07
    0.71098288840896741082E-07
    0.73676467414166967707E-07
    0.10267135355599773711E-06
    0.56608490814411528429E-07
    0.65420306416083823468E-07
    0.55486765000940061336E-07
    0.77306853274905669438E-07
    0.67743019492087988765E-07
    0.59985822528540348269E-07
    0.41766678361123380845E-07
    0.60002602559607070406E-07
    0.60495522240810329729E-07
    0.41243291416821860295E-07
    0.55730848363007009833E-07
    0.62013498564181085256E-07
    0.40977386135633686038E-07
    0.57689533778696243946E-07
    0.58319258014351567569E-07
    0.38557315968666749690E-07
    0.57943060625047281307E-07
    0.39459494168797349231E-07
    0.40154470058027157750E-07
    0.61409591702866950956E-07
    0.48153156727438543540E-07
    0.61641091724525316524E-07
    0.66024968704510191270E-07
    0.72799940866796724793E-07
    0.10670010958851520376E-06
    0.45103237070902854646E-07
    0.70643679023092878343E-07
    0.74430244933853371514E-07
    0.10805650025946534146E-06
    0.69201366515488941849E-07
    0.62950464920453624375E-07
    0.64382364640988752309E-07
    0.76088266706059650654E-07
    0.61409589047578552018E-07
    0.48153156141301868731E-07
    0.61641089457036433812E-07
    0.66024965280343529564E-07
    0.72799934208585769743E-07
    0.10670008098811464401E-06
    0.45103227995604550986E-07
    0.70643677146304837929E-07
    0.74430242945597529012E-07
    0.10805647812222511895E-06
    0.69201363147063533168E-07
    0.62950436275846097472E-07
    0.64382363621522449246E-07
    0.76088265394860814231E-07
    0.59863618371349014629E-07
    0.41750540006224818706E-07
    0.60001346034887666011E-07
    0.60495352176636789671E-07
    0.41242556273314673640E-07
    0.55730701446642337750E-07
    0.62012195642729638294E-07
    0.40962196728825485388E-07
    0.57568497618309023657E-07
    0.57669028980230169368E-07
    0.38355539508420539744E-07
    0.57085588998544324700E-07
    0.39435333457385157842E-07
    0.40147519000062771867E-07
    0.59863617455076722295E-07
    0.41750539527533161525E-07
    0.60001343512347739639E-07
    0.60495348711937788259E-07
    0.41242550155618828284E-07
    0.55730673547892531288E-07
    0.62012188542837799822E-07
    0.40962195385665435652E-07
    0.57568495830698028064E-07
    0.57669009887459769810E-07
    0.38355534947082725189E-07
    0.57085561856893027634E-07
    0.39435331892775464418E-07
    0.40147517662950696193E-07
    0.10887293365783741164E-06
    0.77478859091518409187E-07
    0.68902521854786542413E-07
    0.63403793157848302137E-07
    0.48955694848482167853E-07
    0.58203364475515427905E-07
    0.70650214864615772380E-07
    0.73531193109446063923E-07
    0.10193403821359710262E-06
    0.56472323476672289045E-07
    0.65403546142468429166E-07
    0.55485321549583692536E-07
    0.77302279075278126729E-07
    0.67728124528717710112E-07
    0.59985841121646051946E-07
    0.41766746785887019667E-07
    0.60002640743868068914E-07
    0.60495577689660262778E-07
    0.41241464165567572278E-07
    0.55696882894388039232E-07
    0.61643384895404386442E-07
    0.40911510481330514190E-07
    0.57365538756827363497E-07
    0.58276786673774009869E-07
    0.38554128294952327381E-07
    0.57942979728634947939E-07
    0.39459071626283014617E-07
    0.40150179769677246130E-07
    0.10887293353966064539E-06
    0.77478859119057832582E-07
    0.68902521965155994232E-07
    0.63403792927780111444E-07
    0.48955694626658307655E-07
    0.58203364303122676738E-07
    0.70650215802024488128E-07
    0.73531190935192731458E-07
    0.10193401997255901557E-06
    0.56472322720116992466E-07
    0.65403546128590270782E-07
    0.55485321549583692536E-07
    0.77302278859522953196E-07
    0.67728124064678677362E-07
    0.59985841121646051946E-07
    0.41766746891054868626E-07
    0.60002640992365751009E-07
    0.60495577958976532410E-07
    0.41241464006839527193E-07
    0.55696882935374587122E-07
    0.61643396533328708784E-07
    0.40911512066420061381E-07
    0.57365543081458009294E-07
    0.58276787813699356521E-07
    0.38554128184364129304E-07
    0.57942979707596753877E-07
    0.39459071951324973044E-07
    0.40150179951169367847E-07
    0.59863639533254356477E-07
    0.41750609147908892130E-07
    0.60001381315842401179E-07
    0.60495408627149915244E-07
    0.41240732602921505274E-07
    0.55696735015247966777E-07
    0.61642098745324806171E-07
    0.40896424360806131850E-07
    0.57245545888948960709E-07
    0.57628467195829145219E-07
    0.38352565555154151510E-07
    0.57085549990931315796E-07
    0.39434934378032618417E-07
    0.40143239080350840033E-07
    0.59863637512781867289E-07
    0.41750608209333428202E-07
    0.60001378815221450786E-07
    0.60495403690636856153E-07
    0.41240722486156521382E-07
    0.55696713588436961733E-07
    0.61642094375400833760E-07
    0.40896422400387822019E-07
    0.57245543905592992049E-07
    0.57628448965488382851E-07
    0.38352561398054367172E-07
    0.57085523324892314101E-07
    0.39434933405413801843E-07
    0.40143237490346410636E-07
    0.59863639532822978478E-07
    0.41750609166774883434E-07
    0.60001381150822277725E-07
    0.60495408404888284596E-07
    0.41240732552612645116E-07
    0.55696735904519786898E-07
    0.61642107060725123458E-07
    0.40896425701525522322E-07
    0.57245552144773314275E-07
    0.57628467858721378140E-07
    0.38352565740118353921E-07
    0.57085550082223243067E-07
    0.39434934267013161456E-07
    0.40143239074495327738E-07
    0.59863637269701252058E-07
    0.41750605744075468081E-07
    0.60001346867268015304E-07
    0.60495373674543240444E-07
    0.41240720206732838564E-07
    0.55696713807014435812E-07
    0.61642102141967966054E-07
    0.40896423736132932099E-07
    0.57245549592654600338E-07
    0.57628449917851743216E-07
    0.38352561398054923037E-07
    0.57085523109143930066E-07
    0.39434933014234425633E-07
    0.40143237394068000404E-07
    0.61409577191729354778E-07
    0.48153147048547850536E-07
    0.61641068940703181945E-07
    0.66024909325827844257E-07
    0.72799918430176637841E-07
    0.10670007585107427707E-06
    0.45103225615017314527E-07
    0.70643671011346037592E-07
    0.74430219666915585590E-07
    0.10805642053587404392E-06
    0.69201348249133265006E-07
    0.62950431133842157163E-07
    0.64382359682317271613E-07
    0.76088261716997117501E-07
    0.61409570705193555171E-07
    0.48153144967467229062E-07
    0.61641068178008775853E-07
    0.66024908891504183135E-07
    0.72799918277956241011E-07
    0.10670007580012543058E-06
    0.45103225392755419181E-07
    0.70643670383606346961E-07
    0.74430218467004742042E-07
    0.10805641740416453902E-06
    0.69201341115590250142E-07
    0.62950405011900857186E-07
    0.64382357232991829177E-07
    0.76088259820459776004E-07
    0.59863606725521848420E-07
    0.41750527738213624498E-07
    0.60001319526582279486E-07
    0.60495292180852175590E-07
    0.41242529279829516377E-07
    0.55730667035239410429E-07
    0.62012176932330332561E-07
    0.40962187162375061087E-07
    0.57568475635896537446E-07
    0.57668949876108311433E-07
    0.38355516748975086945E-07
    0.57085555284617482611E-07
    0.39435323069623933582E-07
    0.40147509043966987729E-07
    0.59863595999189815795E-07
    0.41750525681729251625E-07
    0.60001318973297446663E-07
    0.60495292213371861548E-07
    0.41242529142782656005E-07
    0.55730666826421502908E-07
    0.62012176515111787125E-07
    0.40962186283564759609E-07
    0.57568472265154056903E-07
    0.57668945321591269390E-07
    0.38355510275802376898E-07
    0.57085529947413383716E-07
    0.39435321183936766501E-07
    0.40147507972755812496E-07
    0.61409570705193237533E-07
    0.48153144960527871937E-07
    0.61641068171720853239E-07
    0.66024908988430745624E-07
    0.72799918167367010612E-07
    0.10670007583807226839E-06
    0.45103225399480291682E-07
    0.70643670476414608792E-07
    0.74430218466789013339E-07
    0.10805641740437957951E-06
    0.69201341135977194982E-07
    0.62950404503410435337E-07
    0.64382357350520165238E-07
    0.76088260080447751196E-07
    0.61409570698905076691E-07
    0.48153145193635349193E-07
    0.61641068985606595471E-07
    0.66024911147402015534E-07
    0.72799918204063204275E-07
    0.10670007385773414577E-06
    0.45103224905374752444E-07
    0.70643670345659800320E-07
    0.74430218466789013339E-07
    0.10805641733260859854E-06
    0.69201341324630596456E-07
    0.62950404497117007008E-07
    0.64382357462845177903E-07
    0.76088260133144159004E-07
    0.59863595999189815795E-07
    0.41750525681729251625E-07
    0.60001318973513201837E-07
    0.60495292207520557948E-07
    0.41242529143433177309E-07
    0.55730666819918010409E-07
    0.62012176488006415176E-07
    0.40962186277059546575E-07
    0.57568472180803339642E-07
    0.57668944980719257796E-07
    0.38355510053541487404E-07
    0.57085530071878893145E-07
    0.39435321183936766501E-07
    0.40147507972755812496E-07
    0.59863596011967201925E-07
    0.41750525694946089036E-07
    0.60001318708618497130E-07
    0.60495292722058834745E-07
    0.41242528972436826130E-07
    0.55730666941412379722E-07
    0.62012176874477161701E-07
    0.40962186283780964769E-07
    0.57568472180803339642E-07
    0.57668944980719257796E-07
    0.38355510053541487404E-07
    0.57085530050186908762E-07
    0.39435321216682901423E-07
    0.40147507881248130051E-07
    0.59863627558179673553E-07
    0.41750599700157912967E-07
    0.60001356508706048049E-07
    0.60495350857917822689E-07
    0.41240710327331242354E-07
    0.55696704953816211117E-07
    0.61642078409723622769E-07
    0.40896411211199671242E-07
    0.57245525394071139423E-07
    0.57628395123229822479E-07
    0.38352542326612316783E-07
    0.57085515614228482823E-07
    0.39434924562055830211E-07
    0.40143230782946293576E-07
    0.59863615875368335714E-07
    0.41750596488619655609E-07
    0.60001353670378024669E-07
    0.60495350477571733177E-07
    0.41240710082951834448E-07
    0.55696704711814398224E-07
    0.61642078343151227098E-07
    0.40896409909787175559E-07
    0.57245521202867830013E-07
    0.57628389318123829924E-07
    0.38352534052898044398E-07
    0.57085493845926629208E-07
    0.39434922530573931030E-07
    0.40143229772728253573E-07
    0.59861501144557448611E-07
    0.41748069066942333840E-07
    0.59982870439876882012E-07
    0.60490796616584938367E-07
    0.41240196318722636341E-07
    0.55696654487064546033E-07
    0.61642084684428208381E-07
    0.40896402578345010791E-07
    0.57245530690407394398E-07
    0.57628393089053862217E-07
    0.38352501418831583168E-07
    0.57085325466976886131E-07
    0.39434658675834736460E-07
    0.40143129662821646913E-07
    0.59771596653928352305E-07
    0.41726402136162248588E-07
    0.59910601871448243274E-07
    0.60478946065653693589E-07
    0.41238676597981906644E-07
    0.55696537243838538020E-07
    0.61642069651326913718E-07
    0.40896325469929556718E-07
    0.57245512088419392215E-07
    0.57628281867301114094E-07
    0.38350989056472391584E-07
    0.57074389548808508866E-07
    0.39432077920689416999E-07
    0.40142390849649923344E-07
    0.59863614657807099021E-07
    0.41750596494473817945E-07
    0.60001353585593626539E-07
    0.60495350360477792670E-07
    0.41240710082951834448E-07
    0.55696704947737188004E-07
    0.61642078447235720918E-07
    0.40896409909787175559E-07
    0.57245521209373598913E-07
    0.57628389233121717856E-07
    0.38352534039237097025E-07
    0.57085493553412602076E-07
    0.39434922647449442916E-07
    0.40143229772945358705E-07
    0.59863614576933624062E-07
    0.41750596356771234958E-07
    0.60001353469438727932E-07
    0.60495350568113361310E-07
    0.41240710087806815543E-07
    0.55696705633420079833E-07
    0.61642078337616766761E-07
    0.40896409909570771876E-07
    0.57245521320175619870E-07
    0.57628389311836952866E-07
    0.38352534039454135982E-07
    0.57085493580081407950E-07
    0.39434922634007784432E-07
    0.40143229773378629292E-07
    0.59744051704201164726E-07
    0.41723011757893088490E-07
    0.59909701145960915099E-07
    0.60478840244841077658E-07
    0.41238659118901889364E-07
    0.55696536202792760372E-07
    0.61642069241503998232E-07
    0.40896316581848807955E-07
    0.57245505386776306635E-07
    0.57628227032499113479E-07
    0.38350383694657036124E-07
    0.57068912499677961968E-07
    0.39431674677325760991E-07
    0.40142304648552607696E-07
    0.59744042111165268035E-07
    0.41723011297321980680E-07
    0.59909701498206448357E-07
    0.60478840119253778970E-07
    0.41238659072176177096E-07
    0.55696535217708887831E-07
    0.61642068970107918608E-07
    0.40896316549105002373E-07
    0.57245505374183044292E-07
    0.57628227089525514009E-07
    0.38350381895069299059E-07
    0.57068894847350947559E-07
    0.39431674940309996121E-07
    0.40142304842619727608E-07
    0.10887293353966064539E-06
    0.77478859119057832582E-07
    0.68902521965155994232E-07
    0.63403792927780111444E-07
    0.48955694626658307655E-07
    0.58203364303122676738E-07
    0.70650215782291638012E-07
    0.73531190935192731458E-07
    0.10193401997928138668E-06
    0.56472322720116992466E-07
    0.65403546128590270782E-07
    0.55485321549583692536E-07
    0.77302278859522953196E-07
    0.67728124064678677362E-07
    0.59985841121646051946E-07
    0.41766746884116120306E-07
    0.60002640881342998561E-07
    0.60495577723704528632E-07
    0.41241463999900381827E-07
    0.55696883302267874372E-07
    0.61643396533111788940E-07
    0.40911512066420061381E-07
    0.57365543081458009294E-07
    0.58276787813699356521E-07
    0.38554128184364129304E-07
    0.57942979707596753877E-07
    0.39459071951324973044E-07
    0.40150179937508420474E-07
    0.10887293353966064539E-06
    0.77478859119057832582E-07
    0.68902521965155994232E-07
    0.63403792927780111444E-07
    0.48955694626658307655E-07
    0.58203364303122676738E-07
    0.70650215782291638012E-07
    0.73531190935192731458E-07
    0.10193401997928138668E-06
    0.56472322720116992466E-07
    0.65403546128590270782E-07
    0.55485321549583692536E-07
    0.77302278859522953196E-07
    0.67728124064678677362E-07
    0.59985841121646051946E-07
    0.41766746884116120306E-07
    0.60002640881342998561E-07
    0.60495577723704528632E-07
    0.41241464138245492243E-07
    0.55696882935374587122E-07
    0.61643396533112159517E-07
    0.40911512066420061381E-07
    0.57365543081458009294E-07
    0.58276787813699356521E-07
    0.38554128184364129304E-07
    0.57942979707596753877E-07
    0.39459071951324973044E-07
    0.40150179951169367847E-07
    0.59863639532606482151E-07
    0.41750608951886211371E-07
    0.60001381095098574163E-07
    0.60495408195418638162E-07
    0.41240732434650495838E-07
    0.55696735723250249558E-07
    0.61642106983759421766E-07
    0.40896425708030258901E-07
    0.57245552191177458425E-07
    0.57628467976681568655E-07
    0.38352565733613140886E-07
    0.57085550089161779629E-07
    0.39434934267013161456E-07
    0.40143239080783700339E-07
    0.59863588082769651114E-07
    0.41750105613224659770E-07
    0.59996921669955424741E-07
    0.60477351762328973138E-07
    0.41238242419911262641E-07
    0.55694610895140492710E-07
    0.61641911552777498232E-07
    0.40896378315024423139E-07
    0.57245546897541531252E-07
    0.57628449229371491991E-07
    0.38352551575424287367E-07
    0.57085519021698007557E-07
    0.39434833995439728901E-07
    0.40142975623270201678E-07
    0.59863639532606482151E-07
    0.41750608951886211371E-07
    0.60001380926394307375E-07
    0.60495406481944995370E-07
    0.41240731892118468348E-07
    0.55696733871862172899E-07
    0.61642106846266042683E-07
    0.40896425701525601731E-07
    0.57245552170793292912E-07
    0.57628467858721378140E-07
    0.38352565740118353921E-07
    0.57085550061839606949E-07
    0.39434934267013161456E-07
    0.40143239074495327738E-07
    0.59863468765095680033E-07
    0.41748619258682690604E-07
    0.59985311848705209334E-07
    0.60406786076772919784E-07
    0.41217073446105741716E-07
    0.55607340081937433134E-07
    0.61631267968553713743E-07
    0.40894910591380914873E-07
    0.57245442724036632377E-07
    0.57628434772857462395E-07
    0.38352474473318394953E-07
    0.57085505456807637999E-07
    0.39434110401053645847E-07
    0.40140450128768759686E-07
    0.10887293367106388405E-06
    0.77478859111902892337E-07
    0.68902521887960164276E-07
    0.63403792941441535274E-07
    0.48955694515635872843E-07
    0.58203364185595690636E-07
    0.70650215782291638012E-07
    0.73531190935192731458E-07
    0.10193401997928138668E-06
    0.56472322720116992466E-07
    0.65403546128590270782E-07
    0.55485321549583692536E-07
    0.77302278859522953196E-07
    0.67728124064678677362E-07
    0.59985841182356979622E-07
    0.41766746884332947506E-07
    0.60002640757312625839E-07
    0.60495577958757018528E-07
    0.41241464006839527193E-07
    0.55696883137469289738E-07
    0.61643396533111788940E-07
    0.40911512034328828510E-07
    0.57365543081458221052E-07
    0.58276787813699356521E-07
    0.38554128184364129304E-07
    0.57942979707596753877E-07
    0.39459071951540913506E-07
    0.40150179901946205404E-07
    0.10887293115010910043E-06
    0.77478858586384514210E-07
    0.68902521894063804285E-07
    0.63403792998316184557E-07
    0.48955694681503320412E-07
    0.58203364329143436234E-07
    0.70650215851041331874E-07
    0.73531191028880213487E-07
    0.10193401997928130727E-06
    0.56472322641839858779E-07
    0.65403546018469423133E-07
    0.55485320560516614474E-07
    0.77302278776759999194E-07
    0.67728124302968050726E-07
    0.59985840839934037467E-07
    0.41766746949321967283E-07
    0.60002639434316354231E-07
    0.60495577445426941586E-07
    0.41241464421443453975E-07
    0.55696883254563494943E-07
    0.61643396526822807535E-07
    0.40911512066420061381E-07
    0.57365543118319414085E-07
    0.58276787820638925404E-07
    0.38554128184364830753E-07
    0.57942979719254613914E-07
    0.39459071938983226546E-07
    0.40150179945098047439E-07
    0.59863639475119255993E-07
    0.41750609075923307417E-07
    0.60001380875436249403E-07
    0.60495406462003986907E-07
    0.41240731760279272416E-07
    0.55696732757520146165E-07
    0.61642106671293864433E-07
    0.40896425701090848836E-07
    0.57245552170793292912E-07
    0.57628467760925786316E-07
    0.38352565719735048676E-07
    0.57085550199315595388E-07
    0.39434934273952650930E-07
    0.40143239191156527054E-07
    0.59863467846783494135E-07
    0.41748600010843812105E-07
    0.59985211528485999639E-07
    0.60405897278663862508E-07
    0.41213738116473790155E-07
    0.55580328428715519565E-07
    0.61625890594128334787E-07
    0.40894311823334194895E-07
    0.57245385965466557438E-07
    0.57628427039254589242E-07
    0.38352464447734628479E-07
    0.57085505328223960260E-07
    0.39434019383711216123E-07