# vtk DataFile Version 3.0
LAPLACIEN  2D
ASCII
DATASET UNSTRUCTURED_GRID
 POINTS        1857  float
   3.1250000000000000E-002  0.93750000000000000        0.0000000000000000     
   6.2500000000000000E-002  0.93750000000000000        0.0000000000000000     
   6.2500000000000000E-002  0.96875000000000000        0.0000000000000000     
   1.8749999999999999E-002  0.95625000000000004        0.0000000000000000     
   4.0625000000000001E-002  0.95937499999999998        0.0000000000000000     
   4.3749999999999997E-002  0.98124999999999996        0.0000000000000000     
   2.1874999999999999E-002  0.97812500000000002        0.0000000000000000     
   9.3750000000000000E-002  0.93750000000000000        0.0000000000000000     
  0.12500000000000000       0.93750000000000000        0.0000000000000000     
  0.12500000000000000       0.96875000000000000        0.0000000000000000     
   8.1250000000000003E-002  0.95625000000000004        0.0000000000000000     
  0.10312499999999999       0.95937499999999998        0.0000000000000000     
  0.10625000000000000       0.98124999999999996        0.0000000000000000     
   8.4375000000000006E-002  0.97812500000000002        0.0000000000000000     
   3.1250000000000000E-002  0.87500000000000000        0.0000000000000000     
   6.2500000000000000E-002  0.87500000000000000        0.0000000000000000     
   6.2500000000000000E-002  0.90625000000000000        0.0000000000000000     
   1.8749999999999999E-002  0.89375000000000004        0.0000000000000000     
   4.0625000000000001E-002  0.89687499999999998        0.0000000000000000     
   4.3749999999999997E-002  0.91874999999999996        0.0000000000000000     
   2.1874999999999999E-002  0.91562500000000002        0.0000000000000000     
   9.3750000000000000E-002  0.87500000000000000        0.0000000000000000     
  0.12500000000000000       0.87500000000000000        0.0000000000000000     
  0.12500000000000000       0.90625000000000000        0.0000000000000000     
   8.1250000000000003E-002  0.89375000000000004        0.0000000000000000     
  0.10312499999999999       0.89687499999999998        0.0000000000000000     
  0.10625000000000000       0.91874999999999996        0.0000000000000000     
   8.4375000000000006E-002  0.91562500000000002        0.0000000000000000     
  0.15625000000000000       0.93750000000000000        0.0000000000000000     
  0.18750000000000000       0.93750000000000000        0.0000000000000000     
  0.18750000000000000       0.96875000000000000        0.0000000000000000     
  0.14374999999999999       0.95625000000000004        0.0000000000000000     
  0.16562499999999999       0.95937499999999998        0.0000000000000000     
  0.16875000000000001       0.98124999999999996        0.0000000000000000     
  0.14687500000000001       0.97812500000000002        0.0000000000000000     
  0.21875000000000000       0.93750000000000000        0.0000000000000000     
  0.25000000000000000       0.93750000000000000        0.0000000000000000     
  0.25000000000000000       0.96875000000000000        0.0000000000000000     
  0.20624999999999999       0.95625000000000004        0.0000000000000000     
  0.22812499999999999       0.95937499999999998        0.0000000000000000     
  0.23125000000000001       0.98124999999999996        0.0000000000000000     
  0.20937500000000001       0.97812500000000002        0.0000000000000000     
  0.15625000000000000       0.87500000000000000        0.0000000000000000     
  0.18750000000000000       0.87500000000000000        0.0000000000000000     
  0.18750000000000000       0.90625000000000000        0.0000000000000000     
  0.14374999999999999       0.89375000000000004        0.0000000000000000     
  0.16562499999999999       0.89687499999999998        0.0000000000000000     
  0.16875000000000001       0.91874999999999996        0.0000000000000000     
  0.14687500000000001       0.91562500000000002        0.0000000000000000     
  0.21875000000000000       0.87500000000000000        0.0000000000000000     
  0.25000000000000000       0.87500000000000000        0.0000000000000000     
  0.25000000000000000       0.90625000000000000        0.0000000000000000     
  0.20624999999999999       0.89375000000000004        0.0000000000000000     
  0.22812499999999999       0.89687499999999998        0.0000000000000000     
  0.23125000000000001       0.91874999999999996        0.0000000000000000     
  0.20937500000000001       0.91562500000000002        0.0000000000000000     
   3.1250000000000000E-002  0.81250000000000000        0.0000000000000000     
   6.2500000000000000E-002  0.81250000000000000        0.0000000000000000     
   6.2500000000000000E-002  0.84375000000000000        0.0000000000000000     
   1.8749999999999999E-002  0.83125000000000004        0.0000000000000000     
   4.0625000000000001E-002  0.83437499999999998        0.0000000000000000     
   4.3749999999999997E-002  0.85624999999999996        0.0000000000000000     
   2.1874999999999999E-002  0.85312500000000002        0.0000000000000000     
   9.3750000000000000E-002  0.81250000000000000        0.0000000000000000     
  0.12500000000000000       0.81250000000000000        0.0000000000000000     
  0.12500000000000000       0.84375000000000000        0.0000000000000000     
   8.1250000000000003E-002  0.83125000000000004        0.0000000000000000     
  0.10312499999999999       0.83437499999999998        0.0000000000000000     
  0.10625000000000000       0.85624999999999996        0.0000000000000000     
   8.4375000000000006E-002  0.85312500000000002        0.0000000000000000     
   3.1250000000000000E-002  0.75000000000000000        0.0000000000000000     
   6.2500000000000000E-002  0.75000000000000000        0.0000000000000000     
   6.2500000000000000E-002  0.78125000000000000        0.0000000000000000     
   1.8749999999999999E-002  0.76875000000000004        0.0000000000000000     
   4.0625000000000001E-002  0.77187499999999998        0.0000000000000000     
   4.3749999999999997E-002  0.79374999999999996        0.0000000000000000     
   2.1874999999999999E-002  0.79062500000000002        0.0000000000000000     
   9.3750000000000000E-002  0.75000000000000000        0.0000000000000000     
  0.12500000000000000       0.75000000000000000        0.0000000000000000     
  0.12500000000000000       0.78125000000000000        0.0000000000000000     
   8.1250000000000003E-002  0.76875000000000004        0.0000000000000000     
  0.10312499999999999       0.77187499999999998        0.0000000000000000     
  0.10625000000000000       0.79374999999999996        0.0000000000000000     
   8.4375000000000006E-002  0.79062500000000002        0.0000000000000000     
  0.15625000000000000       0.81250000000000000        0.0000000000000000     
  0.18750000000000000       0.81250000000000000        0.0000000000000000     
  0.18750000000000000       0.84375000000000000        0.0000000000000000     
  0.14374999999999999       0.83125000000000004        0.0000000000000000     
  0.16562499999999999       0.83437499999999998        0.0000000000000000     
  0.16875000000000001       0.85624999999999996        0.0000000000000000     
  0.14687500000000001       0.85312500000000002        0.0000000000000000     
  0.21875000000000000       0.81250000000000000        0.0000000000000000     
  0.25000000000000000       0.81250000000000000        0.0000000000000000     
  0.25000000000000000       0.84375000000000000        0.0000000000000000     
  0.20624999999999999       0.83125000000000004        0.0000000000000000     
  0.22812499999999999       0.83437499999999998        0.0000000000000000     
  0.23125000000000001       0.85624999999999996        0.0000000000000000     
  0.20937500000000001       0.85312500000000002        0.0000000000000000     
  0.15625000000000000       0.75000000000000000        0.0000000000000000     
  0.18750000000000000       0.75000000000000000        0.0000000000000000     
  0.18750000000000000       0.78125000000000000        0.0000000000000000     
  0.14374999999999999       0.76875000000000004        0.0000000000000000     
  0.16562499999999999       0.77187499999999998        0.0000000000000000     
  0.16875000000000001       0.79374999999999996        0.0000000000000000     
  0.14687500000000001       0.79062500000000002        0.0000000000000000     
  0.21875000000000000       0.75000000000000000        0.0000000000000000     
  0.25000000000000000       0.75000000000000000        0.0000000000000000     
  0.25000000000000000       0.78125000000000000        0.0000000000000000     
  0.20624999999999999       0.76875000000000004        0.0000000000000000     
  0.22812499999999999       0.77187499999999998        0.0000000000000000     
  0.23125000000000001       0.79374999999999996        0.0000000000000000     
  0.20937500000000001       0.79062500000000002        0.0000000000000000     
  0.28125000000000000       0.93750000000000000        0.0000000000000000     
  0.31250000000000000       0.93750000000000000        0.0000000000000000     
  0.31250000000000000       0.96875000000000000        0.0000000000000000     
  0.26874999999999999       0.95625000000000004        0.0000000000000000     
  0.29062500000000002       0.95937499999999998        0.0000000000000000     
  0.29375000000000001       0.98124999999999996        0.0000000000000000     
  0.27187499999999998       0.97812500000000002        0.0000000000000000     
  0.34375000000000000       0.93750000000000000        0.0000000000000000     
  0.37500000000000000       0.93750000000000000        0.0000000000000000     
  0.37500000000000000       0.96875000000000000        0.0000000000000000     
  0.33124999999999999       0.95625000000000004        0.0000000000000000     
  0.35312500000000002       0.95937499999999998        0.0000000000000000     
  0.35625000000000001       0.98124999999999996        0.0000000000000000     
[...]
 CELL_DATA        3584
 SCALARS VEGF float
 LOOKUP_TABLE default
   -0.13975705246488280865E-07
   -0.63324794864752287662E-08
   -0.31481628143486829506E-07
   -0.26127052179705441034E-07
   -0.52272590249006486804E-08
   -0.18977201920609110628E-07
    0.28576635536986745490E-08
   -0.11419340165134805826E-07
   -0.49107835928723109959E-08
   -0.22307452680778454587E-08
   -0.12309372955719429679E-07
   -0.25120805883982811861E-08
   -0.11397008275181286545E-07
   -0.10375120960260938861E-07
   -0.39151689523478718407E-07
   -0.30841939276277407651E-07
   -0.48396083286088285017E-07
   -0.38959231955568767132E-07
   -0.18943414878937775873E-07
   -0.29226918594395796542E-07
   -0.96526103361433726442E-08
   -0.28346784010977460593E-07
   -0.85404104901979817413E-08
   -0.17388359979285000825E-07
   -0.14805971388383149442E-07
   -0.34654615598092413820E-07
   -0.33903130999473524003E-07
   -0.29006895800362582523E-07
   -0.23777595238689480138E-07
   -0.19542702804462059970E-07
   -0.43703304103198280909E-07
   -0.42126821336091380615E-07
   -0.30563340712921694264E-07
   -0.45226036939974122796E-07
   -0.28561583026195507035E-07
   -0.14915162244436443903E-07
   -0.22298949342147448312E-07
   -0.41554462759614777364E-08
   -0.28350456720767081395E-07
   -0.14408511932678460069E-07
   -0.29532272198113591543E-07
   -0.32502575549733988115E-07
   -0.51543861969368605781E-07
   -0.47241759827269557344E-07
   -0.60949810485469878349E-07
   -0.55313481799124722252E-07
   -0.47563897953906375007E-07
   -0.58222197835962977803E-07
   -0.46141632162024153696E-07
   -0.41916235537096784220E-07
   -0.47772034092885166605E-07
   -0.40645483538274333106E-07
   -0.42259616887523887476E-07
   -0.51266270276497815959E-07
   -0.58279363340028196559E-07
   -0.57522654617679897748E-07
   -0.46675714187147478162E-07
   -0.35789609097829005915E-07
   -0.50732982407883682475E-07
   -0.40672392597704843050E-07
   -0.21836682176212357043E-07
   -0.31486171811642765655E-07
   -0.12925212349970892135E-07
   -0.33131744393074572334E-07
   -0.15295462269936755026E-07
   -0.25775740518598871845E-07
   -0.22470259473997319735E-07
   -0.44896511921798171084E-07
   -0.39188880901282332919E-07
   -0.33575211454223918344E-07
   -0.43556877721655733943E-07
   -0.32208627029271530639E-07
   -0.41452289625259739314E-07
   -0.33479866183019516997E-07
   -0.19235388913942148825E-07
   -0.29952125009447910654E-07
   -0.12527200359343796248E-07
   -0.33250710661199349526E-07
   -0.16421771160974160933E-07
   -0.27358138817129415380E-07
   -0.23026784872389923056E-07
   -0.45417053211131593896E-07
   -0.38287222423541780672E-07
   -0.32737898578389227383E-07
   -0.51375432079820514265E-07
   -0.42377124717002010533E-07
   -0.40043836270719232576E-07
   -0.35717993137331142860E-07
   -0.41682121369852010864E-07
   -0.54633313894501547882E-07
   -0.47545927765095116773E-07
   -0.45366692132803800640E-07
   -0.55224252360698921716E-07
   -0.50488333745120747643E-07
   -0.48998493115186622228E-07
   -0.60092542138782298949E-07
   -0.59570592533456929895E-07
   -0.58173759167902485184E-07
    0.30970398431072377959E-07
    0.45327462236936265892E-07
    0.14167999523099924253E-06
    0.11570595934443062275E-06
    0.24756048252910950935E-07
   -0.14000393639875926590E-07
   -0.31339505181133177366E-07
   -0.28198260175899324241E-07
   -0.49341950423782425423E-07
   -0.43815327421443175801E-07
   -0.26605031891572479689E-07
   -0.29043306201319176788E-07
   -0.18687493772018599865E-07
   -0.20939297188349411082E-07
   -0.25920851313423941812E-07
   -0.22283852732880026269E-07
   -0.45284540375799809369E-07
   -0.44293692915564570367E-07
   -0.35259332357582619924E-07
   -0.52383372304998220169E-07
   -0.38317643241558339617E-07
   -0.22225890348376910096E-07
   -0.30314977201706271592E-07
   -0.10609967496877295524E-07
   -0.32916939220231517624E-07
   -0.17527984608416011740E-07
   -0.33884148618451545950E-07
   -0.37537819492959669335E-07
   -0.47825227589197735413E-07
   -0.41189992510796903492E-07
   -0.41211892819630019274E-07
   -0.34227351785562094129E-07
   -0.42429584482620953525E-07
   -0.57674689649709106841E-07
   -0.54456447975699357880E-07
   -0.48248277740477627165E-07
   -0.57137633756199162887E-07
   -0.47724711178473120322E-07
   -0.45451542427209181797E-07
   -0.52497112792370370320E-07
   -0.58684070828088010236E-07
   -0.58531492261521145672E-07
   -0.24362475875013975162E-07
   -0.19650351221015085994E-07
   -0.38065006363569330430E-07
   -0.34977938047226418617E-07
   -0.31624954327423324244E-07
   -0.49186772535661699347E-07
   -0.38733247965766137524E-07
   -0.22702388487104171691E-07
   -0.31805570506164868705E-07
   -0.11664101894244426489E-07
   -0.32986287833409888595E-07
   -0.17096578133019654113E-07
   -0.32999446488178214216E-07
   -0.36581300941624066011E-07
   -0.71660348085855414588E-08
    0.25283208605327796677E-07
    0.11024147722884667403E-06
    0.14753418941959291128E-06
    0.45332464605877307921E-07
    0.24753918901569535636E-07
   -0.23293954085748455857E-07
   -0.25767358137058361506E-07
   -0.50362908042787892012E-07
   -0.41763614747103592082E-07
   -0.28229197145472132443E-07
   -0.36255066119136127601E-07
   -0.21398040973613448598E-07
   -0.17588708498461961140E-07
    0.44678344109439960793E-07
    0.85950028130942023618E-07
    0.24459466883667642188E-06
    0.25026806966983012122E-06
    0.85725904255369361266E-07
    0.38245383619036899261E-07
   -0.18726658549682020904E-07
   -0.19007650731877552296E-07
   -0.52509279971615853616E-07
   -0.45482075327500415952E-07
   -0.19495278198986008462E-07
   -0.24182112602757059727E-07
    0.32575918515054826609E-08
    0.40494684242576413734E-08
    0.10365407942442592196E-05
    0.12279859106541625522E-05
    0.25290334495148977227E-05
    0.23138042864321691958E-05
    0.10620004878567570180E-05
    0.70493823098279358435E-06
    0.27030973003361303653E-06
    0.27035710899768160648E-06
    0.70957344908267257099E-07
    0.88824583798201602779E-07
    0.31840692082354806009E-06
    0.39661727924381598883E-06
    0.59321937456965651702E-06
    0.56411838624650640688E-06
    0.71139909556768590530E-06
    0.10622616002779627732E-05
    0.23081629827593954851E-05
    0.25347451372468154460E-05
    0.12278206939809589327E-05
    0.10301917610951198653E-05
    0.40218703235453539125E-06
    0.31898416040237031347E-06
    0.81902669360885288467E-07
    0.78067348989102380747E-07
    0.26992618928616148039E-06
    0.26489231684308997781E-06
    0.56338020096798516637E-06
    0.59407288699020190895E-06
    0.84611930419006332361E-05
    0.10881260504648925696E-04
    0.21502492084817221663E-04
    0.21508163352707670833E-04
    0.10881058750505165757E-04
    0.84548203509048321992E-05
    0.37972837438918164774E-05
    0.34447423337570411624E-05
    0.14723268969856486376E-05
    0.14793319629962154299E-05
    0.34442216720877837850E-05
    0.37917514539243541701E-05
    0.61347723215220229944E-05
    0.61355722383369484896E-05
   -0.17591397471702777729E-07
   -0.97599575449226478544E-08
    0.19264514127134005383E-08
   -0.25364219968898869562E-08
   -0.57181658146482654156E-08
   -0.22162875373783415076E-07
   -0.79654693833367075493E-08
   -0.28914830916212281952E-07
   -0.14200166582365556486E-07
   -0.25113300523163491825E-07
   -0.16779550346380969152E-07
   -0.35336672958321577432E-07
   -0.28311595435184334882E-07
   -0.24251407981049514774E-07
    0.72088667059104835000E-07
    0.58092311247436665658E-07
    0.11895120468358587289E-06
    0.74384855995616254887E-07
    0.29334472645353007625E-07
   -0.34351612309055678193E-08
    0.41874058701066770631E-08
   -0.15749498000327832391E-07
   -0.59438159497193229424E-08
   -0.15803358708618718548E-07
    0.55343273077958681386E-08
    0.31191764828801254451E-08
    0.25709941661146207826E-08
    0.83495236653229168566E-09
    0.51376087898285004612E-06
    0.49102389899878781082E-06
    0.97345196030692989362E-06
    0.75118644595512468799E-06
    0.31546697417446346889E-06
    0.15031900833637270507E-06
    0.41716567572872363727E-07
    0.60648289372734324864E-07
   -0.82078938115613171469E-08
    0.84154827384857753540E-08
    0.11018448087716993945E-06
    0.17617588276690098102E-06
    0.19468527566114914921E-06
    0.16420931801543744049E-06
    0.22347762170697919076E-05
    0.18773123771496915932E-05
    0.32901074985109996724E-05
    0.23770991279397500012E-05
    0.10896279273491413639E-05
    0.55391352408987881152E-06
    0.23750460422464864994E-06
    0.33003219486608336921E-06
    0.13348683402323714733E-06
    0.20331435725186568490E-06
    0.59488314281867466087E-06
    0.96385347758474634128E-06
    0.86711384433525432505E-06
    0.72088804483695038690E-06
    0.25813686933441350965E-06
    0.18019337147093986319E-06
    0.30230134159179957418E-06
    0.18400801691853573062E-06
    0.81764826541602893951E-07
    0.22135948085333014545E-07
    0.22744951428935797486E-07
    0.73141971912126653130E-08
    0.10803717735513411088E-07
    0.46991674365152661172E-08
    0.52152869397285072728E-07
    0.89873403691721918680E-07
    0.59018809114974441671E-07
    0.44355831461390922544E-07
    0.46602260268202500216E-06
    0.29190726105644425239E-06
    0.43210322142362060151E-06
    0.24842189359902528193E-06
    0.11608899809600204668E-06
    0.35950272096596916118E-07
    0.35551798692982662909E-07
    0.27610220696254582052E-07
    0.29177394032689228540E-07
    0.29773057501203595553E-07
    0.10539659989884866773E-06
    0.19917298913631739886E-06
    0.11194699993302228896E-06
    0.81959979896277990897E-07
    0.59061747042146009026E-05
    0.44338834219244796224E-05
    0.70051485868977752202E-05
    0.47442532566147285438E-05
    0.22760308562576860716E-05
    0.11165436886285523414E-05
    0.54236430192320501074E-06
    0.81412940393543650866E-06
    0.42797206835344299718E-06
    0.64415350887018672604E-06
    0.16337251995730067313E-05
    0.27960253039178347228E-05
    0.21271417141889720429E-05
    0.17105535845013117435E-05
    0.10093077014337672889E-04
    0.68144353015993261821E-05
    0.96819652056151937807E-05
    0.61572529369611450782E-05
    0.30692153290228129269E-05
    0.14251467506856141856E-05
    0.75598361977098709287E-06
    0.12487542944622701574E-05
    0.75836383859792449660E-06
    0.11967471398080519787E-05
    0.28436485941761490358E-05
    0.51610418825965715528E-05
    0.33307589666726339023E-05
    0.25816381128322875411E-05
    0.72081635187697554678E-05
    0.73784492843136241147E-05
    0.13700559058513718798E-04
    0.11486928677266629696E-04
    0.55534539085034166116E-05
    0.35064566104782840934E-05
    0.15875863272798348117E-05
    0.17656359541725773123E-05
    0.79288014182429776098E-06
    0.94577203690127535402E-06
    0.23659138749391145460E-05
    0.31951174149153846702E-05
    0.37911794499374838941E-05
    0.34511370517706370552E-05
    0.30494078876789587179E-04
    0.27412190083365559534E-04
    0.46169921391289903037E-04
    0.35838060310620448450E-04
    0.17976780553917432034E-04
    0.10609099323099146025E-04
    0.52398458939008209524E-05
    0.64758683048082679755E-05
    0.33739551544280700849E-05
    0.42798758290229475820E-05
    0.99668431932186085090E-05
    0.14570245409155273565E-04
    0.14318624379980387308E-04
    0.12493111510673660878E-04
    0.62305424342915996907E-04
    0.69672520327093294444E-04
    0.12631924412136194091E-03
    0.11441188028641236657E-03
    0.59509564279332551864E-04
    0.42038027124133017451E-04
    0.20438925361654604931E-04
    0.20961430546548955506E-04
    0.10200964632088329296E-04
    0.11112457224631190909E-04
    0.24515185338943500999E-04
    0.29739266136611959280E-04
    0.39377393110026111386E-04
    0.37432217916918901859E-04
    0.28570581593302278242E-03
    0.27543738093606720801E-03
    0.45063382297198226233E-03
    0.37365199447953530588E-03
    0.20112873701577684807E-03
    0.13070171572503931526E-03
    0.68706754012904538531E-04
    0.79286049531779203940E-04
    0.43365605901709334635E-04
    0.51338838399581471726E-04
    0.10879027744080708388E-03
    0.14559979969033502874E-03
    0.15631770927306167093E-03
    0.14150453149118681498E-03
    0.81770825745235180748E-04
    0.65359611257612324994E-04
    0.99517523401902049603E-04
    0.72096755615286210977E-04
    0.37496353365582320717E-04
    0.20720507095549475438E-04
    0.11063971053214845033E-04
    0.15164503028668680637E-04
    0.88941749028616350759E-05
    0.12060145830402884835E-04
    0.26747591495872951835E-04
    0.41998172939031002109E-04
    0.34583495461956317667E-04
    0.28990167666416000842E-04
    0.14148557386121874899E-03
    0.10134105064246461852E-03
    0.13864002690949211853E-03
    0.94083839245055083701E-04
    0.50817449130190474826E-04
    0.26351611172128699577E-04
    0.15220837400919765296E-04
    0.23120973696510483552E-04
    0.15216162842966638016E-04
    0.22029169570358523081E-04
    0.46688354145593402567E-04
    0.78296868396945075376E-04
    0.54308429281743388084E-04
    0.43781234082406330981E-04
    0.79288890058864353819E-03
    0.67407969671273476782E-03
    0.98988211055776333634E-03
    0.76563727721776783999E-03
    0.42857880817385486660E-03
    0.25952372769318484596E-03
    0.14759480224881010467E-03
    0.18985405930495663170E-03
    0.11664897058802864785E-03
    0.14875946303027551536E-03
    0.30124687266993769143E-03
    0.43711618016610548484E-03
    0.38751039872201317824E-03
    0.33634937035254827220E-03
    0.13865511676828413262E-02
    0.10554140066171202247E-02
    0.13874035896970881958E-02
    0.10054419150644449375E-02
    0.58652089331536004079E-03
    0.33226366206424778546E-03
    0.20493630708880031591E-03
    0.29305813211282725475E-03
    0.20232803903968811315E-03
    0.27622930544046449351E-03
    0.53370079409591740256E-03
    0.82953851094947695429E-03
    0.61587013866773834044E-03
    0.51387268173812175424E-03
   -0.16568918546214511172E-07
   -0.61272135184044570496E-08
   -0.71166090851329426618E-08
    0.84073248822495243988E-08
   -0.91660468153235597416E-08
   -0.23205988501912740139E-07
   -0.28631717145714830101E-07
   -0.16439193301123420037E-07
   -0.29541925354777887162E-07
   -0.94280953432948904039E-08
   -0.28640896010474109762E-07
   -0.12528725366369351954E-07
   -0.24503950938631202199E-07
   -0.26595105124885255251E-07
    0.15715820662717166533E-06
    0.31600096061827418905E-06
    0.74572817355049469097E-06
    0.97931364441543221516E-06
    0.49104054432512411706E-06
    0.50756158467441419919E-06
    0.18194844564814559644E-06
    0.11103968392581869302E-06
    0.18882810822565874547E-08
   -0.61406040137503057355E-09
    0.60627773038116154167E-07
    0.36807662900199325240E-07
    0.16376066546136350268E-06
    0.19579587525938278168E-06
    0.21594239647232457947E-08
    0.28926351138445774788E-07
    0.69805490926105364884E-07
    0.12543315776904418464E-06
    0.58687959852648139754E-07
    0.66476820860200500406E-07
    0.98279242952665079952E-08
    0.58774189681749520400E-08
   -0.20228765632286914102E-07
   -0.11693662711938997589E-08
   -0.15474049680722096990E-07
   -0.37493230555388747675E-09
    0.58385384084058212645E-09
    0.42892216659115419449E-08
    0.56075357597366081267E-06
    0.10901635379313079957E-05
    0.23716432838558838834E-05
    0.32959706558176949416E-05
    0.18773317989365378073E-05
    0.22285812395908228013E-05
    0.96963105946091775392E-06
    0.59574190415800799859E-06
    0.19679091834748867438E-06
    0.14108346179464948983E-06
    0.33001362958052378167E-06
    0.23259685944154445116E-06
    0.72044152034981673836E-06
    0.86822697759812186566E-06
    0.35129219588478991395E-05
    0.55537239901197864113E-05
    0.11481299939362435628E-04
    0.13706277771934613087E-04
    0.73782993037686136375E-05
    0.72018363549265690989E-05
    0.32007135297340493021E-05
    0.23665111638659980844E-05
    0.93887225125266955942E-06
    0.80000733699823362173E-06
    0.17652171356311522641E-05
    0.15821764485617418509E-05
    0.34504113655175388971E-05
    0.37920475315731359653E-05
    0.42044379772950438785E-04
    0.59509775295161331519E-04
    0.11440625824809891938E-03
    0.12632487628162918677E-03
    0.69672347883817787977E-04
    0.62299108167865500864E-04
    0.29744839224289293297E-04
    0.24515733799821939665E-04
    0.11105473416594298578E-04
    0.10207987951643475208E-04
    0.20960923944565664655E-04
    0.20433396349154023719E-04
    0.37431437579593234430E-04
    0.39378217626533366014E-04
    0.10615562747968564517E-04
    0.17977055033123539804E-04
    0.35832448222615183916E-04
    0.46175634854689567941E-04
    0.27412046320435054519E-04
    0.30487763063936806668E-04
    0.14575852772201720748E-04
    0.99674474161672268666E-05
    0.42729803332191919248E-05
    0.33810859090635250748E-05
    0.64754527581698606301E-05
    0.52344372118427569198E-05
    0.12492390839597422862E-04
    0.14319498250920039645E-04
    0.13070800453547916603E-03
    0.20112895605749680442E-03
    0.37364651795714147161E-03
    0.45063940342397187456E-03
    0.27543723522839862108E-03
    0.28569953589478302037E-03
    0.14560541833365868805E-03
    0.10879084590187466301E-03
    0.51331844745893272014E-04
    0.43372625410254750302E-04
    0.79285542531036816601E-04
    0.68701209976631830915E-04
    0.14150376630705087215E-03
    0.15631855443446127638E-03
    0.27730637297173262939E-07
    0.81356903918530731031E-07
    0.17942897198285188666E-06
    0.30878365584818180183E-06
    0.18078942870152587803E-06
    0.25252566555124835049E-06
    0.96582806201716723806E-07
    0.52496389512837173874E-07
    0.27421899003893886434E-09
    0.15578491528478420733E-07
    0.75898602944827654732E-08
    0.18182743586477045301E-07
    0.44104977328695515423E-07
    0.60737340141547370455E-07
    0.11233845338552229325E-05
    0.22765684355446213241E-05
    0.47388022159607398582E-05
    0.70110153884660889867E-05
    0.44339058725210939654E-05
    0.58999834359726491986E-05
    0.28018053478062462221E-05
    0.16345855540099717946E-05
    0.63763093467125870761E-06
    0.43556936418479262305E-06
    0.81411169595162619998E-06
    0.53745708668254911542E-06
    0.17101085931508511514E-05
    0.21282566298097564314E-05
    0.41544937228188825305E-07
    0.11568113832740780054E-06
    0.24384303458216101918E-06
    0.43858600653041984272E-06
    0.29250366958143054679E-06
    0.46041201488560092972E-06
    0.20588271225902434836E-06
    0.10574029218358605962E-06
    0.25348208181226106914E-07
    0.33952230604113452659E-07
    0.27885924987727685332E-07
    0.30989584434244246458E-07
    0.81709223606568918294E-07
    0.11366568540919202387E-06
    0.14319894268458898588E-05
    0.30697576056236568873E-05
    0.61518126241355711867E-05
    0.96878508472783537937E-05
    0.68144687166310143010E-05
    0.10086898987288350099E-04
    0.51668279338535100202E-05
    0.28445124957582017928E-05
    0.11902257278291212665E-05
    0.76596196051660870381E-06
    0.12487382453994100583E-05
    0.75107734337721571674E-06
    0.25811968841532042036E-05
    0.33318787759145435951E-05
    0.20726979851999815456E-04
    0.37496652056701400247E-04
    0.72091209231338036789E-04
    0.99523271740316421948E-04
    0.65359496833400899615E-04
    0.81764539209572986256E-04
    0.42003799070943091871E-04
    0.26748207333044137407E-04
    0.12053251535218629712E-04
    0.89013078915555195143E-05
    0.15164094627775969736E-04
    0.11058567764796846928E-04
    0.28989462695217988912E-04
    0.34584386389091091704E-04
    0.25953007651019867948E-03
    0.42857920145592301973E-03
    0.76563232862211230093E-03
    0.98988793083232599034E-03
    0.67407977005693039355E-03
    0.79288282331658240659E-03
    0.43712194810706855386E-03
    0.30124751735462987779E-03
    0.14875244295861243197E-03
    0.11665598842244671472E-03
    0.18985359819835836092E-03
    0.14758930034337823241E-03
    0.33634871864382694107E-03