# vtk DataFile Version 3.0
LAPLACIEN  2D
ASCII
DATASET UNSTRUCTURED_GRID
 POINTS        1857  float
   3.1250000000000000E-002  0.93750000000000000        0.0000000000000000     
   6.2500000000000000E-002  0.93750000000000000        0.0000000000000000     
   6.2500000000000000E-002  0.96875000000000000        0.0000000000000000     
   1.8749999999999999E-002  0.95625000000000004        0.0000000000000000     
   4.0625000000000001E-002  0.95937499999999998        0.0000000000000000     
   4.3749999999999997E-002  0.98124999999999996        0.0000000000000000     
   2.1874999999999999E-002  0.97812500000000002        0.0000000000000000     
   9.3750000000000000E-002  0.93750000000000000        0.0000000000000000     
  0.12500000000000000       0.93750000000000000        0.0000000000000000     
  0.12500000000000000       0.96875000000000000        0.0000000000000000     
   8.1250000000000003E-002  0.95625000000000004        0.0000000000000000     
  0.10312499999999999       0.95937499999999998        0.0000000000000000     
  0.10625000000000000       0.98124999999999996        0.0000000000000000     
   8.4375000000000006E-002  0.97812500000000002        0.0000000000000000     
   3.1250000000000000E-002  0.87500000000000000        0.0000000000000000     
   6.2500000000000000E-002  0.87500000000000000        0.0000000000000000     
   6.2500000000000000E-002  0.90625000000000000        0.0000000000000000     
   1.8749999999999999E-002  0.89375000000000004        0.0000000000000000     
   4.0625000000000001E-002  0.89687499999999998        0.0000000000000000     
   4.3749999999999997E-002  0.91874999999999996        0.0000000000000000     
   2.1874999999999999E-002  0.91562500000000002        0.0000000000000000     
   9.3750000000000000E-002  0.87500000000000000        0.0000000000000000     
  0.12500000000000000       0.87500000000000000        0.0000000000000000     
  0.12500000000000000       0.90625000000000000        0.0000000000000000     
   8.1250000000000003E-002  0.89375000000000004        0.0000000000000000     
  0.10312499999999999       0.89687499999999998        0.0000000000000000     
  0.10625000000000000       0.91874999999999996        0.0000000000000000     
   8.4375000000000006E-002  0.91562500000000002        0.0000000000000000     
  0.15625000000000000       0.93750000000000000        0.0000000000000000     
  0.18750000000000000       0.93750000000000000        0.0000000000000000     
  0.18750000000000000       0.96875000000000000        0.0000000000000000     
  0.14374999999999999       0.95625000000000004        0.0000000000000000     
  0.16562499999999999       0.95937499999999998        0.0000000000000000     
  0.16875000000000001       0.98124999999999996        0.0000000000000000     
  0.14687500000000001       0.97812500000000002        0.0000000000000000     
  0.21875000000000000       0.93750000000000000        0.0000000000000000     
  0.25000000000000000       0.93750000000000000        0.0000000000000000     
  0.25000000000000000       0.96875000000000000        0.0000000000000000     
  0.20624999999999999       0.95625000000000004        0.0000000000000000     
  0.22812499999999999       0.95937499999999998        0.0000000000000000     
  0.23125000000000001       0.98124999999999996        0.0000000000000000     
  0.20937500000000001       0.97812500000000002        0.0000000000000000     
  0.15625000000000000       0.87500000000000000        0.0000000000000000     
  0.18750000000000000       0.87500000000000000        0.0000000000000000     
  0.18750000000000000       0.90625000000000000        0.0000000000000000     
  0.14374999999999999       0.89375000000000004        0.0000000000000000     
  0.16562499999999999       0.89687499999999998        0.0000000000000000     
  0.16875000000000001       0.91874999999999996        0.0000000000000000     
  0.14687500000000001       0.91562500000000002        0.0000000000000000     
  0.21875000000000000       0.87500000000000000        0.0000000000000000     
  0.25000000000000000       0.87500000000000000        0.0000000000000000     
  0.25000000000000000       0.90625000000000000        0.0000000000000000     
  0.20624999999999999       0.89375000000000004        0.0000000000000000     
  0.22812499999999999       0.89687499999999998        0.0000000000000000     
  0.23125000000000001       0.91874999999999996        0.0000000000000000     
  0.20937500000000001       0.91562500000000002        0.0000000000000000     
   3.1250000000000000E-002  0.81250000000000000        0.0000000000000000     
   6.2500000000000000E-002  0.81250000000000000        0.0000000000000000     
   6.2500000000000000E-002  0.84375000000000000        0.0000000000000000     
   1.8749999999999999E-002  0.83125000000000004        0.0000000000000000     
   4.0625000000000001E-002  0.83437499999999998        0.0000000000000000     
   4.3749999999999997E-002  0.85624999999999996        0.0000000000000000     
   2.1874999999999999E-002  0.85312500000000002        0.0000000000000000     
   9.3750000000000000E-002  0.81250000000000000        0.0000000000000000     
  0.12500000000000000       0.81250000000000000        0.0000000000000000     
  0.12500000000000000       0.84375000000000000        0.0000000000000000     
   8.1250000000000003E-002  0.83125000000000004        0.0000000000000000     
  0.10312499999999999       0.83437499999999998        0.0000000000000000     
  0.10625000000000000       0.85624999999999996        0.0000000000000000     
   8.4375000000000006E-002  0.85312500000000002        0.0000000000000000     
   3.1250000000000000E-002  0.75000000000000000        0.0000000000000000     
   6.2500000000000000E-002  0.75000000000000000        0.0000000000000000     
   6.2500000000000000E-002  0.78125000000000000        0.0000000000000000     
   1.8749999999999999E-002  0.76875000000000004        0.0000000000000000     
   4.0625000000000001E-002  0.77187499999999998        0.0000000000000000     
   4.3749999999999997E-002  0.79374999999999996        0.0000000000000000     
   2.1874999999999999E-002  0.79062500000000002        0.0000000000000000     
   9.3750000000000000E-002  0.75000000000000000        0.0000000000000000     
  0.12500000000000000       0.75000000000000000        0.0000000000000000     
  0.12500000000000000       0.78125000000000000        0.0000000000000000     
   8.1250000000000003E-002  0.76875000000000004        0.0000000000000000     
  0.10312499999999999       0.77187499999999998        0.0000000000000000     
  0.10625000000000000       0.79374999999999996        0.0000000000000000     
   8.4375000000000006E-002  0.79062500000000002        0.0000000000000000     
  0.15625000000000000       0.81250000000000000        0.0000000000000000     
  0.18750000000000000       0.81250000000000000        0.0000000000000000     
  0.18750000000000000       0.84375000000000000        0.0000000000000000     
  0.14374999999999999       0.83125000000000004        0.0000000000000000     
  0.16562499999999999       0.83437499999999998        0.0000000000000000     
  0.16875000000000001       0.85624999999999996        0.0000000000000000     
  0.14687500000000001       0.85312500000000002        0.0000000000000000     
  0.21875000000000000       0.81250000000000000        0.0000000000000000     
  0.25000000000000000       0.81250000000000000        0.0000000000000000     
  0.25000000000000000       0.84375000000000000        0.0000000000000000     
  0.20624999999999999       0.83125000000000004        0.0000000000000000     
  0.22812499999999999       0.83437499999999998        0.0000000000000000     
  0.23125000000000001       0.85624999999999996        0.0000000000000000     
  0.20937500000000001       0.85312500000000002        0.0000000000000000     
  0.15625000000000000       0.75000000000000000        0.0000000000000000     
  0.18750000000000000       0.75000000000000000        0.0000000000000000     
  0.18750000000000000       0.78125000000000000        0.0000000000000000     
  0.14374999999999999       0.76875000000000004        0.0000000000000000     
  0.16562499999999999       0.77187499999999998        0.0000000000000000     
  0.16875000000000001       0.79374999999999996        0.0000000000000000     
  0.14687500000000001       0.79062500000000002        0.0000000000000000     
  0.21875000000000000       0.75000000000000000        0.0000000000000000     
  0.25000000000000000       0.75000000000000000        0.0000000000000000     
  0.25000000000000000       0.78125000000000000        0.0000000000000000     
  0.20624999999999999       0.76875000000000004        0.0000000000000000     
  0.22812499999999999       0.77187499999999998        0.0000000000000000     
  0.23125000000000001       0.79374999999999996        0.0000000000000000     
  0.20937500000000001       0.79062500000000002        0.0000000000000000     
  0.28125000000000000       0.93750000000000000        0.0000000000000000     
  0.31250000000000000       0.93750000000000000        0.0000000000000000     
  0.31250000000000000       0.96875000000000000        0.0000000000000000     
  0.26874999999999999       0.95625000000000004        0.0000000000000000     
  0.29062500000000002       0.95937499999999998        0.0000000000000000     
  0.29375000000000001       0.98124999999999996        0.0000000000000000     
  0.27187499999999998       0.97812500000000002        0.0000000000000000     
  0.34375000000000000       0.93750000000000000        0.0000000000000000     
  0.37500000000000000       0.93750000000000000        0.0000000000000000     
  0.37500000000000000       0.96875000000000000        0.0000000000000000     
  0.33124999999999999       0.95625000000000004        0.0000000000000000     
  0.35312500000000002       0.95937499999999998        0.0000000000000000     
  0.35625000000000001       0.98124999999999996        0.0000000000000000     
[...]
 CELL_DATA        3584
 SCALARS VEGF float
 LOOKUP_TABLE default
   -0.26208629669351177598E-08
    0.52972560283605952989E-08
   -0.19577841292832594854E-07
   -0.14217141549136769676E-07
    0.63855430447918913611E-08
   -0.76435724864789750601E-08
    0.13830472916253869706E-07
   -0.50699002908407164794E-09
    0.54870822584017565432E-08
    0.81627869918484493612E-08
   -0.14025001258954768879E-08
    0.84686312187409062054E-08
    0.55055817968921290810E-10
    0.10752269738846839307E-08
   -0.26527199745307606102E-07
   -0.18095825756570687940E-07
   -0.34839055645505392239E-07
   -0.25579715089663344203E-07
   -0.65062817433179904827E-08
   -0.17289712620725412930E-07
    0.18275569866596042627E-08
   -0.16755878901801398270E-07
    0.27962347005391871556E-08
   -0.59603505378440136267E-08
   -0.28615288593835920703E-08
   -0.22591602554245275795E-07
   -0.21606492654577836634E-07
   -0.16809189460525770899E-07
   -0.11822402732062030984E-07
   -0.70973471366688011705E-08
   -0.30339807851367188758E-07
   -0.28582917373658858951E-07
   -0.17872963140461593050E-07
   -0.32677011412823035624E-07
   -0.16514407942141769309E-07
   -0.29745226429025448772E-08
   -0.10868816714373486429E-07
    0.71707367890861597731E-08
   -0.16773225816535026008E-07
   -0.29255275886706489413E-08
   -0.17346448054196657825E-07
   -0.20226007011112153279E-07
   -0.33429310316793876489E-07
   -0.27256132149670558067E-07
   -0.32252600869225940939E-07
   -0.26618921334597545185E-07
   -0.27622228122055519377E-07
   -0.40174582158761787288E-07
   -0.31646797469973335882E-07
   -0.27578241046147170148E-07
   -0.34833431413204204880E-07
   -0.27746410286704923741E-07
   -0.27950495671560924709E-07
   -0.36774466175406625346E-07
   -0.41897295085645465976E-07
   -0.41142880840632158840E-07
   -0.29304177380574853651E-07
   -0.17897943193268438207E-07
   -0.26750835249256272364E-07
   -0.18219840848203694669E-07
   -0.51329273555470594971E-08
   -0.16378380831211054900E-07
    0.36094707473035398655E-09
   -0.20105216831311816967E-07
   -0.32045801217033545418E-08
   -0.13625480620473400685E-07
   -0.89917117952932359368E-08
   -0.30811856379739480229E-07
   -0.24308444330532575815E-07
   -0.18930132047105382041E-07
    0.20818272255588258310E-08
    0.13372078132020835477E-07
    0.34106170839700913332E-07
    0.30968045585929635687E-07
    0.18050659558607850373E-07
   -0.38905783478010879020E-09
    0.97492713077787425616E-08
   -0.12459696912616130312E-07
    0.46760911943058914257E-10
   -0.11056188919722942677E-07
   -0.53856795634243329985E-09
   -0.18957315676230838041E-07
   -0.92193820418106520929E-08
   -0.50748514948678577390E-08
    0.16699217507560408655E-07
    0.35435687796714217131E-07
    0.10236230328814975703E-06
    0.98090551812717657818E-07
    0.29317944555367951765E-07
   -0.16231288073211195771E-09
   -0.16935780356355128268E-07
   -0.15315241815075922010E-07
   -0.35373488431745251690E-07
   -0.30141505647358989245E-07
   -0.16827933329558412902E-07
   -0.23707791579099100726E-07
   -0.12440534039169264223E-07
   -0.12294202806294767599E-07
    0.40558878352585938833E-06
    0.44071617705358133957E-06
    0.85862616388580245014E-06
    0.74418186525516113105E-06
    0.34469057418205248941E-06
    0.20652098700554050140E-06
    0.78306124035679237660E-07
    0.86746132774236120441E-07
    0.11651491308004751542E-07
    0.23596644872599755135E-07
    0.11422809311166313787E-06
    0.14977356882995215358E-06
    0.19960379368824058924E-06
    0.18306298549457488947E-06
   -0.10789892190832451290E-07
   -0.55669970001756222134E-08
   -0.22842813809895606341E-07
   -0.20319864671835844335E-07
   -0.17420456309683010679E-07
   -0.35087573925943584629E-07
   -0.24253863023677137783E-07
   -0.87515279829113448510E-08
   -0.18163451273781721535E-07
    0.14717671117750070939E-08
   -0.19900549458045016499E-07
   -0.42341685364032435202E-08
   -0.19247265413933952174E-07
   -0.22674606816119546476E-07
    0.67178717346308938745E-08
    0.29858869042582520907E-07
    0.92604494516525884506E-07
    0.10818086073776184843E-06
    0.35342144888655033891E-07
    0.10332651713150550890E-07
   -0.18074191908328557539E-07
   -0.16050272844865656763E-07
   -0.36755086686347708323E-07
   -0.27913747252655558151E-07
   -0.15425893456064420307E-07
   -0.21885213966575969871E-07
   -0.12798733353301631390E-07
   -0.11401161412271331075E-07
    0.52269708602781832174E-08
    0.17652432639571050385E-07
    0.26375391125919201763E-07
    0.40575878359387066222E-07
    0.13907381118839250980E-07
   -0.36187971656779494132E-08
   -0.12289151054120578121E-07
   -0.21328639599631212645E-09
   -0.15497150571256629878E-07
    0.48003201977700330334E-08
   -0.12200990616053287557E-07
    0.51913132640257105907E-08
   -0.53402725197827747845E-08
   -0.75261386356755770650E-08
    0.21343043288564486948E-06
    0.34527002682687897194E-06
    0.73872864305465866453E-06
    0.86448585455975767581E-06
    0.44068444396012314458E-06
    0.39931003605546130046E-06
    0.15552564350987594391E-06
    0.11509820505508897665E-06
    0.17089968884579653873E-07
    0.19195011045556764805E-07
    0.86693705868611797024E-07
    0.73395959245573990129E-07
    0.18261421310503936628E-06
    0.20070726903438730915E-06
    0.46599281636708078931E-06
    0.61169198669177535288E-06
    0.12451666139361034059E-05
    0.12508365283941863706E-05
    0.61142198741243750745E-06
    0.45948766388538430939E-06
    0.18305243396718933470E-06
    0.16424730612322164143E-06
    0.36887931361108231233E-07
    0.43879107431923318375E-07
    0.16373527896544342116E-06
    0.17760416367274923711E-06
    0.31229472479592327992E-06
    0.31308339268607579365E-06
    0.37915405427710078589E-05
    0.43382066110392944689E-05
    0.80575203930822021187E-05
    0.74751832775264811905E-05
    0.38375764979144865035E-05
    0.27754689259194053234E-05
    0.13035232929712788029E-05
    0.12932488629512997031E-05
    0.58436216197805637457E-06
    0.63508216001387434023E-06
    0.14666159656623495502E-05
    0.17574537038924656670E-05
    0.24161153582439108213E-05
    0.23215488104810862895E-05
    0.27820037566324984238E-05
    0.38378872734509036145E-05
    0.74695515919033511829E-05
    0.80632310066641239870E-05
    0.43380008008404093121E-05
    0.37851259310842540727E-05
    0.17630221512964614135E-05
    0.14672229468153803034E-05
    0.62820130919192036528E-06
    0.59144103845898752754E-06
    0.12927978485089265757E-05
    0.12981163182245914384E-05
    0.23208184166124376139E-05
    0.24169706218709759737E-05
    0.22702127315747917347E-04
    0.28142921482203929262E-04
    0.51234668799201157701E-04
    0.51240323531014259366E-04
    0.28142678760986001365E-04
    0.22695698224266966722E-04
    0.11313535014385031887E-04
    0.10399461633335725926E-04
    0.50730497577825444508E-05
    0.50800189346271981794E-05
    0.10398914175469645827E-04
    0.11308003987780658751E-04
    0.17170696309014526446E-04
    0.17171494128729390791E-04
    0.14155189861247199765E-06
    0.13556242755924341213E-06
    0.24709376329427059097E-06
    0.19125152228447793181E-06
    0.97348515623923934230E-07
    0.50851384248438402875E-07
    0.43557833103304649487E-07
    0.19612486629316482097E-07
    0.19777318127842141223E-07
    0.88681904831199948110E-08
    0.42125251105821969113E-07
    0.44307322662111570668E-07
    0.52729761217867603819E-07
    0.49383531919610753662E-07
    0.53304959867295120867E-06
    0.44118153523553211589E-06
    0.72912559501770248591E-06
    0.52864443328798160796E-06
    0.27033340394289523486E-06
    0.15504570079549289275E-06
    0.11824602460011095146E-06
    0.98225904819843909038E-07
    0.74292002386795419981E-07
    0.67913944494219985176E-07
    0.16224809990184169626E-06
    0.23474666372013438801E-06
    0.20959865224655581068E-06
    0.18177174338640755209E-06
    0.21411189026852482633E-05
    0.20451277042007559465E-05
    0.35990542170195014793E-05
    0.29145294555290551058E-05
    0.14385483952517167797E-05
    0.87298199201332673888E-06
    0.40932636662144808829E-06
    0.48156830349443438850E-06
    0.21776225600670330320E-06
    0.27728693901169919634E-06
    0.69503683224425656626E-06
    0.97810534305357611377E-06
    0.10473317520171019109E-05
    0.93247172013706600158E-06
    0.71959399392241004970E-05
    0.61866313100748078900E-05
    0.99940284079025303038E-05
    0.76100593931118165752E-05
    0.38928630725935180101E-05
    0.22614819918159238303E-05
    0.11557886981031848029E-05
    0.14749502994057678329E-05
    0.79750985243443381994E-06
    0.10429793567425045082E-05
    0.23756059690764783044E-05
    0.35577069323470022873E-05
    0.32576880847934679944E-05
    0.28062760250336482645E-05
    0.12346394454368301854E-05
    0.92347191218066227830E-06
    0.13986379607177328326E-05
    0.95839684303359469182E-06
    0.50125310327975412262E-06
    0.28271942304979564204E-06
    0.21984657846325963108E-06
    0.21933678728877105027E-06
    0.17003307075333716737E-06
    0.17942414895491510005E-06
    0.37894461963674166940E-06
    0.60381996993095946957E-06
    0.46056749196160379342E-06
    0.38384436358265974928E-06
    0.19492867465597393910E-05
    0.13313808008351157145E-05
    0.18427349207261992412E-05
    0.11964646457256991533E-05
    0.64414613827574625622E-06
    0.34802965148819445847E-06
    0.28587783611113712968E-06
    0.31840835507988189596E-06
    0.26618661795693858259E-06
    0.30322990584601668866E-06
    0.60441612551441817754E-06
    0.10257791565737612454E-05
    0.67789992291857518666E-06
    0.54595616902794517817E-06
    0.16485996184951802376E-04
    0.12865113550440070140E-04
    0.19058447421525948485E-04
    0.13702895139817643409E-04
    0.72373516795056440416E-05
    0.39927106617040719296E-05
    0.21880118268428744085E-05
    0.30395209192317609671E-05
    0.18392887193433110956E-05
    0.25272001341176316818E-05
    0.54786690258028884816E-05
    0.86964172685227665366E-05
    0.68720449180229513218E-05
    0.57279484710788765563E-05
    0.26115977481546964186E-04
    0.18598114386648143849E-04
    0.25159884804665882897E-04
    0.17123598235376846966E-04
    0.93425412278081097344E-05
    0.48890530176025077174E-05
    0.28668744071213938439E-05
    0.43403581517898416059E-05
    0.29049785458736841237E-05
    0.42090319549359421161E-05
    0.87607308589221196196E-05
    0.14690915195370596804E-04
    0.10051047687507870654E-04
    0.81083392339083058895E-05
    0.19749741923317937751E-04
    0.20094591222788056991E-04
    0.34473912448867859604E-04
    0.29659446409431571175E-04
    0.15666053414599720944E-04
    0.10591880911032665902E-04
    0.53634911622026885253E-05
    0.58611041895063422557E-05
    0.30395819106657745712E-05
    0.34931412072025333481E-05
    0.75453745468798906192E-05
    0.97753652093165581708E-05
    0.11327330817719335356E-04
    0.10459134577370315935E-04
    0.68975444744782962530E-04
    0.62696361536045212273E-04
    0.98808903269253224003E-04
    0.79442574389847970596E-04
    0.43199084227100436879E-04
    0.27377639770634292464E-04
    0.14819585165569410098E-04
    0.17793925978337939050E-04
    0.10224585160780786359E-04
    0.12514052431314743141E-04
    0.25984677474584041740E-04
    0.36222917569981685532E-04
    0.35589614134617306987E-04
    0.31639336359186258211E-04
    0.12932908992257594462E-03
    0.14227073617021829591E-03
    0.24045940354073660279E-03
    0.22075764347391363938E-03
    0.12368618487784184415E-03
    0.91460270082918495075E-04
    0.48559223797109215431E-04
    0.49644241048606531971E-04
    0.26638131781759825771E-04
    0.28673243434631551132E-04
    0.57031811726002220491E-04
    0.67549310536151033397E-04
    0.86390170027466421892E-04
    0.82672788172738213472E-04
    0.49039857728207713813E-03
    0.47370228729294599655E-03
    0.72981663948693258504E-03
    0.62019124660886329296E-03
    0.35782260651810070739E-03
    0.24531327533842522395E-03
    0.13933204766579238812E-03
    0.15810585801096974611E-03
    0.93747990639808108956E-04
    0.10864237753385475862E-03
    0.20959789172620820678E-03
    0.27119232378336596487E-03
    0.28791895621676962804E-03
    0.26384790394084990314E-03
    0.16229260187856272006E-03
    0.13316394235164026876E-03
    0.19203706421553790756E-03
    0.14538114020650873899E-03
    0.81568920858413680904E-04
    0.48706178419694265706E-04
    0.28173923128196004886E-04
    0.37040478978341883959E-04
    0.23477245234405972571E-04
    0.30515757744088732785E-04
    0.61015069363406292482E-04
    0.90762274925923724618E-04
    0.76279687502060509259E-04
    0.65467340957408535216E-04
    0.26074979615734264222E-03
    0.19460310831354582918E-03
    0.25568922675257572518E-03
    0.18289672240826303001E-03
    0.10613737598358277247E-03
    0.59892930861049952570E-04
    0.37093645899812928662E-04
    0.53317081666193553828E-04
    0.37276376770237472933E-04
    0.51307435035230084181E-04
    0.98733095634456793086E-04
    0.15577001693851085028E-03
    0.11266018504619740889E-03
    0.93475235997926423622E-04
    0.11916296357961395167E-02
    0.10308135328547713729E-02
    0.14399718987674167865E-02
    0.11526452194716631672E-02
    0.68933261024776103492E-03
    0.44406683488922802381E-03
    0.27035828424711770774E-03
    0.33747353276752310421E-03
    0.22152257223309314250E-03
    0.27417304139475232342E-03
    0.50893325307361028664E-03
    0.70819828997652754278E-03
    0.63375777996483911771E-03
    0.55971062719999565421E-03
    0.19243838142100962597E-02
    0.15151713195735692658E-02
    0.19212242289017580302E-02
    0.14552713482804242005E-02
    0.90356842051827796110E-03
    0.54924850822347329876E-03
    0.35910647932194133701E-03
    0.49126516301831342753E-03
    0.35680144551010977523E-03
    0.46845636578839974827E-03
    0.83408533912700591733E-03
    0.12323500489003060086E-02
    0.94495631572389402007E-03
    0.80685191480676715300E-03
    0.56472928325726237691E-07
    0.96957663913742994554E-07
    0.18666516940254681167E-06
    0.25357142259898547323E-06
    0.13610992291628638830E-06
    0.13586903701961006915E-06
    0.50999569432925426443E-07
    0.42469043607146643939E-07
    0.44488580480194426632E-08
    0.24547748938947455244E-07
    0.19882636124439446493E-07
    0.39007482815364358621E-07
    0.49128967980441406187E-07
    0.54435585410531400905E-07
    0.87989713926165994761E-06
    0.14391361243508934336E-05
    0.29090844166048234841E-05
    0.36049221415961072192E-05
    0.20451095860389037542E-05
    0.21348600538515594123E-05
    0.98388369898715439221E-06
    0.69592705304755186284E-06
    0.27080332075058103003E-06
    0.22532366665563380173E-06
    0.48152818217414141834E-06
    0.40442424254013475212E-06
    0.93203492744655459935E-06
    0.10484491088980326306E-05
    0.16066833669387032656E-06
    0.26994408392023933975E-06
    0.52405967660600012503E-06
    0.73560497013899008496E-06
    0.44173158865776265650E-06
    0.52737052448762621205E-06
    0.24144388388214953072E-06
    0.16259560914980115826E-06
    0.63498884973907505514E-07
    0.79065707217794124740E-07
    0.98498255480999939272E-07
    0.11369711137778817698E-06
    0.18151933351094437156E-06
    0.21130699740762954007E-06
    0.22683983494424434280E-05
    0.38934537774241945328E-05
    0.76046203273298402871E-05
    0.99998982961014833642E-05
    0.61866174545533049846E-05
    0.71896870362970416918E-05
    0.35634921164148073286E-05
    0.23765010892891449254E-05
    0.10365004029159243862E-05
    0.80507493288119594907E-06
    0.14749130361710184054E-05
    0.11508883666285352989E-05
    0.28058425985255530648E-05
    0.32588092811516452963E-05
    0.10598416313029011962E-04
    0.15666374124768947724E-04
    0.29653834543037234085E-04
    0.34479627508122876129E-04
    0.20094405861042156220E-04
    0.19743356319347797004E-04
    0.97809662353753334827E-05
    0.75460055639753383246E-05
    0.34862845232709648371E-05
    0.30466799041264543271E-05
    0.58606668772982526647E-05
    0.53580916977102780480E-05
    0.10458419484635530147E-04
    0.11328204447286962855E-04
    0.91466638816705718635E-04
    0.12368642967448983017E-03
    0.22075206539511386082E-03
    0.24046498909197400770E-03
    0.14227054806721628998E-03
    0.12932276095098396641E-03
    0.67554904122117800718E-04
    0.57032397335827331630E-04
    0.28666291259285362896E-04
    0.26645118789454807920E-04
    0.49643708172961433195E-04
    0.48553687178756213766E-04
    0.82672017993892140124E-04
    0.86391006760859850280E-04
    0.27384169075411973169E-04
    0.43199412891415885953E-04
    0.79437001294019787606E-04
    0.98814608780710243155E-04
    0.62696184174178604446E-04
    0.68969071926711517919E-04
    0.36228535189531580233E-04
    0.25985317032330010811E-04
    0.12507197646028306583E-04
    0.10231685772220682859E-04
    0.17793492022756796881E-04
    0.14814186413414289029E-04
    0.31638628238990517717E-04
    0.35590495418784233190E-04
    0.24531953979304237752E-03
    0.35782286332720431238E-03
    0.62018593052659554132E-03
    0.72982220325305455742E-03
    0.47370212916346231399E-03
    0.49039224543102433000E-03
    0.27119797167178647402E-03
    0.20959848842196576258E-03
    0.10863538450108339004E-03
    0.93754954131941380504E-04
    0.15810531092301928317E-03
    0.13932648295508437224E-03
    0.26384714433569980132E-03
    0.28791980913455675253E-03
    0.28834255874477718561E-06
    0.50086465236087461548E-06
    0.95381365426066725179E-06
    0.14051189718541058820E-05
    0.92402331744718919184E-06
    0.12289621220796916483E-05
    0.61051864068878599716E-06
    0.37929317187143783783E-06
    0.17501001774263040471E-06
    0.17480749951271123513E-06
    0.21960974959092391495E-06
    0.21529813250984083292E-06
    0.38359275002579800856E-06
    0.46227676443813763381E-06
    0.39996311887117946642E-05
    0.72379509836207995028E-05
    0.13697475886718965505E-04
    0.19064334259595553550E-04
    0.12865111146257238251E-04
    0.16479754742422811429E-04
    0.87022092919771450598E-05
    0.54795688917819155274E-05
    0.25207229792704884199E-05
    0.18468555043400240173E-05
    0.30394867781299911554E-05
    0.21831138797688602313E-05
    0.57275209866620031604E-05
    0.68731726911911565330E-05
    0.35365315169614905151E-06
    0.64375860392266986942E-06
    0.11918833820999107543E-05
    0.18492196377244120023E-05
    0.13319346670553715809E-05
    0.19436128745456973973E-05
    0.10324795983509526059E-05
    0.60476574133348464412E-06
    0.29881631491831245849E-06
    0.27096146158923454383E-06
    0.31868179518526420291E-06
    0.28132970885934567440E-06
    0.54570543916634589495E-06
    0.67961037731899004025E-06
    0.48959863657678554755E-05
    0.93431647097583159429E-05
    0.17118226049640104287E-04
    0.25165846649334028945E-04
    0.18598157501634747827E-04
    0.26109787254858518726E-04
    0.14696732085823833205E-04
    0.87616468100725376501E-05
    0.42025606713109546475E-05
    0.29125499909338626465E-05
    0.43403332242001657477E-05
    0.28619830367952976146E-05
    0.81079304546644461566E-05
    0.10052198118240643997E-04
    0.48712751563191933725E-04
    0.81569330910266871107E-04
    0.14537575835342996227E-03
    0.19204290660190868716E-03
    0.13316385772092035624E-03
    0.16228630947489748842E-03
    0.90767939898818842987E-04
    0.61015741619537988314E-04
    0.30508906344942815817E-04
    0.23484353654246161119E-04
    0.37040070512801080813E-04
    0.28168548186618825170E-04
    0.65466684222062945645E-04
    0.76280622772017394966E-04
    0.44407338348146513114E-03
    0.68933333185511194794E-03
    0.11526410197273378577E-02
    0.14399782634601542616E-02
    0.10308139309853549953E-02
    0.11916237846328076727E-02
    0.70820423424433403756E-03
    0.50893402702778132909E-03
    0.27416602191214029189E-03
    0.22152956394149944143E-03
    0.33747313662498918058E-03
    0.27035288937036849139E-03
    0.55971016579977781683E-03