# vtk DataFile Version 3.0
LAPLACIEN  2D
ASCII
DATASET UNSTRUCTURED_GRID
 POINTS        1857  float
   3.1250000000000000E-002  0.93750000000000000        0.0000000000000000     
   6.2500000000000000E-002  0.93750000000000000        0.0000000000000000     
   6.2500000000000000E-002  0.96875000000000000        0.0000000000000000     
   1.8749999999999999E-002  0.95625000000000004        0.0000000000000000     
   4.0625000000000001E-002  0.95937499999999998        0.0000000000000000     
   4.3749999999999997E-002  0.98124999999999996        0.0000000000000000     
   2.1874999999999999E-002  0.97812500000000002        0.0000000000000000     
   9.3750000000000000E-002  0.93750000000000000        0.0000000000000000     
  0.12500000000000000       0.93750000000000000        0.0000000000000000     
  0.12500000000000000       0.96875000000000000        0.0000000000000000     
   8.1250000000000003E-002  0.95625000000000004        0.0000000000000000     
  0.10312499999999999       0.95937499999999998        0.0000000000000000     
  0.10625000000000000       0.98124999999999996        0.0000000000000000     
   8.4375000000000006E-002  0.97812500000000002        0.0000000000000000     
   3.1250000000000000E-002  0.87500000000000000        0.0000000000000000     
   6.2500000000000000E-002  0.87500000000000000        0.0000000000000000     
   6.2500000000000000E-002  0.90625000000000000        0.0000000000000000     
   1.8749999999999999E-002  0.89375000000000004        0.0000000000000000     
   4.0625000000000001E-002  0.89687499999999998        0.0000000000000000     
   4.3749999999999997E-002  0.91874999999999996        0.0000000000000000     
   2.1874999999999999E-002  0.91562500000000002        0.0000000000000000     
   9.3750000000000000E-002  0.87500000000000000        0.0000000000000000     
  0.12500000000000000       0.87500000000000000        0.0000000000000000     
  0.12500000000000000       0.90625000000000000        0.0000000000000000     
   8.1250000000000003E-002  0.89375000000000004        0.0000000000000000     
  0.10312499999999999       0.89687499999999998        0.0000000000000000     
  0.10625000000000000       0.91874999999999996        0.0000000000000000     
   8.4375000000000006E-002  0.91562500000000002        0.0000000000000000     
  0.15625000000000000       0.93750000000000000        0.0000000000000000     
  0.18750000000000000       0.93750000000000000        0.0000000000000000     
  0.18750000000000000       0.96875000000000000        0.0000000000000000     
  0.14374999999999999       0.95625000000000004        0.0000000000000000     
  0.16562499999999999       0.95937499999999998        0.0000000000000000     
  0.16875000000000001       0.98124999999999996        0.0000000000000000     
  0.14687500000000001       0.97812500000000002        0.0000000000000000     
  0.21875000000000000       0.93750000000000000        0.0000000000000000     
  0.25000000000000000       0.93750000000000000        0.0000000000000000     
  0.25000000000000000       0.96875000000000000        0.0000000000000000     
  0.20624999999999999       0.95625000000000004        0.0000000000000000     
  0.22812499999999999       0.95937499999999998        0.0000000000000000     
  0.23125000000000001       0.98124999999999996        0.0000000000000000     
  0.20937500000000001       0.97812500000000002        0.0000000000000000     
  0.15625000000000000       0.87500000000000000        0.0000000000000000     
  0.18750000000000000       0.87500000000000000        0.0000000000000000     
  0.18750000000000000       0.90625000000000000        0.0000000000000000     
  0.14374999999999999       0.89375000000000004        0.0000000000000000     
  0.16562499999999999       0.89687499999999998        0.0000000000000000     
  0.16875000000000001       0.91874999999999996        0.0000000000000000     
  0.14687500000000001       0.91562500000000002        0.0000000000000000     
  0.21875000000000000       0.87500000000000000        0.0000000000000000     
  0.25000000000000000       0.87500000000000000        0.0000000000000000     
  0.25000000000000000       0.90625000000000000        0.0000000000000000     
  0.20624999999999999       0.89375000000000004        0.0000000000000000     
  0.22812499999999999       0.89687499999999998        0.0000000000000000     
  0.23125000000000001       0.91874999999999996        0.0000000000000000     
  0.20937500000000001       0.91562500000000002        0.0000000000000000     
   3.1250000000000000E-002  0.81250000000000000        0.0000000000000000     
   6.2500000000000000E-002  0.81250000000000000        0.0000000000000000     
   6.2500000000000000E-002  0.84375000000000000        0.0000000000000000     
   1.8749999999999999E-002  0.83125000000000004        0.0000000000000000     
   4.0625000000000001E-002  0.83437499999999998        0.0000000000000000     
   4.3749999999999997E-002  0.85624999999999996        0.0000000000000000     
   2.1874999999999999E-002  0.85312500000000002        0.0000000000000000     
   9.3750000000000000E-002  0.81250000000000000        0.0000000000000000     
  0.12500000000000000       0.81250000000000000        0.0000000000000000     
  0.12500000000000000       0.84375000000000000        0.0000000000000000     
   8.1250000000000003E-002  0.83125000000000004        0.0000000000000000     
  0.10312499999999999       0.83437499999999998        0.0000000000000000     
  0.10625000000000000       0.85624999999999996        0.0000000000000000     
   8.4375000000000006E-002  0.85312500000000002        0.0000000000000000     
   3.1250000000000000E-002  0.75000000000000000        0.0000000000000000     
   6.2500000000000000E-002  0.75000000000000000        0.0000000000000000     
   6.2500000000000000E-002  0.78125000000000000        0.0000000000000000     
   1.8749999999999999E-002  0.76875000000000004        0.0000000000000000     
   4.0625000000000001E-002  0.77187499999999998        0.0000000000000000     
   4.3749999999999997E-002  0.79374999999999996        0.0000000000000000     
   2.1874999999999999E-002  0.79062500000000002        0.0000000000000000     
   9.3750000000000000E-002  0.75000000000000000        0.0000000000000000     
  0.12500000000000000       0.75000000000000000        0.0000000000000000     
  0.12500000000000000       0.78125000000000000        0.0000000000000000     
   8.1250000000000003E-002  0.76875000000000004        0.0000000000000000     
  0.10312499999999999       0.77187499999999998        0.0000000000000000     
  0.10625000000000000       0.79374999999999996        0.0000000000000000     
   8.4375000000000006E-002  0.79062500000000002        0.0000000000000000     
  0.15625000000000000       0.81250000000000000        0.0000000000000000     
  0.18750000000000000       0.81250000000000000        0.0000000000000000     
  0.18750000000000000       0.84375000000000000        0.0000000000000000     
  0.14374999999999999       0.83125000000000004        0.0000000000000000     
  0.16562499999999999       0.83437499999999998        0.0000000000000000     
  0.16875000000000001       0.85624999999999996        0.0000000000000000     
  0.14687500000000001       0.85312500000000002        0.0000000000000000     
  0.21875000000000000       0.81250000000000000        0.0000000000000000     
  0.25000000000000000       0.81250000000000000        0.0000000000000000     
  0.25000000000000000       0.84375000000000000        0.0000000000000000     
  0.20624999999999999       0.83125000000000004        0.0000000000000000     
  0.22812499999999999       0.83437499999999998        0.0000000000000000     
  0.23125000000000001       0.85624999999999996        0.0000000000000000     
  0.20937500000000001       0.85312500000000002        0.0000000000000000     
  0.15625000000000000       0.75000000000000000        0.0000000000000000     
  0.18750000000000000       0.75000000000000000        0.0000000000000000     
  0.18750000000000000       0.78125000000000000        0.0000000000000000     
  0.14374999999999999       0.76875000000000004        0.0000000000000000     
  0.16562499999999999       0.77187499999999998        0.0000000000000000     
  0.16875000000000001       0.79374999999999996        0.0000000000000000     
  0.14687500000000001       0.79062500000000002        0.0000000000000000     
  0.21875000000000000       0.75000000000000000        0.0000000000000000     
  0.25000000000000000       0.75000000000000000        0.0000000000000000     
  0.25000000000000000       0.78125000000000000        0.0000000000000000     
  0.20624999999999999       0.76875000000000004        0.0000000000000000     
  0.22812499999999999       0.77187499999999998        0.0000000000000000     
  0.23125000000000001       0.79374999999999996        0.0000000000000000     
  0.20937500000000001       0.79062500000000002        0.0000000000000000     
  0.28125000000000000       0.93750000000000000        0.0000000000000000     
  0.31250000000000000       0.93750000000000000        0.0000000000000000     
  0.31250000000000000       0.96875000000000000        0.0000000000000000     
  0.26874999999999999       0.95625000000000004        0.0000000000000000     
  0.29062500000000002       0.95937499999999998        0.0000000000000000     
  0.29375000000000001       0.98124999999999996        0.0000000000000000     
  0.27187499999999998       0.97812500000000002        0.0000000000000000     
  0.34375000000000000       0.93750000000000000        0.0000000000000000     
  0.37500000000000000       0.93750000000000000        0.0000000000000000     
  0.37500000000000000       0.96875000000000000        0.0000000000000000     
  0.33124999999999999       0.95625000000000004        0.0000000000000000     
  0.35312500000000002       0.95937499999999998        0.0000000000000000     
  0.35625000000000001       0.98124999999999996        0.0000000000000000     
[...]
 CELL_DATA        3584
 SCALARS VEGF float
 LOOKUP_TABLE default
    0.77964573556127908704E-07
    0.90591782842540415026E-07
    0.59587328150289282287E-07
    0.64827479427216200286E-07
    0.91010331601738242798E-07
    0.72459922210286368127E-07
    0.91834350657918468069E-07
    0.87858284872700496835E-07
    0.10782712714367042055E-06
    0.11014772145952160268E-06
    0.87750378539701438255E-07
    0.89644623985948258371E-07
    0.87049917633548674310E-07
    0.87928698739039895103E-07
    0.50812579769822480755E-07
    0.60568497607604890025E-07
    0.45705708990034613368E-07
    0.56999178360201836375E-07
    0.76947609386727919943E-07
    0.64978288814727958070E-07
    0.75599898026928701957E-07
    0.56379087542244442670E-07
    0.82938881708438204499E-07
    0.75042719836021947877E-07
    0.77396770413057020562E-07
    0.54920261504751325852E-07
    0.54336667560767199448E-07
    0.59130608680942792228E-07
    0.70624877067344707024E-07
    0.77350293210452328937E-07
    0.53087825054025911163E-07
    0.53173775208912855907E-07
    0.61369458811259138290E-07
    0.44510128107107667535E-07
    0.62616179564288687949E-07
    0.77122000810405727872E-07
    0.66459837397311529327E-07
    0.81165502055339660553E-07
    0.54847313267240302948E-07
    0.73009930020812526766E-07
    0.58964072513951409597E-07
    0.56439625314011469278E-07
    0.45581334562896542749E-07
    0.49659232252054706977E-07
    0.39868576077262588424E-07
    0.45903225226204059228E-07
    0.49109374251279318432E-07
    0.38136744413670486969E-07
    0.48889694983307099938E-07
    0.49954103736562938315E-07
    0.41880726256453056848E-07
    0.49896786439212064947E-07
    0.49196721952812811410E-07
    0.43196799946721960530E-07
    0.30750158132112633526E-07
    0.31647676193806527429E-07
    0.49716186167734777717E-07
    0.60280225293102718387E-07
    0.45660632948641507055E-07
    0.56986954154245901997E-07
    0.76910272816801202334E-07
    0.64967162243375800288E-07
    0.75549639557403767708E-07
    0.56092181856521746235E-07
    0.81740210258852815541E-07
    0.71719992523511803817E-07
    0.75725570517600235891E-07
    0.51072239313886325146E-07
    0.53955724897258587986E-07
    0.58945431811213701850E-07
    0.49715702341875418991E-07
    0.60280148616584096633E-07
    0.45660617386255700789E-07
    0.56986944132403096239E-07
    0.76910252285706799940E-07
    0.64967112907209262780E-07
    0.75549610060359474810E-07
    0.56092105608421417479E-07
    0.81739703455927961717E-07
    0.71717306706589595111E-07
    0.75724749106616567308E-07
    0.51068871792701051972E-07
    0.53955614061799384449E-07
    0.58945391817716182364E-07
    0.44537881764528996703E-07
    0.49388164616382981842E-07
    0.39825719541439978846E-07
    0.45891807844600896905E-07
    0.49075944319418808645E-07
    0.38126950673523831633E-07
    0.48845729201718231955E-07
    0.49704491503424106627E-07
    0.40837503202467167350E-07
    0.47060390370413395154E-07
    0.47700144585320045597E-07
    0.39610700435558211766E-07
    0.30406877817424698233E-07
    0.31482174894102163953E-07
    0.44537421491398027115E-07
    0.49388094820969580136E-07
    0.39825704758991489412E-07
    0.45891796542837527871E-07
    0.49075928677721681167E-07
    0.38126912782124408464E-07
    0.48845706597137090068E-07
    0.49704426485751977616E-07
    0.40837049277668844382E-07
    0.47058026421286856524E-07
    0.47699396886554064950E-07
    0.39607550532395414002E-07
    0.30406779484962474955E-07
    0.31482139914111119110E-07
    0.70615216138818234622E-07
    0.77321159097303070997E-07
    0.53080281122406335686E-07
    0.53146246342556168429E-07
    0.61170837354495811890E-07
    0.43726679091329162288E-07
    0.59578875195753314545E-07
    0.75708725182374030117E-07
    0.63249667307140708178E-07
    0.80011944325171631307E-07
    0.54577616758172015230E-07
    0.72962869016017714841E-07
    0.58813457504056874769E-07
    0.56134940388773617479E-07
    0.45576511798728429810E-07
    0.49641943673827931645E-07
    0.39863290652642503092E-07
    0.45880428603627708635E-07
    0.48944459159300032668E-07
    0.37427822716401328023E-07
    0.46200741188929538920E-07
    0.48901143026449700484E-07
    0.39704921695704683057E-07
    0.49161457534575571777E-07
    0.49037803852919447896E-07
    0.43171448580610764661E-07
    0.30653086810412408399E-07
    0.31430963639477975909E-07
    0.70615215688224579361E-07
    0.77321157022574217246E-07
    0.53080280398157180119E-07
    0.53146242400615484658E-07
    0.61170800310141684127E-07
    0.43726444686196775974E-07
    0.59576951878815653978E-07
    0.75708177016329007398E-07
    0.63247370594036636097E-07
    0.80011513419451915552E-07
    0.54577556756266582254E-07
    0.72962861998412427277E-07
    0.58813431783969769746E-07
    0.56134871218640777851E-07
    0.45576512203136237194E-07
    0.49641943050845217751E-07
    0.39863290839774686333E-07
    0.45880427720652440276E-07
    0.48944440162343538414E-07
    0.37427677710680570168E-07
    0.46199482938325354709E-07
    0.48900880220863348397E-07
    0.39703906322680601815E-07
    0.49161284286023991694E-07
    0.49037784600745878289E-07
    0.43171447008729491908E-07
    0.30653079044919446231E-07
    0.31430936231935578839E-07
    0.44533345384636946594E-07
    0.49371092479048061571E-07
    0.39820454462446969161E-07
    0.45869027721024253637E-07
    0.48911194402220870221E-07
    0.37418184997509386336E-07
    0.46157842996598959272E-07
    0.48655590059929001183E-07
    0.38682930388879172759E-07
    0.46352434220318546782E-07
    0.47546776679998013914E-07
    0.39587404335777722640E-07
    0.30310873692063672203E-07
    0.31266353835117609269E-07
    0.44532883845978376242E-07
    0.49371016765237573862E-07
    0.39820438573044916252E-07
    0.45869014903640737964E-07
    0.48911172578302965638E-07
    0.37418144992466682047E-07
    0.46157827274694468839E-07
    0.48655524226378048180E-07
    0.38682486877007217773E-07
    0.46350108271546245474E-07
    0.47546035946496666861E-07
    0.39584257161729914786E-07
    0.30310772356542630017E-07
    0.31266318192196830444E-07
    0.44533345431477339182E-07
    0.49371091894664850842E-07
    0.39820454669307012964E-07
    0.45869025519660943481E-07
    0.48911176592899501882E-07
    0.37418037378649184567E-07
    0.46156592496807412173E-07
    0.48655341701963282732E-07
    0.38681984405319297634E-07
    0.46352288636705881363E-07
    0.47546762304777190572E-07
    0.39587402993103949226E-07
    0.30310869873290651480E-07
    0.31266329406526427872E-07
    0.44532798404776863211E-07
    0.49370752514425104794E-07
    0.39818799166604941482E-07
    0.45867355656599837286E-07
    0.48910888642530643875E-07
    0.37417908990493992815E-07
    0.46156563950284460913E-07
    0.48655267695502376371E-07
    0.38681537365249490641E-07
    0.46349963963594136706E-07
    0.47546013382516626551E-07
    0.39584246266371405362E-07
    0.30310723078704005485E-07
    0.31266247505980113491E-07
    0.49715681616046275903E-07
    0.60280128942358096909E-07
    0.45660582271671332385E-07
    0.56986867701514771384E-07
    0.76910224363532112034E-07
    0.64967103782081764456E-07
    0.75549601843284237583E-07
    0.56092088470839316201E-07
    0.81739660256488326415E-07
    0.71717225655087964321E-07
    0.75724719443649306479E-07
    0.51068858346138266852E-07
    0.53955598301877547331E-07
    0.58945375548940612438E-07
    0.49715666313267954983E-07
    0.60280123542559229117E-07
    0.45660581366513065231E-07
    0.56986867053603123463E-07
    0.76910223308171252583E-07
    0.64967103443168926834E-07
    0.75549601047913470908E-07
    0.56092086903966430151E-07
    0.81739656899227553133E-07
    0.71717219523805260504E-07
    0.75724702896348240168E-07
    0.51068815545007973767E-07
    0.53955592805856577146E-07
    0.58945372792844771038E-07
    0.44537399087913922000E-07
    0.49388074507139770604E-07
    0.39825670407460794801E-07
    0.45891722431439092721E-07
    0.49075900119200753054E-07
    0.38126899540462678464E-07
    0.48845682185676382407E-07
    0.49704407499392150081E-07
    0.40837020419953518953E-07
    0.47057956976753498173E-07
    0.47699369076349198354E-07
    0.39607533831985214776E-07
    0.30406761953972936858E-07
    0.31482123409015507569E-07
    0.44537383607202089767E-07
    0.49388069426406527635E-07
    0.39825669675064863112E-07
    0.45891721989078293304E-07
    0.49075898922023086305E-07
    0.38126899277001153504E-07
    0.48845681299649849909E-07
    0.49704403508051221042E-07
    0.40837011155947034609E-07
    0.47057947537676665785E-07
    0.47699355508297324643E-07
    0.39607495629388348475E-07
    0.30406756249209954628E-07
    0.31482120426134786939E-07
    0.49715666150420748971E-07
    0.60280123726872804346E-07
    0.45660581620867225768E-07
    0.56986867372358151892E-07
    0.76910223531732522940E-07
    0.64967103449023353867E-07
    0.75549601067214122463E-07
    0.56092086891389830534E-07
    0.81739656815528389497E-07
    0.71717219487591213878E-07
    0.75724702996964848752E-07
    0.51068815233191878947E-07
    0.53955592749696281040E-07
    0.58945372971515584827E-07
    0.49715666508641014411E-07
    0.60280123828573668042E-07
    0.45660581772957927296E-07
    0.56986867268582970682E-07
    0.76910223603340291254E-07
    0.64967102595458525275E-07
    0.75549600132921561518E-07
    0.56092086618387736737E-07
    0.81739656814444266734E-07
    0.71717219459404710250E-07
    0.75724702966825245967E-07
    0.51068815371096638110E-07
    0.53955592934229542205E-07
    0.58945372940729285621E-07
    0.44537383536295386800E-07
    0.49388069503384895116E-07
    0.39825669450851430325E-07
    0.45891721940075928528E-07
    0.49075898870414798196E-07
    0.38126899361570762607E-07
    0.48845681724223089782E-07
    0.49704403729662211273E-07
    0.40837011218397251798E-07
    0.47057947331245061835E-07
    0.47699355763735978521E-07
    0.39607495411029117729E-07
    0.30406756556906240011E-07
    0.31482120387103548434E-07
    0.44537383445205820995E-07
    0.49388069416204267248E-07
    0.39825670108615474321E-07
    0.45891723086476133995E-07
    0.49075899852792929866E-07
    0.38126900381726835039E-07
    0.48845682215859316221E-07
    0.49704403820518803313E-07
    0.40837011299711938278E-07
    0.47057947449857044203E-07
    0.47699355432620926211E-07
    0.39607495479325688669E-07
    0.30406756360453332689E-07
    0.31482120752912090881E-07
    0.44532835883670592557E-07
    0.49370987492403762371E-07
    0.39820312570708329084E-07
    0.45868925892850366805E-07
    0.48911148586203194582E-07
    0.37418127424660850280E-07
    0.46157799776145468870E-07
    0.48655502895801334863E-07
    0.38682455870991828054E-07
    0.46350035135718999941E-07
    0.47546006984121076966E-07
    0.39584239704337997449E-07
    0.30310753514730212394E-07
    0.31266300092580833347E-07
    0.44532540418641883134E-07
    0.49370912262775267058E-07
    0.39820096627640977592E-07
    0.45868888441470094000E-07
    0.48911140591948245936E-07
    0.37418126675686432405E-07
    0.46157798924609892992E-07
    0.48655498820998239359E-07
    0.38682446219124999931E-07
    0.46350022567773392787E-07
    0.47545985492173635326E-07
    0.39584166233227840902E-07
    0.30310738848734664667E-07
    0.31266293874071490568E-07
    0.44500261414413425687E-07
    0.49335053360251706949E-07
    0.39678255781071201024E-07
    0.45805816974566152860E-07
    0.48898259100498730737E-07
    0.37415383130976268731E-07
    0.46156133146841425823E-07
    0.48654481584246181228E-07
    0.38681396638055759075E-07
    0.46349651677920734226E-07
    0.47543888871546407779E-07
    0.39578864653850456876E-07
    0.30303789887743527985E-07
    0.31262076061506771402E-07
    0.44059245096973506319E-07
    0.49159770210082981946E-07
    0.39337082014093923282E-07
    0.45704283123561140672E-07
    0.48873955860881797285E-07
    0.37411699535686066764E-07
    0.46155234935501687753E-07
    0.48650980194066468353E-07
    0.38680351608201329526E-07
    0.46345975294608202469E-07
    0.47517519957538670058E-07
    0.39478995044062138487E-07
    0.30265657784645815174E-07
    0.31244401387616852082E-07
    0.44532407798393680388E-07
    0.49370892834093213194E-07
    0.39820074362253861796E-07
    0.45868883853561054413E-07
    0.48911139443996018030E-07
    0.37418126809911495157E-07
    0.46157799054931933802E-07
    0.48655498938742370298E-07
    0.38682446103550014491E-07
    0.46350022233188152372E-07
    0.47545982214197117905E-07
    0.39584144468958552331E-07
    0.30310735364544197677E-07
    0.31266293050078130647E-07
    0.44532406184241532804E-07
    0.49370892730000262280E-07
    0.39820073687953034753E-07
    0.45868882152556543933E-07
    0.48911139287738119543E-07
    0.37418126574102082061E-07
    0.46157799278377782685E-07
    0.48655499160570650949E-07
    0.38682446140626314188E-07
    0.46350022360258618986E-07
    0.47545982475273371617E-07
    0.39584142900766366143E-07
    0.30310735321611843054E-07
    0.31266293096915452740E-07
    0.43890337967290340250E-07
    0.49121715604843933338E-07
    0.39320604416146887966E-07
    0.45700762909731679582E-07
    0.48872801586293689948E-07
    0.37411569588011379762E-07
    0.46155153421515336289E-07
    0.48650345134891144649E-07
    0.38679853394324822200E-07
    0.46343524083429517721E-07
    0.47503954207479408486E-07
    0.39413565851077663640E-07
    0.30256811017302017946E-07
    0.31241159274615343506E-07
    0.43892514123955508198E-07
    0.49122116767426519750E-07
    0.39323420080756461013E-07
    0.45701068324205991743E-07
    0.48872826049257633780E-07
    0.37411567520542571132E-07
    0.46155152350409563717E-07
    0.48650343809561151688E-07
    0.38679846665751965188E-07
    0.46343485726743885197E-07
    0.47503807225228159487E-07
    0.39412651880152611996E-07
    0.30256819286471680636E-07
    0.31241159987800131200E-07
    0.70615215687790845552E-07
    0.77321156807902187093E-07
    0.53080280233141582997E-07
    0.53146242178137185629E-07
    0.61170800213213956967E-07
    0.43726444484318027055E-07
    0.59576951469421945969E-07
    0.75708177008739512781E-07
    0.63247370607481404780E-07
    0.80011513335317482860E-07
    0.54577556879865775501E-07
    0.72962862004917587372E-07
    0.58813431868320579651E-07
    0.56134871178742402602E-07
    0.45576511785501242715E-07
    0.49641942801912769525E-07
    0.39863290499117701993E-07
    0.45880427535688939313E-07
    0.48944440127866279906E-07
    0.37427678107280401374E-07
    0.46199483311073426335E-07
    0.48900880455702160997E-07
    0.39703906531064338776E-07
    0.49161284129898905325E-07
    0.49037784546752226287E-07
    0.43171446886648578749E-07
    0.30653079055111846625E-07
    0.31430936306095033907E-07
    0.70615215687790845552E-07
    0.77321156872303690260E-07
    0.53080280357825229879E-07
    0.53146242183991890596E-07
    0.61170800213213956967E-07
    0.43726444477379305205E-07
    0.59576951324572668074E-07
    0.75708176788213240884E-07
    0.63247370522913635326E-07
    0.80011513355917350607E-07
    0.54577556879865775501E-07
    0.72962862004917587372E-07
    0.58813431875476353694E-07
    0.56134871185464376662E-07
    0.45576512001691380902E-07
    0.49641942953267273690E-07
    0.39863290428210946087E-07
    0.45880427390622979802E-07
    0.48944440337551787393E-07
    0.37427677943783401977E-07
    0.46199483176632502530E-07
    0.48900880415152973276E-07
    0.39703906387298971886E-07
    0.49161284116237706489E-07
    0.49037784678157992814E-07
    0.43171446864097107387E-07
    0.30653079070290306463E-07
    0.31430936590156029568E-07
    0.44533344751248790285E-07
    0.49371088687161686391E-07
    0.39820434039987202465E-07
    0.45868934180620522292E-07
    0.48911162369032137148E-07
    0.37418008708956611496E-07
    0.46156588967089102939E-07
    0.48655341345911170174E-07
    0.38681984561661647953E-07
    0.46352288924885654140E-07
    0.47546762245146574011E-07
    0.39587402719449745938E-07
    0.30310868704736477949E-07
    0.31266327796054790646E-07
    0.44530370608269832199E-07
    0.49358590557921101213E-07
    0.39759695259440903145E-07
    0.45732324614154214755E-07
    0.48876378207856844523E-07
    0.37385858636352410107E-07
    0.46151267612623954122E-07
    0.48653217400294759643E-07
    0.38681306194139659364E-07
    0.46349852343854712980E-07
    0.47545266916778558630E-07
    0.39583852098734261256E-07
    0.30306694327075939039E-07
    0.31259539589118414701E-07
    0.44533344406256082517E-07
    0.49371084123538246072E-07
    0.39820400838673933472E-07
    0.45868726966544072296E-07
    0.48911098502154130843E-07
    0.37417732895335714317E-07
    0.46156553959921462586E-07
    0.48655336450956472386E-07
    0.38681983922197790488E-07
    0.46352288786325609113E-07
    0.47546761853965887548E-07
    0.39587402612331213189E-07
    0.30310866330984082690E-07
    0.31266319607077264171E-07
    0.44526790136352536388E-07
    0.49335060029771551078E-07
    0.39661693303239654093E-07
    0.45404701570244856973E-07
    0.48708308094314598136E-07
    0.36966826054681648097E-07
    0.46055807179479525404E-07
    0.48627872384189821765E-07
    0.38677766745980714426E-07
    0.46348846476491473412E-07
    0.47541877620448834995E-07
    0.39582976209219689103E-07
    0.30289612939630890782E-07
    0.31222824422985825231E-07
    0.70615215459239757043E-07
    0.77321156806818302558E-07
    0.53080280193675975409E-07
    0.53146242170982033626E-07
    0.61170800290625886204E-07
    0.43726444784859610422E-07
    0.59576951579576727875E-07
    0.75708176787779771773E-07
    0.63247370497109676561E-07
    0.80011513335751507836E-07
    0.54577556880082536526E-07
    0.72962861998412427277E-07
    0.58813431913856938546E-07
    0.56134871333133003722E-07
    0.45576511758609693646E-07
    0.49641942863495479392E-07
    0.39863290571761418072E-07
    0.45880427360912333030E-07
    0.48944440373979961302E-07
    0.37427677932290197205E-07
    0.46199482934421446029E-07
    0.48900880403011245668E-07
    0.39703906608476294482E-07
    0.49161284351292459551E-07
    0.49037784573857929109E-07
    0.43171446911151124331E-07
    0.30653079005454037167E-07
    0.31430936297204695207E-07
    0.70615210103854095693E-07
    0.77321154997286835444E-07
    0.53080279379114578818E-07
    0.53146241825738703367E-07
    0.61170800163976805246E-07
    0.43726444502966582354E-07
    0.59576951554217090829E-07
    0.75708176962998224852E-07
    0.63247370563679372314E-07
    0.80011513224948136921E-07
    0.54577556252580954798E-07
    0.72962859381464524710E-07
    0.58813431277932447956E-07
    0.56134871066183595608E-07
    0.45576506593340061146E-07
    0.49641940404245921013E-07
    0.39863285912460279317E-07
    0.45880425893482597296E-07
    0.48944440152808448822E-07
    0.37427677975225847315E-07
    0.46199483162753880924E-07
    0.48900880441824505538E-07
    0.39703906283214120724E-07
    0.49161284115587926340E-07
    0.49037784392363041300E-07
    0.43171446229790297524E-07
    0.30653078705583264189E-07
    0.31430936347728582619E-07
    0.44533344249455169736E-07
    0.49371083415341820693E-07
    0.39820396948773504760E-07
    0.45868706928116172954E-07
    0.48911080599597318135E-07
    0.37417602852218631985E-07
    0.46156533643729615654E-07
    0.48655333269690762281E-07
    0.38681983546196721916E-07
    0.46352288747294039736E-07
    0.47546761907308488850E-07
    0.39587402864515685597E-07
    0.30310865348264901146E-07
    0.31266317025374700324E-07
    0.44526657682192320798E-07
    0.49333928243139100662E-07
    0.39658248660109607069E-07
    0.45388631904654357152E-07
    0.48671293043938421605E-07
    0.36802952247279569296E-07
    0.45992353524481261584E-07
    0.48614681002288705968E-07
    0.38675378843269211227E-07
    0.46348359042606436659E-07
    0.47541255242779879388E-07
    0.39582895326885135963E-07
    0.30286449734521353948E-07