# vtk DataFile Version 3.0
LAPLACIEN  2D
ASCII
DATASET UNSTRUCTURED_GRID
 POINTS        1857  float
   3.1250000000000000E-002  0.93750000000000000        0.0000000000000000     
   6.2500000000000000E-002  0.93750000000000000        0.0000000000000000     
   6.2500000000000000E-002  0.96875000000000000        0.0000000000000000     
   1.8749999999999999E-002  0.95625000000000004        0.0000000000000000     
   4.0625000000000001E-002  0.95937499999999998        0.0000000000000000     
   4.3749999999999997E-002  0.98124999999999996        0.0000000000000000     
   2.1874999999999999E-002  0.97812500000000002        0.0000000000000000     
   9.3750000000000000E-002  0.93750000000000000        0.0000000000000000     
  0.12500000000000000       0.93750000000000000        0.0000000000000000     
  0.12500000000000000       0.96875000000000000        0.0000000000000000     
   8.1250000000000003E-002  0.95625000000000004        0.0000000000000000     
  0.10312499999999999       0.95937499999999998        0.0000000000000000     
  0.10625000000000000       0.98124999999999996        0.0000000000000000     
   8.4375000000000006E-002  0.97812500000000002        0.0000000000000000     
   3.1250000000000000E-002  0.87500000000000000        0.0000000000000000     
   6.2500000000000000E-002  0.87500000000000000        0.0000000000000000     
   6.2500000000000000E-002  0.90625000000000000        0.0000000000000000     
   1.8749999999999999E-002  0.89375000000000004        0.0000000000000000     
   4.0625000000000001E-002  0.89687499999999998        0.0000000000000000     
   4.3749999999999997E-002  0.91874999999999996        0.0000000000000000     
   2.1874999999999999E-002  0.91562500000000002        0.0000000000000000     
   9.3750000000000000E-002  0.87500000000000000        0.0000000000000000     
  0.12500000000000000       0.87500000000000000        0.0000000000000000     
  0.12500000000000000       0.90625000000000000        0.0000000000000000     
   8.1250000000000003E-002  0.89375000000000004        0.0000000000000000     
  0.10312499999999999       0.89687499999999998        0.0000000000000000     
  0.10625000000000000       0.91874999999999996        0.0000000000000000     
   8.4375000000000006E-002  0.91562500000000002        0.0000000000000000     
  0.15625000000000000       0.93750000000000000        0.0000000000000000     
  0.18750000000000000       0.93750000000000000        0.0000000000000000     
  0.18750000000000000       0.96875000000000000        0.0000000000000000     
  0.14374999999999999       0.95625000000000004        0.0000000000000000     
  0.16562499999999999       0.95937499999999998        0.0000000000000000     
  0.16875000000000001       0.98124999999999996        0.0000000000000000     
  0.14687500000000001       0.97812500000000002        0.0000000000000000     
  0.21875000000000000       0.93750000000000000        0.0000000000000000     
  0.25000000000000000       0.93750000000000000        0.0000000000000000     
  0.25000000000000000       0.96875000000000000        0.0000000000000000     
  0.20624999999999999       0.95625000000000004        0.0000000000000000     
  0.22812499999999999       0.95937499999999998        0.0000000000000000     
  0.23125000000000001       0.98124999999999996        0.0000000000000000     
  0.20937500000000001       0.97812500000000002        0.0000000000000000     
  0.15625000000000000       0.87500000000000000        0.0000000000000000     
  0.18750000000000000       0.87500000000000000        0.0000000000000000     
  0.18750000000000000       0.90625000000000000        0.0000000000000000     
  0.14374999999999999       0.89375000000000004        0.0000000000000000     
  0.16562499999999999       0.89687499999999998        0.0000000000000000     
  0.16875000000000001       0.91874999999999996        0.0000000000000000     
  0.14687500000000001       0.91562500000000002        0.0000000000000000     
  0.21875000000000000       0.87500000000000000        0.0000000000000000     
  0.25000000000000000       0.87500000000000000        0.0000000000000000     
  0.25000000000000000       0.90625000000000000        0.0000000000000000     
  0.20624999999999999       0.89375000000000004        0.0000000000000000     
  0.22812499999999999       0.89687499999999998        0.0000000000000000     
  0.23125000000000001       0.91874999999999996        0.0000000000000000     
  0.20937500000000001       0.91562500000000002        0.0000000000000000     
   3.1250000000000000E-002  0.81250000000000000        0.0000000000000000     
   6.2500000000000000E-002  0.81250000000000000        0.0000000000000000     
   6.2500000000000000E-002  0.84375000000000000        0.0000000000000000     
   1.8749999999999999E-002  0.83125000000000004        0.0000000000000000     
   4.0625000000000001E-002  0.83437499999999998        0.0000000000000000     
   4.3749999999999997E-002  0.85624999999999996        0.0000000000000000     
   2.1874999999999999E-002  0.85312500000000002        0.0000000000000000     
   9.3750000000000000E-002  0.81250000000000000        0.0000000000000000     
  0.12500000000000000       0.81250000000000000        0.0000000000000000     
  0.12500000000000000       0.84375000000000000        0.0000000000000000     
   8.1250000000000003E-002  0.83125000000000004        0.0000000000000000     
  0.10312499999999999       0.83437499999999998        0.0000000000000000     
  0.10625000000000000       0.85624999999999996        0.0000000000000000     
   8.4375000000000006E-002  0.85312500000000002        0.0000000000000000     
   3.1250000000000000E-002  0.75000000000000000        0.0000000000000000     
   6.2500000000000000E-002  0.75000000000000000        0.0000000000000000     
   6.2500000000000000E-002  0.78125000000000000        0.0000000000000000     
   1.8749999999999999E-002  0.76875000000000004        0.0000000000000000     
   4.0625000000000001E-002  0.77187499999999998        0.0000000000000000     
   4.3749999999999997E-002  0.79374999999999996        0.0000000000000000     
   2.1874999999999999E-002  0.79062500000000002        0.0000000000000000     
   9.3750000000000000E-002  0.75000000000000000        0.0000000000000000     
  0.12500000000000000       0.75000000000000000        0.0000000000000000     
  0.12500000000000000       0.78125000000000000        0.0000000000000000     
   8.1250000000000003E-002  0.76875000000000004        0.0000000000000000     
  0.10312499999999999       0.77187499999999998        0.0000000000000000     
  0.10625000000000000       0.79374999999999996        0.0000000000000000     
   8.4375000000000006E-002  0.79062500000000002        0.0000000000000000     
  0.15625000000000000       0.81250000000000000        0.0000000000000000     
  0.18750000000000000       0.81250000000000000        0.0000000000000000     
  0.18750000000000000       0.84375000000000000        0.0000000000000000     
  0.14374999999999999       0.83125000000000004        0.0000000000000000     
  0.16562499999999999       0.83437499999999998        0.0000000000000000     
  0.16875000000000001       0.85624999999999996        0.0000000000000000     
  0.14687500000000001       0.85312500000000002        0.0000000000000000     
  0.21875000000000000       0.81250000000000000        0.0000000000000000     
  0.25000000000000000       0.81250000000000000        0.0000000000000000     
  0.25000000000000000       0.84375000000000000        0.0000000000000000     
  0.20624999999999999       0.83125000000000004        0.0000000000000000     
  0.22812499999999999       0.83437499999999998        0.0000000000000000     
  0.23125000000000001       0.85624999999999996        0.0000000000000000     
  0.20937500000000001       0.85312500000000002        0.0000000000000000     
  0.15625000000000000       0.75000000000000000        0.0000000000000000     
  0.18750000000000000       0.75000000000000000        0.0000000000000000     
  0.18750000000000000       0.78125000000000000        0.0000000000000000     
  0.14374999999999999       0.76875000000000004        0.0000000000000000     
  0.16562499999999999       0.77187499999999998        0.0000000000000000     
  0.16875000000000001       0.79374999999999996        0.0000000000000000     
  0.14687500000000001       0.79062500000000002        0.0000000000000000     
  0.21875000000000000       0.75000000000000000        0.0000000000000000     
  0.25000000000000000       0.75000000000000000        0.0000000000000000     
  0.25000000000000000       0.78125000000000000        0.0000000000000000     
  0.20624999999999999       0.76875000000000004        0.0000000000000000     
  0.22812499999999999       0.77187499999999998        0.0000000000000000     
  0.23125000000000001       0.79374999999999996        0.0000000000000000     
  0.20937500000000001       0.79062500000000002        0.0000000000000000     
  0.28125000000000000       0.93750000000000000        0.0000000000000000     
  0.31250000000000000       0.93750000000000000        0.0000000000000000     
  0.31250000000000000       0.96875000000000000        0.0000000000000000     
  0.26874999999999999       0.95625000000000004        0.0000000000000000     
  0.29062500000000002       0.95937499999999998        0.0000000000000000     
  0.29375000000000001       0.98124999999999996        0.0000000000000000     
  0.27187499999999998       0.97812500000000002        0.0000000000000000     
  0.34375000000000000       0.93750000000000000        0.0000000000000000     
  0.37500000000000000       0.93750000000000000        0.0000000000000000     
  0.37500000000000000       0.96875000000000000        0.0000000000000000     
  0.33124999999999999       0.95625000000000004        0.0000000000000000     
  0.35312500000000002       0.95937499999999998        0.0000000000000000     
  0.35625000000000001       0.98124999999999996        0.0000000000000000     
[...]
 CELL_DATA        3584
 SCALARS VEGF float
 LOOKUP_TABLE default
   -0.18037493522593212349E-07
   -0.10570140375288700278E-07
   -0.35878498788544209179E-07
   -0.30493100595302662443E-07
   -0.94287442779106851766E-08
   -0.23049611703992921489E-07
   -0.63166080479638663491E-09
   -0.15203055918508454229E-07
   -0.82613829069407483984E-08
   -0.55236200392350806215E-08
   -0.16077148819659323770E-07
   -0.60701749848923934337E-08
   -0.15699303763394135835E-07
   -0.14671215088975294007E-07
   -0.43641935411615750474E-07
   -0.35236277268687854852E-07
   -0.52834875867397240070E-07
   -0.43305557978941194769E-07
   -0.23113301533584719108E-07
   -0.33208739589735627768E-07
   -0.13104199555100239481E-07
   -0.32239984643136556955E-07
   -0.12280606997975538031E-07
   -0.21460118466040183974E-07
   -0.19063409522615481784E-07
   -0.39063465875547910858E-07
   -0.38368789330778502200E-07
   -0.33384436236540365847E-07
   -0.27753488838021304647E-07
   -0.23752731380686737004E-07
   -0.48091065727518062017E-07
   -0.46540625536724897871E-07
   -0.34908910918464628219E-07
   -0.49660404358141695586E-07
   -0.32945738595593915326E-07
   -0.19181104677200288550E-07
   -0.26367743133681508211E-07
   -0.77794977617516775949E-08
   -0.32202932319248523127E-07
   -0.17921307128330471855E-07
   -0.33909005979530924089E-07
   -0.36955431944911247993E-07
   -0.56478678971140164023E-07
   -0.52356151256549730420E-07
   -0.67276338254908485614E-07
   -0.61603456531334965519E-07
   -0.52622137997514504859E-07
   -0.63089146982788403543E-07
   -0.50650514122713288090E-07
   -0.46441991912263371752E-07
   -0.52297801558578532922E-07
   -0.45090870487625665877E-07
   -0.46753949137205013923E-07
   -0.55803873384271191049E-07
   -0.63145961691170248453E-07
   -0.62382508296361090796E-07
   -0.51478211281964414298E-07
   -0.40560017671417185451E-07
   -0.56337080404589955048E-07
   -0.45978504328371160241E-07
   -0.26273538649091514376E-07
   -0.35587980180894421870E-07
   -0.16331066479149594610E-07
   -0.36947225819299092236E-07
   -0.18909035821552722515E-07
   -0.29737155730650180212E-07
   -0.26675433674919205457E-07
   -0.49317517868543388843E-07
   -0.43704051280882900086E-07
   -0.37984297624408564724E-07
   -0.52787293251106846874E-07
   -0.41352706026698960280E-07
   -0.56442097589185819300E-07
   -0.46063508432036503497E-07
   -0.26702813925374112235E-07
   -0.35921568261391896160E-07
   -0.16887311940653570737E-07
   -0.37848791304568020510E-07
   -0.20315732878489433492E-07
   -0.31574331016849376252E-07
   -0.28217290250382502734E-07
   -0.51369853567875946983E-07
   -0.44662664063985907514E-07
   -0.38796563133685181406E-07
   -0.64859558437398587089E-07
   -0.57851485109058415645E-07
   -0.69708021995353552765E-07
   -0.63282096326793240042E-07
   -0.55754160705610336724E-07
   -0.65467502674505538756E-07
   -0.54193943014314023457E-07
   -0.51924327966428326530E-07
   -0.60362744689681933287E-07
   -0.55626722859333734883E-07
   -0.55857223783821588349E-07
   -0.67708896308274273809E-07
   -0.69186475029045577818E-07
   -0.67553879555079637819E-07
   -0.59980159818835332420E-07
   -0.51879997166959869651E-07
   -0.53604328610250531630E-07
   -0.50411134024840879255E-07
   -0.51283896561378144394E-07
   -0.63105508383160778092E-07
   -0.53843877295201066539E-07
   -0.51869619173150483252E-07
   -0.61536780584425773882E-07
   -0.57230067265823332530E-07
   -0.56123847553193989562E-07
   -0.67860498011665781217E-07
   -0.67449886248182607540E-07
   -0.65962202261249587939E-07
   -0.30028061701476283235E-07
   -0.26773241737328877850E-07
   -0.50643781343322173243E-07
   -0.49885679608926057615E-07
   -0.39995354850081348173E-07
   -0.57145375809836273195E-07
   -0.42727228696797091641E-07
   -0.26452402812663718526E-07
   -0.34282596187171755820E-07
   -0.14118927107993222108E-07
   -0.36704600260296250513E-07
   -0.21007488071348239560E-07
   -0.38305960663970346563E-07
   -0.42054044361435537693E-07
   -0.58738178346221848637E-07
   -0.55330397585747361225E-07
   -0.68823498374660354569E-07
   -0.63867320333939875605E-07
   -0.57862409031736002067E-07
   -0.71106697417170332806E-07
   -0.62058528383581777002E-07
   -0.55153921875724722623E-07
   -0.62371173055938190182E-07
   -0.52798447157413252333E-07
   -0.51992415958184729851E-07
   -0.59186705918147247203E-07
   -0.68085359595833689132E-07
   -0.68155571215164934377E-07
   -0.30342115854669129515E-07
   -0.27175849341516278880E-07
   -0.50706556153876090919E-07
   -0.49961050184195621814E-07
   -0.40741742942732641033E-07
   -0.58385324814681735236E-07
   -0.44685101152435042135E-07
   -0.27923580087512655742E-07
   -0.36038251599924748701E-07
   -0.15462665124184459904E-07
   -0.37563915973399430992E-07
   -0.21536221849113243017E-07
   -0.39077850648788240419E-07
   -0.42965323444491591845E-07
   -0.56354155573551581057E-07
   -0.50829910658942588074E-07
   -0.55927335043617233076E-07
   -0.47730555663248482548E-07
   -0.51839625521299210294E-07
   -0.66152241133872336154E-07
   -0.62106434227625665084E-07
   -0.55341480188584315201E-07
   -0.63882340675058926566E-07
   -0.53902161370689798331E-07
   -0.51890353913634387023E-07
   -0.58806312438342856435E-07
   -0.66448210556099292959E-07
   -0.66365867116322446469E-07
   -0.59712259627305571795E-07
   -0.50260209266323177980E-07
   -0.44368955862970832353E-07
   -0.38660386374204360201E-07
   -0.50430859406996367991E-07
   -0.66082868952876418626E-07
   -0.63346344518336909262E-07
   -0.58868295258404532651E-07
   -0.70504141478375438443E-07
   -0.63397509730031533818E-07
   -0.59323474002083601900E-07
   -0.68828359135295346379E-07
   -0.69588965947053543152E-07
   -0.68790942267875650298E-07
    0.66611678294827510127E-07
    0.10227942426926632284E-06
    0.30756203732121412392E-06
    0.27284505470298346999E-06
    0.77379090627368071281E-07
    0.14253405540576945123E-07
   -0.34207418167399092337E-07
   -0.30341607156335612214E-07
   -0.61504849261705349729E-07
   -0.53764716605277489408E-07
   -0.25750322618444369961E-07
   -0.25031211153961054865E-07
   -0.16207099882395152630E-08
   -0.48612946723057632600E-08
    0.20648435899812255465E-07
    0.77582253619953000181E-07
    0.26716376390242012383E-06
    0.31330514470365536753E-06
    0.10216163659550258444E-06
    0.60316954314519071537E-07
   -0.19444412281245306853E-07
   -0.25213521411034056295E-07
   -0.60774911465345258147E-07
   -0.54323022716521372748E-07
   -0.30745937719369490672E-07
   -0.39655952623954001736E-07
   -0.56112923237691063243E-08
   -0.76724666695202397220E-09
    0.15365719828585397218E-05
    0.21194246258539221350E-05
    0.48024486418752244406E-05
    0.48081619591897960971E-05
    0.21192734945249045898E-05
    0.15302518699226532808E-05
    0.55713278920432834727E-06
    0.49138799081729798406E-06
    0.13152006972431559598E-06
    0.13860581330796643641E-06
    0.49090260118395919160E-06
    0.55158067578179704379E-06
    0.10224951555135777329E-05
    0.10233003850720675003E-05
   -0.51381112904260251373E-07
   -0.40120538492655052260E-07
   -0.53468245991387466672E-07
   -0.44126108755478627256E-07
   -0.26035732633329972034E-07
   -0.35611431485338763582E-07
   -0.16781220836666462234E-07
   -0.37795702286182708036E-07
   -0.20442421209839032748E-07
   -0.31772831854891651196E-07
   -0.28156181488173865703E-07
   -0.51163518363467693408E-07
   -0.44291415284211581536E-07
   -0.38499457742540662920E-07
   -0.43939028103956885893E-07
   -0.34766136257740597038E-07
   -0.42844944889877322474E-07
   -0.37840013277320625963E-07
   -0.23625544664941727893E-07
   -0.34544648110914096906E-07
   -0.16197292773430942259E-07
   -0.37128284302896035063E-07
   -0.20098104998715920643E-07
   -0.31356825084748896803E-07
   -0.26824156731064911342E-07
   -0.48541640438057412023E-07
   -0.42261045688076085640E-07
   -0.36951446303197284146E-07
   -0.49636805473340553426E-08
   -0.12460937141576545722E-08
    0.55068734695525596217E-07
    0.27519376139924986212E-07
   -0.20567020503602444082E-07
   -0.47747676385906650132E-07
   -0.48105762144092292825E-07
   -0.44706304968505916799E-07
   -0.58909301653899014413E-07
   -0.53723188492086733234E-07
   -0.44275101235383852008E-07
   -0.48445654146384675381E-07
   -0.46757129013345061483E-07
   -0.48595000030788105152E-07
    0.26346152103900778941E-06
    0.20851611900286878881E-06
    0.45263701881922018797E-06
    0.28515398976366590001E-06
    0.85639292831698094558E-07
    0.71409284479126399082E-09
   -0.28007325317309015761E-07
   -0.15535624927032942848E-07
   -0.45855669130738391424E-07
   -0.34494040892059052065E-07
    0.13725516735607802398E-07
    0.55308014777632658470E-07
    0.40667802458521632532E-07
    0.20779073104043095507E-07
   -0.24700031119573516411E-07
   -0.23052460303969318525E-07
   -0.22930548148133860078E-07
   -0.27256346479241163645E-07
   -0.19360017822528282212E-07
   -0.32833165191487901191E-07
   -0.15134975203698114319E-07
   -0.35699380214215892598E-07
   -0.19196492965670542413E-07
   -0.30143649375866144572E-07
   -0.23324047551880669944E-07
   -0.41076516228085666132E-07
   -0.37726357714180257650E-07
   -0.33695898511588173556E-07
   -0.53701265557329564710E-10
   -0.11029015533223314577E-07
   -0.74208468759696660999E-08
   -0.20467347570735751698E-07
   -0.16331355369781130075E-07
   -0.31831079417367819429E-07
   -0.14335633618478658152E-07
   -0.34300913528418552062E-07
   -0.18071606167240019560E-07
   -0.28435351158821852894E-07
   -0.18742511174895350485E-07
   -0.30253326592647384632E-07
   -0.32951392281581393669E-07
   -0.30561203163409291800E-07
    0.98317768624701779995E-06
    0.68280324610212048450E-06
    0.12225188796991330813E-05
    0.73188516451378043846E-06
    0.27982821655045539746E-06
    0.80614904603903713727E-07
    0.93398251261083315409E-08
    0.48375541950383578147E-07
   -0.12128307070913813145E-07
    0.20374537215548897964E-07
    0.16952962884934620470E-06
    0.36045206655906387901E-06
    0.24196530104526378943E-06
    0.17106429926789015904E-06
    0.19317323938771247973E-05
    0.11818015844953074755E-05
    0.18370842936627139640E-05
    0.10245254326061336299E-05
    0.42171518046906183800E-06
    0.12840116270346969514E-06
    0.38066137843829930737E-07
    0.11267706086022693099E-06
    0.31230886130215718581E-07
    0.10024758433466096895E-06
    0.37918195093126065036E-06
    0.81835773726632672019E-06
    0.45950984858772354583E-06
    0.31950477588347916597E-06
    0.12578095670614352227E-05
    0.13066678361436886826E-05
    0.27898645050861776141E-05
    0.22314887573555453850E-05
    0.91735407913115274729E-06
    0.49030440023630616754E-06
    0.15779827143910502804E-06
    0.19072326911539900407E-06
    0.28693247672922810546E-07
    0.56945564765429812137E-07
    0.29146745563295016887E-06
    0.43585495304362690422E-06
    0.54570323533235508707E-06
    0.47911118648678202054E-06
    0.74395414756814442348E-05
    0.65661743880217507166E-05
    0.12339311225537722054E-04
    0.90038179205099213307E-05
    0.39601324191749770674E-05
    0.20526207940690296791E-05
    0.85438576882251903665E-06
    0.11226855688361418174E-05
    0.46841272139397923772E-06
    0.65350452979256839760E-06
    0.19068192348406482229E-05
    0.30344014459658117034E-05
    0.29719892806568593943E-05
    0.25029249228389266127E-05
    0.17468044032092838134E-04
    0.20086839694675984701E-04
    0.40698954620330452556E-04
    0.36059785381645800915E-04
    0.16690787996680904806E-04
    0.10929670266750010480E-04
    0.46096709272288490170E-05
    0.47478058277100157908E-05
    0.19485470944766652580E-05
    0.21744992015635382822E-05
    0.57156265571936898059E-05
    0.72212037783331850052E-05
    0.10097384137341861265E-04
    0.94895189564860911316E-05
    0.10872566414470983588E-03
    0.10471562653518903504E-03
    0.18846664914549398511E-03
    0.15020422418298153239E-03
    0.72589602196405336905E-04
    0.43238509673152520274E-04
    0.20099987321757623433E-04
    0.23824760698224349055E-04
    0.11415120858797323384E-04
    0.14007475606518405295E-04
    0.34490486787712817170E-04
    0.48745764313171761873E-04
    0.53285223907745916461E-04
    0.47266129206922855033E-04
    0.24684159068715172880E-04
    0.18878640897832794736E-04
    0.31436898488009038790E-04
    0.21100494425182156376E-04
    0.97148721643690549811E-05
    0.47031139583141737742E-05
    0.21920907319555324565E-05
    0.32380184258635881903E-05
    0.16485846927744470241E-05
    0.24263401684240869313E-05
    0.64147977892954987744E-05
    0.11034421228210362432E-04
    0.87610329354547069735E-05
    0.70419959961026154613E-05
    0.48055970044060383804E-04
    0.32147592406713584694E-04
    0.47046111341861935240E-04
    0.29186310630981547072E-04
    0.14037368259438478261E-04
    0.63208810200392363522E-05
    0.32471770790423914404E-05
    0.54237664244508424174E-05
    0.32097222428670000064E-05
    0.50872457619148731439E-05
    0.12647233716092600738E-04
    0.23456257040363837296E-04
    0.15176687288630787495E-04
    0.11637073958775636238E-04
    0.37364875731882339974E-03
    0.30935010472687805979E-03
    0.49167329004999474427E-03
    0.35955245648045691155E-03
    0.18173104857885811147E-03
    0.99585045082385188374E-04
    0.50831871971104575919E-04
    0.68672302533632229179E-04
    0.37869693086952419773E-04
    0.50764973081601662134E-04
    0.11807896641401663244E-03
    0.18314983177891171586E-03
    0.15998041390843177655E-03
    0.13491900377616736738E-03
    0.74043921713614962651E-03
    0.53446442320770630365E-03
    0.74408279403449491610E-03
    0.50201035551324145814E-03
    0.26589295594027739745E-03
    0.13464026962932635137E-03
    0.75670707543597860766E-04
    0.11624261418410747880E-03
    0.73858164822277947142E-04
    0.10757969795268220239E-03
    0.23659382044886612942E-03
    0.39830607708662589192E-03
    0.28104145263786294972E-03
    0.22578928437799034284E-03
   -0.30029222257291937204E-07
   -0.26504749405733977253E-07
   -0.48765859329979948196E-07
   -0.46982629955583265548E-07
   -0.39501965296407947484E-07
   -0.56967156151742226815E-07
   -0.44461753047121788222E-07
   -0.27850105400050453139E-07
   -0.36222041149445697083E-07
   -0.15578451874675371609E-07
   -0.37503962192140494494E-07
   -0.21425993680224843628E-07
   -0.38774254832877486714E-07
   -0.42586274300047448464E-07
   -0.40992982242637341800E-07
   -0.20108077932599939497E-07
    0.22007542367233943903E-07
    0.60948380289300238134E-07
   -0.11965920798582527399E-08
   -0.11121769725388187654E-07
   -0.42672079067896680648E-07
   -0.43478463077124956433E-07
   -0.60358776512192405253E-07
   -0.51262421986784454540E-07
   -0.44719134877449729640E-07
   -0.53063477033800644557E-07
   -0.49073323744039113393E-07
   -0.45663897549385286423E-07
   -0.28962171935803416045E-07
   -0.24094131141643058962E-07
   -0.42479397937806712277E-07
   -0.36358771301963987917E-07
   -0.34146622037447379456E-07
   -0.49523455112387457130E-07
   -0.41837475118259003116E-07
   -0.26516471481106576497E-07
   -0.35804089526397637474E-07
   -0.15232788771211487881E-07
   -0.36835760142202600393E-07
   -0.20841641150699440310E-07
   -0.37225500022154839629E-07
   -0.40554968344180970194E-07
    0.74692857334830393543E-08
    0.86099118461165910360E-07
    0.27964325660125907195E-06
    0.45851802133763810611E-06
    0.20856743447510933330E-06
    0.25730634586252866934E-06
    0.61084988925053539344E-07
    0.14524426763120951729E-07
   -0.41127171604773556796E-07
   -0.38207096542545854738E-07
   -0.15547341314425591269E-07
   -0.32964427262514294334E-07
    0.20301978585256083159E-07
    0.41762562898444856882E-07
    0.49670442682331105716E-06
    0.91756474409764206268E-06
    0.22258160363048709563E-05
    0.27956164938040616681E-05
    0.13065621987975696117E-05
    0.12515319384368013647E-05
    0.44146354954565470065E-06
    0.29202077916038935182E-06
    0.49954278088508485470E-07
    0.35889335671195169698E-07
    0.19032874648992021869E-06
    0.15235595377419621962E-06
    0.47837117578447807063E-06
    0.54656833149259993553E-06
    0.10935995582622738890E-04
    0.16690953733836831000E-04
    0.36054102410599278518E-04
    0.40704665567684341872E-04
    0.20086707102539031470E-04
    0.17461751944522175905E-04
    0.72267823909823420781E-05
    0.57161327089369970140E-05
    0.21674344442601430885E-05
    0.19556497971053472580E-05
    0.47473342373087535189E-05
    0.46041279305895205153E-05
    0.94887296609289790538E-05
    0.10098206907845849541E-04
    0.20590220979255017691E-05
    0.39603466142176501079E-05
    0.89981522388216408600E-05
    0.12345065747994481183E-04
    0.65660748451541318640E-05
    0.74332734998895846556E-05
    0.30400179912663357973E-05
    0.19073779353585078041E-05
    0.64651751659735557053E-06
    0.47561196758995442125E-06
    0.11222939106092830498E-05
    0.84894508465030752995E-06
    0.25021888852884750363E-05
    0.29728590809472358374E-05
    0.43244819598244457813E-04
    0.72589780592444258490E-04
    0.15019860467788300178E-03
    0.18847233313800128263E-03
    0.10471552081174457746E-03
    0.10871942288144489550E-03
    0.48751377332918262493E-04
    0.34491014349938737020E-04
    0.14000419217382910952E-04
    0.11422231084313700541E-04
    0.23824298211877796631E-04
    0.20094445164832260882E-04
    0.47265357209134798431E-04
    0.53286067864000414131E-04
   -0.27250663892936920509E-07
   -0.19828553485414946321E-07
   -0.31895674172368536458E-07
   -0.16444279170032365952E-07
   -0.22432817372107120141E-07
   -0.30284230790002194686E-07
   -0.34372077896152678769E-07
   -0.23016198243371497609E-07
   -0.34590727215011608483E-07
   -0.14331053978765054500E-07
   -0.35406786192188637692E-07
   -0.19779289846904529884E-07
   -0.33969876991355330248E-07
   -0.36020183340940935302E-07
    0.87370240998892340541E-07
    0.28028839576298348760E-06
    0.72637514558548313686E-06
    0.12284005233076790596E-05
    0.68285535868749811393E-06
    0.97702383778012993609E-06
    0.36623002115983738150E-06
    0.17032910948958987533E-06
    0.13741818210498089804E-07
   -0.44794680843806829376E-08
    0.48364070994712557263E-07
    0.43828495149975739080E-08
    0.17058759121775434725E-06
    0.24306055571761987427E-06
   -0.26248652125653847589E-07
   -0.16799935731549147571E-07
   -0.25106725750683862160E-07
   -0.93460058826510529821E-09
   -0.10409372126808075228E-07
   -0.56378405211484193914E-08
   -0.23548840737093331491E-07
   -0.18434651047600079125E-07
   -0.32882419350930330103E-07
   -0.13206169912050038437E-07
   -0.34008337962614272948E-07
   -0.18979995390208196966E-07
   -0.30835198909489664181E-07
   -0.31245225431380031499E-07
    0.13515652191189852525E-06
    0.42217563898861587257E-06
    0.10190162056076391223E-05
    0.18429676646910266189E-05
    0.11818547914675237264E-05
    0.19255802316015011831E-05
    0.82413647104572763282E-06
    0.37998182873738268485E-06
    0.93615029385148469353E-07
    0.38879813815437173753E-07
    0.11266570004696536452E-06
    0.33109176317752643088E-07
    0.31902835627749200108E-06
    0.46060554450839063295E-06
    0.47095162531235058287E-05
    0.97150906631100381218E-05
    0.21094841426116284238E-04
    0.31442655855823238250E-04
    0.18878547985582669376E-04
    0.24677901052278371111E-04
    0.11040044797298387627E-04
    0.64153605964554837282E-05
    0.24193548339619795837E-05
    0.16557852284412758758E-05
    0.32376286432773863116E-05
    0.21866510089169550005E-05
    0.70412635613909185046E-05
    0.87619069955641518799E-05
    0.99591346539249433491E-04
    0.18173126408344282925E-03
    0.35954699837201703266E-03
    0.49167895598779115789E-03
    0.30935004917331191798E-03
    0.37364258644381146551E-03
    0.18315550510373209184E-03
    0.11807952295994199885E-03
    0.50757912454585970945E-04
    0.37876803663150881009E-04
    0.68671850037320500849E-04
    0.50826332228917727493E-04
    0.13491826070749997932E-03