# vtk DataFile Version 3.0
LAPLACIEN  2D
ASCII
DATASET UNSTRUCTURED_GRID
 POINTS        1857  float
   3.1250000000000000E-002  0.93750000000000000        0.0000000000000000     
   6.2500000000000000E-002  0.93750000000000000        0.0000000000000000     
   6.2500000000000000E-002  0.96875000000000000        0.0000000000000000     
   1.8749999999999999E-002  0.95625000000000004        0.0000000000000000     
   4.0625000000000001E-002  0.95937499999999998        0.0000000000000000     
   4.3749999999999997E-002  0.98124999999999996        0.0000000000000000     
   2.1874999999999999E-002  0.97812500000000002        0.0000000000000000     
   9.3750000000000000E-002  0.93750000000000000        0.0000000000000000     
  0.12500000000000000       0.93750000000000000        0.0000000000000000     
  0.12500000000000000       0.96875000000000000        0.0000000000000000     
   8.1250000000000003E-002  0.95625000000000004        0.0000000000000000     
  0.10312499999999999       0.95937499999999998        0.0000000000000000     
  0.10625000000000000       0.98124999999999996        0.0000000000000000     
   8.4375000000000006E-002  0.97812500000000002        0.0000000000000000     
   3.1250000000000000E-002  0.87500000000000000        0.0000000000000000     
   6.2500000000000000E-002  0.87500000000000000        0.0000000000000000     
   6.2500000000000000E-002  0.90625000000000000        0.0000000000000000     
   1.8749999999999999E-002  0.89375000000000004        0.0000000000000000     
   4.0625000000000001E-002  0.89687499999999998        0.0000000000000000     
   4.3749999999999997E-002  0.91874999999999996        0.0000000000000000     
   2.1874999999999999E-002  0.91562500000000002        0.0000000000000000     
   9.3750000000000000E-002  0.87500000000000000        0.0000000000000000     
  0.12500000000000000       0.87500000000000000        0.0000000000000000     
  0.12500000000000000       0.90625000000000000        0.0000000000000000     
   8.1250000000000003E-002  0.89375000000000004        0.0000000000000000     
  0.10312499999999999       0.89687499999999998        0.0000000000000000     
  0.10625000000000000       0.91874999999999996        0.0000000000000000     
   8.4375000000000006E-002  0.91562500000000002        0.0000000000000000     
  0.15625000000000000       0.93750000000000000        0.0000000000000000     
  0.18750000000000000       0.93750000000000000        0.0000000000000000     
  0.18750000000000000       0.96875000000000000        0.0000000000000000     
  0.14374999999999999       0.95625000000000004        0.0000000000000000     
  0.16562499999999999       0.95937499999999998        0.0000000000000000     
  0.16875000000000001       0.98124999999999996        0.0000000000000000     
  0.14687500000000001       0.97812500000000002        0.0000000000000000     
  0.21875000000000000       0.93750000000000000        0.0000000000000000     
  0.25000000000000000       0.93750000000000000        0.0000000000000000     
  0.25000000000000000       0.96875000000000000        0.0000000000000000     
  0.20624999999999999       0.95625000000000004        0.0000000000000000     
  0.22812499999999999       0.95937499999999998        0.0000000000000000     
  0.23125000000000001       0.98124999999999996        0.0000000000000000     
  0.20937500000000001       0.97812500000000002        0.0000000000000000     
  0.15625000000000000       0.87500000000000000        0.0000000000000000     
  0.18750000000000000       0.87500000000000000        0.0000000000000000     
  0.18750000000000000       0.90625000000000000        0.0000000000000000     
  0.14374999999999999       0.89375000000000004        0.0000000000000000     
  0.16562499999999999       0.89687499999999998        0.0000000000000000     
  0.16875000000000001       0.91874999999999996        0.0000000000000000     
  0.14687500000000001       0.91562500000000002        0.0000000000000000     
  0.21875000000000000       0.87500000000000000        0.0000000000000000     
  0.25000000000000000       0.87500000000000000        0.0000000000000000     
  0.25000000000000000       0.90625000000000000        0.0000000000000000     
  0.20624999999999999       0.89375000000000004        0.0000000000000000     
  0.22812499999999999       0.89687499999999998        0.0000000000000000     
  0.23125000000000001       0.91874999999999996        0.0000000000000000     
  0.20937500000000001       0.91562500000000002        0.0000000000000000     
   3.1250000000000000E-002  0.81250000000000000        0.0000000000000000     
   6.2500000000000000E-002  0.81250000000000000        0.0000000000000000     
   6.2500000000000000E-002  0.84375000000000000        0.0000000000000000     
   1.8749999999999999E-002  0.83125000000000004        0.0000000000000000     
   4.0625000000000001E-002  0.83437499999999998        0.0000000000000000     
   4.3749999999999997E-002  0.85624999999999996        0.0000000000000000     
   2.1874999999999999E-002  0.85312500000000002        0.0000000000000000     
   9.3750000000000000E-002  0.81250000000000000        0.0000000000000000     
  0.12500000000000000       0.81250000000000000        0.0000000000000000     
  0.12500000000000000       0.84375000000000000        0.0000000000000000     
   8.1250000000000003E-002  0.83125000000000004        0.0000000000000000     
  0.10312499999999999       0.83437499999999998        0.0000000000000000     
  0.10625000000000000       0.85624999999999996        0.0000000000000000     
   8.4375000000000006E-002  0.85312500000000002        0.0000000000000000     
   3.1250000000000000E-002  0.75000000000000000        0.0000000000000000     
   6.2500000000000000E-002  0.75000000000000000        0.0000000000000000     
   6.2500000000000000E-002  0.78125000000000000        0.0000000000000000     
   1.8749999999999999E-002  0.76875000000000004        0.0000000000000000     
   4.0625000000000001E-002  0.77187499999999998        0.0000000000000000     
   4.3749999999999997E-002  0.79374999999999996        0.0000000000000000     
   2.1874999999999999E-002  0.79062500000000002        0.0000000000000000     
   9.3750000000000000E-002  0.75000000000000000        0.0000000000000000     
  0.12500000000000000       0.75000000000000000        0.0000000000000000     
  0.12500000000000000       0.78125000000000000        0.0000000000000000     
   8.1250000000000003E-002  0.76875000000000004        0.0000000000000000     
  0.10312499999999999       0.77187499999999998        0.0000000000000000     
  0.10625000000000000       0.79374999999999996        0.0000000000000000     
   8.4375000000000006E-002  0.79062500000000002        0.0000000000000000     
  0.15625000000000000       0.81250000000000000        0.0000000000000000     
  0.18750000000000000       0.81250000000000000        0.0000000000000000     
  0.18750000000000000       0.84375000000000000        0.0000000000000000     
  0.14374999999999999       0.83125000000000004        0.0000000000000000     
  0.16562499999999999       0.83437499999999998        0.0000000000000000     
  0.16875000000000001       0.85624999999999996        0.0000000000000000     
  0.14687500000000001       0.85312500000000002        0.0000000000000000     
  0.21875000000000000       0.81250000000000000        0.0000000000000000     
  0.25000000000000000       0.81250000000000000        0.0000000000000000     
  0.25000000000000000       0.84375000000000000        0.0000000000000000     
  0.20624999999999999       0.83125000000000004        0.0000000000000000     
  0.22812499999999999       0.83437499999999998        0.0000000000000000     
  0.23125000000000001       0.85624999999999996        0.0000000000000000     
  0.20937500000000001       0.85312500000000002        0.0000000000000000     
  0.15625000000000000       0.75000000000000000        0.0000000000000000     
  0.18750000000000000       0.75000000000000000        0.0000000000000000     
  0.18750000000000000       0.78125000000000000        0.0000000000000000     
  0.14374999999999999       0.76875000000000004        0.0000000000000000     
  0.16562499999999999       0.77187499999999998        0.0000000000000000     
  0.16875000000000001       0.79374999999999996        0.0000000000000000     
  0.14687500000000001       0.79062500000000002        0.0000000000000000     
  0.21875000000000000       0.75000000000000000        0.0000000000000000     
  0.25000000000000000       0.75000000000000000        0.0000000000000000     
  0.25000000000000000       0.78125000000000000        0.0000000000000000     
  0.20624999999999999       0.76875000000000004        0.0000000000000000     
  0.22812499999999999       0.77187499999999998        0.0000000000000000     
  0.23125000000000001       0.79374999999999996        0.0000000000000000     
  0.20937500000000001       0.79062500000000002        0.0000000000000000     
  0.28125000000000000       0.93750000000000000        0.0000000000000000     
  0.31250000000000000       0.93750000000000000        0.0000000000000000     
  0.31250000000000000       0.96875000000000000        0.0000000000000000     
  0.26874999999999999       0.95625000000000004        0.0000000000000000     
  0.29062500000000002       0.95937499999999998        0.0000000000000000     
  0.29375000000000001       0.98124999999999996        0.0000000000000000     
  0.27187499999999998       0.97812500000000002        0.0000000000000000     
  0.34375000000000000       0.93750000000000000        0.0000000000000000     
  0.37500000000000000       0.93750000000000000        0.0000000000000000     
  0.37500000000000000       0.96875000000000000        0.0000000000000000     
  0.33124999999999999       0.95625000000000004        0.0000000000000000     
  0.35312500000000002       0.95937499999999998        0.0000000000000000     
  0.35625000000000001       0.98124999999999996        0.0000000000000000     
[...]
 CELL_DATA        3584
 SCALARS VEGF float
 LOOKUP_TABLE default
    0.71842391074382025805E-08
    0.15713731514208219725E-07
   -0.10798846460003453622E-07
   -0.49534116143735678686E-08
    0.17121731056264553625E-07
    0.19046395505288492519E-08
    0.28399139093232284236E-07
    0.11159223238495990655E-07
    0.19561440038457923160E-07
    0.22870648021985369213E-07
    0.10404865123787525243E-07
    0.22325505032832150363E-07
    0.93221809966795982439E-08
    0.10418296190917344624E-07
   -0.18092949303615292794E-07
   -0.86410152557348499517E-08
   -0.26950646714935300966E-07
   -0.17026851412315577627E-07
    0.37073733697037999694E-08
   -0.79998724373485425627E-08
    0.15816877755283618009E-07
   -0.61684414151876542425E-08
    0.15204167644023262431E-07
    0.37473626846855105225E-08
    0.73421927013107709626E-08
   -0.13819320362462766237E-07
   -0.13407766070616463362E-07
   -0.83719734931878982735E-08
   -0.23735630494176457835E-08
    0.26891891813261288887E-08
   -0.22383879742022108693E-07
   -0.20336575134553925520E-07
   -0.82771126721736539149E-08
   -0.24270684233997554634E-07
   -0.74809203283595518217E-08
    0.69937477922830057171E-08
   -0.14937815542596648572E-08
    0.20410937541856402608E-07
   -0.60408651094963272211E-08
    0.10284559130872586574E-07
   -0.90791567931572990528E-08
   -0.12068577381919952397E-07
   -0.29547987497182148304E-07
   -0.24193035748987571589E-07
   -0.39540654700918789819E-07
   -0.33442526185115548211E-07
   -0.24313291729724585831E-07
   -0.36230614593772430013E-07
   -0.24153330356324080209E-07
   -0.19253224917079215974E-07
   -0.26894660622315961090E-07
   -0.19058838938214604839E-07
   -0.19479373166900491970E-07
   -0.29653883252428349543E-07
   -0.36883531547835585969E-07
   -0.36065248976985984767E-07
   -0.24695001319300773177E-07
   -0.12834882186065015255E-07
   -0.29323232020303153194E-07
   -0.18691357976902096482E-07
    0.15152582591851502732E-08
   -0.94959022472665524556E-08
    0.13481003948277926281E-07
   -0.10050569433485818209E-07
    0.91695396484274089389E-08
   -0.40721883035228915595E-08
    0.50405090958116728371E-09
   -0.23195507390305300805E-07
   -0.17781414990958835315E-07
   -0.12026422180178367140E-07
   -0.25365291786337841167E-07
   -0.13196742848536254840E-07
   -0.29481993292981695177E-07
   -0.18787784549717722165E-07
    0.13673555604206939188E-08
   -0.95825425057733487021E-08
    0.13317428973100785120E-07
   -0.10396969070544633211E-07
    0.85009277552634532570E-08
   -0.50857471155868509477E-08
   -0.26946249596762767831E-09
   -0.24355683891714995385E-07
   -0.18178192855156410823E-07
   -0.12332113036624128500E-07
   -0.36318904341340015502E-07
   -0.28472512838470386687E-07
   -0.41903030168769287530E-07
   -0.35092249403156763675E-07
   -0.26535097773571861116E-07
   -0.37733126765715327515E-07
   -0.26543146326251946712E-07
   -0.23374483933640590259E-07
   -0.33572407076381247463E-07
   -0.28073486478135075858E-07
   -0.26901958005536705105E-07
   -0.39672559550489216134E-07
   -0.41456486449749845195E-07
   -0.39863677692453575333E-07
   -0.36971662451597349514E-07
   -0.28822841414935465754E-07
   -0.42056153095292260717E-07
   -0.35184942896236146633E-07
   -0.26677632786810424286E-07
   -0.37816648243946574773E-07
   -0.26701904243937163056E-07
   -0.23713614684908027907E-07
   -0.34235842229514865333E-07
   -0.29080374932903860129E-07
   -0.27660039853591847667E-07
   -0.40812967806058425558E-07
   -0.41841594414312601720E-07
   -0.40159948718244830424E-07
   -0.38027028927169019784E-08
    0.59754881336456349270E-09
   -0.23955791863933857647E-07
   -0.22579042328668030414E-07
   -0.12277603425237212788E-07
   -0.30576956411814292235E-07
   -0.16474673015088050925E-07
    0.41789934269500358143E-09
   -0.90422279088038758505E-08
    0.14581652718389321474E-07
   -0.97799771887534388839E-08
    0.80402703281172186495E-08
   -0.12584022170222291231E-07
   -0.16261779436476189550E-07
   -0.30948381651304735454E-07
   -0.26271569480139044770E-07
   -0.41070605847373753065E-07
   -0.35649284341011872943E-07
   -0.28360605061406147962E-07
   -0.42682344330992055625E-07
   -0.33751561582958745262E-07
   -0.26334621524413399352E-07
   -0.35511149136650988933E-07
   -0.25428790799095774211E-07
   -0.23384390721400297291E-07
   -0.31906000532746303456E-07
   -0.40470973639784955964E-07
   -0.40396106754366200069E-07
   -0.38829290691315912005E-08
    0.46066541943124931592E-09
   -0.24043472674404605658E-07
   -0.22723446865113104683E-07
   -0.12612032671581071400E-07
   -0.31198052360841748906E-07
   -0.17565369532961793267E-07
   -0.31091441027838196299E-09
   -0.10006607371966771742E-07
    0.13947505913191495790E-07
   -0.10106030763078797850E-07
    0.78872917207854193401E-08
   -0.12869407846373222737E-07
   -0.16632370120401586096E-07
   -0.31022479429166522806E-07
   -0.26398128279996759835E-07
   -0.41151596338216768869E-07
   -0.35784140814613392804E-07
   -0.28674985475876849762E-07
   -0.43274297186824187129E-07
   -0.34800811538835725639E-07
   -0.27028572790302481423E-07
   -0.36442349500835889420E-07
   -0.26040016561233921427E-07
   -0.23692699971915407797E-07
   -0.32049415953351809358E-07
   -0.40737532710458089646E-07
   -0.40743782588730972031E-07
   -0.37684506168277128238E-07
   -0.30518574387855566025E-07
   -0.43413340938684786322E-07
   -0.37280427989923171053E-07
   -0.30553878718288125782E-07
   -0.44159623108435009190E-07
   -0.36118575364525731775E-07
   -0.30442419232824118376E-07
   -0.42252798694249428723E-07
   -0.34497384331811992791E-07
   -0.30783649609508911354E-07
   -0.41883444432418374146E-07
   -0.45007883968797017992E-07
   -0.44160521145100678286E-07
   -0.38320215028175122350E-07
   -0.30846207672507413654E-07
   -0.43477411647139982508E-07
   -0.37303096206210883122E-07
   -0.30679660861128189177E-07
   -0.44235633046210867110E-07
   -0.36271623218247274572E-07
   -0.30772030502211573900E-07
   -0.42898924119527374965E-07
   -0.35483251413898763351E-07
   -0.31527794747851354752E-07
   -0.43008706344314231504E-07
   -0.45382789394137790028E-07
   -0.44447900855110607395E-07
   -0.37749525274375744336E-07
   -0.30626799510373189815E-07
   -0.43423266418944590014E-07
   -0.37325315439266696790E-07
   -0.30844291940273968374E-07
   -0.44733798305080075775E-07
   -0.37151221924328707822E-07
   -0.31118649579091788833E-07
   -0.43155036091337855514E-07
   -0.35082555420725166856E-07
   -0.31077860914764021592E-07
   -0.42017906872588502948E-07
   -0.45262977082598261350E-07
   -0.44495568756504009529E-07
   -0.37263977692213771923E-07
   -0.28968577253966246270E-07
   -0.36257134757818607882E-07
   -0.30118817910342470570E-07
   -0.28985060304539787735E-07
   -0.43690113714852419299E-07
   -0.37065112255456160991E-07
   -0.31265937889995179595E-07
   -0.43767460549419317054E-07
   -0.36034421475482416897E-07
   -0.31639280661674086587E-07
   -0.42903124789829176291E-07
   -0.45043220265713261851E-07
   -0.44188464763292034853E-07
   -0.25392204150697622348E-07
   -0.13208772626594759642E-07
   -0.29486160997874862329E-07
   -0.18790025005073362933E-07
    0.13635563111860004950E-08
   -0.95844625048027911468E-08
    0.13313173222863176627E-07
   -0.10408350415138840024E-07
    0.84738757854476732947E-08
   -0.51351817534638603635E-08
   -0.30287602288844784778E-09
   -0.24413839100250906480E-07
   -0.18191822486736707836E-07
   -0.12341615373841619581E-07
   -0.25392562459126857553E-07
   -0.13208884775255781059E-07
   -0.29485913461842910101E-07
   -0.18789944815756427918E-07
    0.13635238048984529870E-08
   -0.95844826841644758667E-08
    0.13313116711885788637E-07
   -0.10408510621038455716E-07
    0.84734343171708139842E-08
   -0.51361303951226046352E-08
   -0.30346993025604206011E-09
   -0.24415021927975403114E-07
   -0.18192021972594065797E-07
   -0.12341743480048080924E-07
   -0.36994828918776366074E-07
   -0.28831522657835856034E-07
   -0.42046791674077298480E-07
   -0.35180216803415988901E-07
   -0.26679970458731932977E-07
   -0.37818166247747986670E-07
   -0.26706026496895337608E-07
   -0.23724642093181969513E-07
   -0.34262223774630576963E-07
   -0.29127995781665491910E-07
   -0.27692048658860653374E-07
   -0.40868509778132374856E-07
   -0.41854241232943953076E-07
   -0.40168813233789938168E-07
   -0.36924443689781246742E-07
   -0.28783338966968940321E-07
   -0.41892931634491116782E-07
   -0.35112187434617979000E-07
   -0.26663591203399002717E-07
   -0.37813822630149565367E-07
   -0.26705107818902444684E-07
   -0.23723134633394909187E-07
   -0.34262332273779093629E-07
   -0.29128215729390460479E-07
   -0.27687654298696628208E-07
   -0.40855542884467725472E-07
   -0.41843366074167737204E-07
   -0.40161944939224623283E-07
   -0.25391628062407664237E-07
   -0.13208461050546230815E-07
   -0.29484705902276030011E-07
   -0.18789552380240906185E-07
    0.13636104536471093701E-08
   -0.95844661977908666461E-08
    0.13313121881363212812E-07
   -0.10408504454530950420E-07
    0.84734318380376402421E-08
   -0.51361357901017772027E-08
   -0.30342957040158585079E-09
   -0.24414858637192295407E-07
   -0.18191937284510298477E-07
   -0.12341703569931154659E-07
   -0.25389655397104653166E-07
   -0.13207809628754065735E-07
   -0.29483409164869895592E-07
   -0.18789205287488189762E-07
    0.13636944917020897707E-08
   -0.95844499133324684662E-08
    0.13313128871058956670E-07
   -0.10408488964101724606E-07
    0.84734371209250303351E-08
   -0.51361173131314291623E-08
   -0.30331617112553787890E-09
   -0.24414405166782997048E-07
   -0.18191792986397470009E-07
   -0.12341634860365654207E-07
   -0.36485619851077563579E-07
   -0.28558535829081670637E-07
   -0.41320746874942095558E-07
   -0.34895610532006741514E-07
   -0.26607619841221087012E-07
   -0.37800560156726791611E-07
   -0.26701516004127225324E-07
   -0.23715034626701964613E-07
   -0.34259815459160276152E-07
   -0.29122259260687942860E-07
   -0.27654461638484679486E-07
   -0.40753202219872758754E-07
   -0.41788645981317838831E-07
   -0.40130205448903154697E-07
   -0.35549942104491478665E-07
   -0.28206948707065645353E-07
   -0.40682529024803599435E-07
   -0.34700079655395635718E-07
   -0.26552809444200903981E-07
   -0.37789838098037364357E-07
   -0.26697739646351930808E-07
   -0.23703068565956497724E-07
   -0.34254632741059973464E-07
   -0.29107860248117999603E-07
   -0.27582074549004072750E-07
   -0.40503928286184904440E-07
   -0.41700114468461497106E-07
   -0.40084301542116316423E-07
   -0.37538575768765643474E-07
   -0.29985553193696841863E-07
   -0.40494208638806108552E-07
   -0.35393845159529939827E-07
   -0.30189660286294878126E-07
   -0.44054584839363215617E-07
   -0.36235826227449911078E-07
   -0.30736246886982399656E-07
   -0.42916163636473918142E-07
   -0.35517259753188048960E-07
   -0.31477410191256283651E-07
   -0.42897653730895217559E-07
   -0.45170928007784760363E-07
   -0.44281429888068582389E-07
   -0.23058687378875886186E-07
   -0.18507650608626071523E-07
   -0.78240903308077084068E-08
   -0.18051480392989053619E-07
   -0.25336406935540504918E-07
   -0.42477952559892347766E-07
   -0.35820660808492059189E-07
   -0.30092406700715383517E-07
   -0.42744875278834471302E-07
   -0.35220756100868114345E-07
   -0.29943721610065250082E-07
   -0.39399666264167283568E-07
   -0.42004846062691041038E-07
   -0.42040576618513142276E-07
    0.25679722490074667980E-07
    0.52261370959786663881E-07
    0.21525198588132091963E-06
    0.16827643012569131393E-06
    0.30636136534076839570E-07
   -0.15472224673724632659E-07
   -0.29800837686659180969E-07
   -0.23796918558095571277E-07
   -0.42033841034664416391E-07
   -0.33940539153272551979E-07
   -0.21530015535825723249E-07
   -0.27263457422426706948E-07
   -0.19203660959649420568E-07
   -0.21398073012650361837E-07
    0.12936188092451393090E-05
    0.12435268042813306302E-05
    0.33230686973812476786E-05
    0.21626816441924378074E-05
    0.67374485444376583056E-06
    0.24300452269299829617E-06
    0.47133360137583718656E-07
    0.79808918874972809277E-07
   -0.11460473646415147447E-07
    0.10773547366679390502E-07
    0.17027056796012758938E-06
    0.32624213117192888422E-06
    0.37168681145882402386E-06
    0.28735400360403137516E-06
    0.71546184399701669147E-07
    0.37691887278775197065E-07
    0.12258759969611437405E-06
    0.40178302678056578907E-07
   -0.80175479375524042207E-08
   -0.37583186597795976958E-07
   -0.34316566221942282154E-07
   -0.27070996697966265903E-07
   -0.41709342775536348333E-07
   -0.33112773074931344164E-07
   -0.20067294079468562993E-07
   -0.13809709005339155513E-07
   -0.26010532424513163551E-07
   -0.31762735424770356517E-07
    0.28715441576156377749E-06
    0.13064093826898383409E-06
    0.27653142763119523122E-06
    0.94897049178517591890E-07
    0.98466002917569718883E-08
   -0.33484652371370915148E-07
   -0.32669839645731443693E-07
   -0.22402197470595184515E-07
   -0.39510056186546505360E-07
   -0.27785880730741579983E-07
    0.26515364547893639925E-08
    0.53287737983757305775E-07
    0.13147989919791589633E-08
   -0.16158588292279180956E-07
    0.10525670233933314890E-04
    0.76714001779760090108E-05
    0.16935910270164033977E-04
    0.94153172674917775267E-05
    0.31819795475489283969E-05
    0.11051853968816664173E-05
    0.34815108774605796740E-06
    0.60884210932390271733E-06
    0.18637125860338469216E-06
    0.35485506134497652788E-06
    0.15239778850524049452E-05
    0.32316466835118752923E-05
    0.25436532473080652634E-05
    0.18366576826230528114E-05
    0.33193200028514360540E-04
    0.18990150441251405308E-04
    0.33984807085103913623E-04
    0.16537378746963622830E-04
    0.59318488166936739808E-05
    0.18589983312888000036E-05
    0.69677079379667056813E-06
    0.14797091909515744747E-05
    0.63649737987004882779E-06
    0.12964783200466273838E-05
    0.48689331119675882079E-05
    0.11583997748560491287E-04
    0.65045566688939148340E-05
    0.43363826166244523190E-05
   -0.38845918634480768823E-08
    0.45735503383513745024E-09
   -0.24045306998980919940E-07
   -0.22726986693556328889E-07
   -0.12622609232357122902E-07
   -0.31221841343260305885E-07
   -0.17617905351685454717E-07
   -0.34117521657695008514E-09
   -0.10052037280399558265E-07
    0.13922806163432488605E-07
   -0.10116296736141343744E-07
    0.78835005171340315161E-08
   -0.12877870409853570294E-07
   -0.16644544222398318653E-07
   -0.31023632414839258564E-07
   -0.26399764284150905926E-07
   -0.41146285246382658866E-07
   -0.35773845565210765694E-07
   -0.28681688839264250389E-07
   -0.43293414353191664662E-07
   -0.34848792459768805261E-07
   -0.27056140898194143415E-07
   -0.36484109566449057572E-07
   -0.26063070064431819994E-07
   -0.23702141152915302692E-07
   -0.32052877740288035165E-07
   -0.40744926985986043494E-07
   -0.40754385943300110296E-07
   -0.38846019914007455605E-08
    0.45734404697992723228E-09
   -0.24045209221539361383E-07
   -0.22726713725581598071E-07
   -0.12622663779822502557E-07
   -0.31222077117313468932E-07
   -0.17618846011724634377E-07
   -0.34164197116476414441E-09
   -0.10052833011702465379E-07
    0.13922444231922914694E-07
   -0.10116421155413995186E-07
    0.78834633151323219848E-08
   -0.12877961292357028632E-07
   -0.16644686959638364536E-07
   -0.31019263959600074843E-07
   -0.26383327283761619559E-07
   -0.41078140748360203773E-07
   -0.35619760581710497781E-07
   -0.28633309444724863343E-07
   -0.43222644442799696478E-07
   -0.34835430853886521125E-07
   -0.27051547566203713981E-07
   -0.36484111773585975907E-07
   -0.26063055950677117130E-07
   -0.23700567354582046400E-07
   -0.32051931089540867889E-07
   -0.40737976709719658155E-07
   -0.40743388098631223789E-07
   -0.37567440417143374039E-07
   -0.30134788273504076724E-07
   -0.41510769342072134285E-07
   -0.34337643235852884598E-07
   -0.29979657355452725211E-07
   -0.43946146250755847575E-07
   -0.37031465617098695490E-07
   -0.31062849072679992709E-07
   -0.43182100226521724552E-07
   -0.35095652927591524791E-07
   -0.31039851207621216227E-07
   -0.41981049243346447505E-07
   -0.45094065728228553614E-07
   -0.44280546372269589461E-07
   -0.90351300548987244940E-08
    0.30668575043433296904E-07
    0.16216546206260455414E-06
    0.22141709133550005179E-06
    0.52260812666925155514E-07
    0.19264581515700653724E-07
   -0.21414108592867357818E-07
   -0.21146847174643375512E-07
   -0.41664311758275810676E-07
   -0.34294079706928666475E-07
   -0.24162688378579740452E-07
   -0.35632556809324757267E-07
   -0.22241622302828036498E-07
   -0.18337389505134363767E-07
   -0.35990146592680189836E-07
   -0.25279940213689388670E-07
   -0.24165368257623207939E-07
   -0.16624519517512360524E-08
   -0.18497744836231641734E-07
   -0.29460082872798548094E-07
   -0.33530062287123472783E-07
   -0.29527285427881309007E-07
   -0.42884678662769446027E-07
   -0.34923808508396084143E-07
   -0.30395264139187517747E-07
   -0.41565491558597485978E-07
   -0.42851694590020864067E-07
   -0.41112440002171308520E-07
    0.24945242799541667168E-06
    0.67379797640121608309E-06
    0.21566021725320595825E-05
    0.33292774288778902567E-05
    0.12435675133949363535E-05
    0.12872607017465623482E-05
    0.33212465416129363510E-06
    0.17067650015734918105E-06
    0.30618353571336899881E-08
   -0.37118334327998969476E-08
    0.79455418721824259066E-07
    0.41309240775701245433E-07
    0.28653151575526857611E-06
    0.37257871367025675601E-06
   -0.38845877319783523030E-08
    0.45743303696260317028E-09
   -0.24044821556973651806E-07
   -0.22725504857553991660E-07
   -0.12622240085908585424E-07
   -0.31221130712214869320E-07
   -0.17618666439291403360E-07
   -0.34159458070237972540E-09
   -0.10052832291790360038E-07
    0.13922444069076291018E-07
   -0.10116412260403688079E-07
    0.78834678470984419130E-08
   -0.12877913898212151931E-07
   -0.16644597050045136849E-07
   -0.31005999956524088295E-07
   -0.26327336171185222322E-07
   -0.40861531339194666266E-07
   -0.35047497059254738116E-07
   -0.28408421890583676167E-07
   -0.42783645176546915551E-07
   -0.34732991240987071895E-07
   -0.27018316772327548627E-07
   -0.36478138501394451431E-07
   -0.26060526525711182688E-07
   -0.23692454282742619113E-07
   -0.32048333887568523335E-07
   -0.40706217674997181134E-07
   -0.40688635545688185451E-07
   -0.38846198783938870364E-08
    0.45748299218980747575E-09
   -0.24044515231269053943E-07
   -0.22724236325907577776E-07
   -0.12621599871694136170E-07
   -0.31219167235726245174E-07
   -0.17618219183944612637E-07
   -0.34148924506558060957E-09
   -0.10052818057292559763E-07
    0.13922443196079686200E-07
   -0.10116414047768837323E-07
    0.78834421388543298738E-08
   -0.12877865644833332877E-07
   -0.16644469650706198835E-07
   -0.30995331752201021381E-07
   -0.26272557077578901411E-07
   -0.40666044615858619990E-07
   -0.34409304261335483745E-07
   -0.28056844607908731209E-07
   -0.41847935097190506929E-07
   -0.34483696782995061424E-07
   -0.26945923821576805185E-07
   -0.36463736160676330081E-07
   -0.26055351008225960565E-07
   -0.23680501374966737296E-07
   -0.32044590781662916585E-07
   -0.40660328656968177263E-07
   -0.40600113810549497045E-07
   -0.31095191746449716581E-07
   -0.79605518651665430076E-08
    0.34065297964096228824E-07
    0.12875090948580034153E-06
    0.37703786109525975026E-07
    0.65148804216469976998E-07
   -0.79374118505263085170E-08
   -0.19649608169588603639E-07
   -0.40776113261092374071E-07
   -0.33887973589831287043E-07
   -0.27373514777422378141E-07
   -0.40061261906236094422E-07
   -0.32573145303685815800E-07
   -0.25117088573451877430E-07
    0.11116355137241545617E-05
    0.31820380984809039219E-05
    0.94092454695856107664E-05
    0.16942124276198132374E-04
    0.76714567604561856930E-05
    0.10519342049824025609E-04
    0.32375563184869773187E-05
    0.15243988541584089688E-05
    0.34715288562424985351E-06
    0.19412567467757970085E-06
    0.60849398413215912689E-06
    0.34232938760242732397E-06
    0.18358435974992030283E-05