# vtk DataFile Version 3.0
LAPLACIEN  2D
ASCII
DATASET UNSTRUCTURED_GRID
 POINTS        1857  float
   3.1250000000000000E-002  0.93750000000000000        0.0000000000000000     
   6.2500000000000000E-002  0.93750000000000000        0.0000000000000000     
   6.2500000000000000E-002  0.96875000000000000        0.0000000000000000     
   1.8749999999999999E-002  0.95625000000000004        0.0000000000000000     
   4.0625000000000001E-002  0.95937499999999998        0.0000000000000000     
   4.3749999999999997E-002  0.98124999999999996        0.0000000000000000     
   2.1874999999999999E-002  0.97812500000000002        0.0000000000000000     
   9.3750000000000000E-002  0.93750000000000000        0.0000000000000000     
  0.12500000000000000       0.93750000000000000        0.0000000000000000     
  0.12500000000000000       0.96875000000000000        0.0000000000000000     
   8.1250000000000003E-002  0.95625000000000004        0.0000000000000000     
  0.10312499999999999       0.95937499999999998        0.0000000000000000     
  0.10625000000000000       0.98124999999999996        0.0000000000000000     
   8.4375000000000006E-002  0.97812500000000002        0.0000000000000000     
   3.1250000000000000E-002  0.87500000000000000        0.0000000000000000     
   6.2500000000000000E-002  0.87500000000000000        0.0000000000000000     
   6.2500000000000000E-002  0.90625000000000000        0.0000000000000000     
   1.8749999999999999E-002  0.89375000000000004        0.0000000000000000     
   4.0625000000000001E-002  0.89687499999999998        0.0000000000000000     
   4.3749999999999997E-002  0.91874999999999996        0.0000000000000000     
   2.1874999999999999E-002  0.91562500000000002        0.0000000000000000     
   9.3750000000000000E-002  0.87500000000000000        0.0000000000000000     
  0.12500000000000000       0.87500000000000000        0.0000000000000000     
  0.12500000000000000       0.90625000000000000        0.0000000000000000     
   8.1250000000000003E-002  0.89375000000000004        0.0000000000000000     
  0.10312499999999999       0.89687499999999998        0.0000000000000000     
  0.10625000000000000       0.91874999999999996        0.0000000000000000     
   8.4375000000000006E-002  0.91562500000000002        0.0000000000000000     
  0.15625000000000000       0.93750000000000000        0.0000000000000000     
  0.18750000000000000       0.93750000000000000        0.0000000000000000     
  0.18750000000000000       0.96875000000000000        0.0000000000000000     
  0.14374999999999999       0.95625000000000004        0.0000000000000000     
  0.16562499999999999       0.95937499999999998        0.0000000000000000     
  0.16875000000000001       0.98124999999999996        0.0000000000000000     
  0.14687500000000001       0.97812500000000002        0.0000000000000000     
  0.21875000000000000       0.93750000000000000        0.0000000000000000     
  0.25000000000000000       0.93750000000000000        0.0000000000000000     
  0.25000000000000000       0.96875000000000000        0.0000000000000000     
  0.20624999999999999       0.95625000000000004        0.0000000000000000     
  0.22812499999999999       0.95937499999999998        0.0000000000000000     
  0.23125000000000001       0.98124999999999996        0.0000000000000000     
  0.20937500000000001       0.97812500000000002        0.0000000000000000     
  0.15625000000000000       0.87500000000000000        0.0000000000000000     
  0.18750000000000000       0.87500000000000000        0.0000000000000000     
  0.18750000000000000       0.90625000000000000        0.0000000000000000     
  0.14374999999999999       0.89375000000000004        0.0000000000000000     
  0.16562499999999999       0.89687499999999998        0.0000000000000000     
  0.16875000000000001       0.91874999999999996        0.0000000000000000     
  0.14687500000000001       0.91562500000000002        0.0000000000000000     
  0.21875000000000000       0.87500000000000000        0.0000000000000000     
  0.25000000000000000       0.87500000000000000        0.0000000000000000     
  0.25000000000000000       0.90625000000000000        0.0000000000000000     
  0.20624999999999999       0.89375000000000004        0.0000000000000000     
  0.22812499999999999       0.89687499999999998        0.0000000000000000     
  0.23125000000000001       0.91874999999999996        0.0000000000000000     
  0.20937500000000001       0.91562500000000002        0.0000000000000000     
   3.1250000000000000E-002  0.81250000000000000        0.0000000000000000     
   6.2500000000000000E-002  0.81250000000000000        0.0000000000000000     
   6.2500000000000000E-002  0.84375000000000000        0.0000000000000000     
   1.8749999999999999E-002  0.83125000000000004        0.0000000000000000     
   4.0625000000000001E-002  0.83437499999999998        0.0000000000000000     
   4.3749999999999997E-002  0.85624999999999996        0.0000000000000000     
   2.1874999999999999E-002  0.85312500000000002        0.0000000000000000     
   9.3750000000000000E-002  0.81250000000000000        0.0000000000000000     
  0.12500000000000000       0.81250000000000000        0.0000000000000000     
  0.12500000000000000       0.84375000000000000        0.0000000000000000     
   8.1250000000000003E-002  0.83125000000000004        0.0000000000000000     
  0.10312499999999999       0.83437499999999998        0.0000000000000000     
  0.10625000000000000       0.85624999999999996        0.0000000000000000     
   8.4375000000000006E-002  0.85312500000000002        0.0000000000000000     
   3.1250000000000000E-002  0.75000000000000000        0.0000000000000000     
   6.2500000000000000E-002  0.75000000000000000        0.0000000000000000     
   6.2500000000000000E-002  0.78125000000000000        0.0000000000000000     
   1.8749999999999999E-002  0.76875000000000004        0.0000000000000000     
   4.0625000000000001E-002  0.77187499999999998        0.0000000000000000     
   4.3749999999999997E-002  0.79374999999999996        0.0000000000000000     
   2.1874999999999999E-002  0.79062500000000002        0.0000000000000000     
   9.3750000000000000E-002  0.75000000000000000        0.0000000000000000     
  0.12500000000000000       0.75000000000000000        0.0000000000000000     
  0.12500000000000000       0.78125000000000000        0.0000000000000000     
   8.1250000000000003E-002  0.76875000000000004        0.0000000000000000     
  0.10312499999999999       0.77187499999999998        0.0000000000000000     
  0.10625000000000000       0.79374999999999996        0.0000000000000000     
   8.4375000000000006E-002  0.79062500000000002        0.0000000000000000     
  0.15625000000000000       0.81250000000000000        0.0000000000000000     
  0.18750000000000000       0.81250000000000000        0.0000000000000000     
  0.18750000000000000       0.84375000000000000        0.0000000000000000     
  0.14374999999999999       0.83125000000000004        0.0000000000000000     
  0.16562499999999999       0.83437499999999998        0.0000000000000000     
  0.16875000000000001       0.85624999999999996        0.0000000000000000     
  0.14687500000000001       0.85312500000000002        0.0000000000000000     
  0.21875000000000000       0.81250000000000000        0.0000000000000000     
  0.25000000000000000       0.81250000000000000        0.0000000000000000     
  0.25000000000000000       0.84375000000000000        0.0000000000000000     
  0.20624999999999999       0.83125000000000004        0.0000000000000000     
  0.22812499999999999       0.83437499999999998        0.0000000000000000     
  0.23125000000000001       0.85624999999999996        0.0000000000000000     
  0.20937500000000001       0.85312500000000002        0.0000000000000000     
  0.15625000000000000       0.75000000000000000        0.0000000000000000     
  0.18750000000000000       0.75000000000000000        0.0000000000000000     
  0.18750000000000000       0.78125000000000000        0.0000000000000000     
  0.14374999999999999       0.76875000000000004        0.0000000000000000     
  0.16562499999999999       0.77187499999999998        0.0000000000000000     
  0.16875000000000001       0.79374999999999996        0.0000000000000000     
  0.14687500000000001       0.79062500000000002        0.0000000000000000     
  0.21875000000000000       0.75000000000000000        0.0000000000000000     
  0.25000000000000000       0.75000000000000000        0.0000000000000000     
  0.25000000000000000       0.78125000000000000        0.0000000000000000     
  0.20624999999999999       0.76875000000000004        0.0000000000000000     
  0.22812499999999999       0.77187499999999998        0.0000000000000000     
  0.23125000000000001       0.79374999999999996        0.0000000000000000     
  0.20937500000000001       0.79062500000000002        0.0000000000000000     
  0.28125000000000000       0.93750000000000000        0.0000000000000000     
  0.31250000000000000       0.93750000000000000        0.0000000000000000     
  0.31250000000000000       0.96875000000000000        0.0000000000000000     
  0.26874999999999999       0.95625000000000004        0.0000000000000000     
  0.29062500000000002       0.95937499999999998        0.0000000000000000     
  0.29375000000000001       0.98124999999999996        0.0000000000000000     
  0.27187499999999998       0.97812500000000002        0.0000000000000000     
  0.34375000000000000       0.93750000000000000        0.0000000000000000     
  0.37500000000000000       0.93750000000000000        0.0000000000000000     
  0.37500000000000000       0.96875000000000000        0.0000000000000000     
  0.33124999999999999       0.95625000000000004        0.0000000000000000     
  0.35312500000000002       0.95937499999999998        0.0000000000000000     
  0.35625000000000001       0.98124999999999996        0.0000000000000000     
[...]
 CELL_DATA        3584
 SCALARS VEGF float
 LOOKUP_TABLE default
   -0.23920606228212020291E-08
    0.58017815712713931052E-08
   -0.20350897688778507715E-07
   -0.14630352247625435711E-07
    0.71335684446264346962E-08
   -0.76189236170046123112E-08
    0.17767969907419306527E-07
    0.11377055028523607086E-08
    0.90952725389054133070E-08
    0.12259881290122985851E-07
    0.36000384409085164424E-09
    0.11872112777160949295E-07
   -0.33145590160180004622E-09
    0.74444220819620289701E-09
   -0.27767647985941699401E-07
   -0.18579934250418577871E-07
   -0.36726511862774612744E-07
   -0.26894262819012554681E-07
   -0.62584598929262805008E-08
   -0.17503579066148022805E-07
    0.53916804516665682146E-08
   -0.15880603215874880700E-07
    0.51052801148797186011E-08
   -0.58063629176038285538E-08
   -0.25302852833100662271E-08
   -0.23406484534181774910E-07
   -0.22893780471846402515E-07
   -0.17857909554324589860E-07
   -0.11893494752493487060E-07
   -0.71600892708412775165E-08
   -0.32095935062162021640E-07
   -0.30196387976187633212E-07
   -0.18214031110832663166E-07
   -0.33892554352856212172E-07
   -0.17120488307725141240E-07
   -0.28011934683978163679E-08
   -0.10931830813933805023E-07
    0.10165857027905150303E-07
   -0.15743035101436290301E-07
    0.77953801203608274910E-10
   -0.18494773646517628504E-07
   -0.21516667315319611455E-07
   -0.39686355554724550091E-07
   -0.34670447564896521932E-07
   -0.49953329741345827082E-07
   -0.43964785246692963820E-07
   -0.34820075368235249688E-07
   -0.46333447556782723793E-07
   -0.34113954457445710592E-07
   -0.29400507875078232661E-07
   -0.36538272428042283190E-07
   -0.28864197381382827580E-07
   -0.29647804192146643679E-07
   -0.39525569047735889340E-07
   -0.46828774459282859440E-07
   -0.46023897803373963408E-07
   -0.34760853864975863401E-07
   -0.23132918512773973095E-07
   -0.39459475422283979847E-07
   -0.28873943198601812740E-07
   -0.87534582184200345872E-08
   -0.19270162000913017338E-07
    0.27758433581365952179E-08
   -0.20015188204858840385E-07
   -0.10815972890896614649E-08
   -0.13707511093057574751E-07
   -0.95854695160479443629E-08
   -0.33032994628868342312E-07
   -0.27567108469059783454E-07
   -0.21809027724215104458E-07
   -0.35658032389875432862E-07
   -0.23652343068835408750E-07
   -0.39714362810988145470E-07
   -0.29039779151257009018E-07
   -0.89906991353181133527E-08
   -0.19419406100734253948E-07
    0.25171484035001449118E-08
   -0.20509751575708444949E-07
   -0.19608024615635226178E-08
   -0.14966052402187207786E-07
   -0.10586075441843788753E-07
   -0.34471150358297384750E-07
   -0.28126861348014930950E-07
   -0.22255839191383526838E-07
   -0.47084437773762046577E-07
   -0.39482766298026155346E-07
   -0.52756953750102356823E-07
   -0.45990505884141456428E-07
   -0.37446871009091786612E-07
   -0.48170475624973006157E-07
   -0.36882052167610445182E-07
   -0.33970514638700579050E-07
   -0.43664697751539306695E-07
   -0.38376723419967975849E-07
   -0.37632856100033344323E-07
   -0.50188878929559275766E-07
   -0.51919680400469152098E-07
   -0.50304489790506731626E-07
   -0.47975108272680504970E-07
   -0.39993296664411103191E-07
   -0.52992597813764799195E-07
   -0.46142768649212681086E-07
   -0.37678106050099069622E-07
   -0.48316116657695061680E-07
   -0.37137616934588679798E-07
   -0.34466072035067371317E-07
   -0.44559341068570859081E-07
   -0.39668081707112631100E-07
   -0.38643466218074694168E-07
   -0.51645513457929395655E-07
   -0.52476550338908856718E-07
   -0.50747771470975777963E-07
   -0.13583700342928850516E-07
   -0.95461460954202750001E-08
   -0.33978403943044192380E-07
   -0.32797076171765083412E-07
   -0.22568356942519720805E-07
   -0.40584566457433892735E-07
   -0.26343596026434238407E-07
   -0.95736472041968169099E-08
   -0.18531065084377765912E-07
    0.42109353341041352107E-08
   -0.19717441796209897161E-07
   -0.24333416683809655806E-08
   -0.22284374755635636842E-07
   -0.25997710302751061331E-07
   -0.41420066854939057673E-07
   -0.37156109020956009028E-07
   -0.51860050311689991358E-07
   -0.46615985476647664614E-07
   -0.39404944726761941498E-07
   -0.53412883325546415187E-07
   -0.44344589572524189351E-07
   -0.37042573013037315170E-07
   -0.45645764441719596918E-07
   -0.35680757781213423892E-07
   -0.34004228530089984853E-07
   -0.42155651677123049847E-07
   -0.50903083035005746770E-07
   -0.50877287066667218759E-07
   -0.13723377010037386019E-07
   -0.97682855532444962300E-08
   -0.34131918601196124374E-07
   -0.33033274475932722032E-07
   -0.23055155529138917981E-07
   -0.41427457154281778309E-07
   -0.27707139261063904751E-07
   -0.10523072907193297676E-07
   -0.19732137478491798699E-07
    0.33736933667516068083E-08
   -0.20185872341470190688E-07
   -0.26771581263144719968E-08
   -0.22705509228374370257E-07
   -0.26525622127419802226E-07
   -0.41552668723468358248E-07
   -0.37366865490867642973E-07
   -0.51996374027488400877E-07
   -0.46828398867688019699E-07
   -0.39874340345101213445E-07
   -0.54238413766389489701E-07
   -0.45708449229510223218E-07
   -0.37985388693752816521E-07
   -0.46858439566242887862E-07
   -0.36518546346468105333E-07
   -0.34463956597591282645E-07
   -0.42391481130102940533E-07
   -0.51311528871363047096E-07
   -0.51391673926001318918E-07
   -0.48807155022807408987E-07
   -0.41955945069364567941E-07
   -0.54622104912522607590E-07
   -0.48601204140785013716E-07
   -0.42022856515612783336E-07
   -0.55247503384188399562E-07
   -0.47156183998441811380E-07
   -0.41698259622507191321E-07
   -0.53027889751950346827E-07
   -0.45441533373973057519E-07
   -0.42067123836019313601E-07
   -0.52847519061157803740E-07
   -0.56012610154868712956E-07
   -0.55178185493638813076E-07
   -0.49396075711424079323E-07
   -0.42057293856534104006E-07
   -0.53507225252167789381E-07
   -0.47639334918964885550E-07
   -0.41934911096117175575E-07
   -0.55235672072787745184E-07
   -0.47370174553417885691E-07
   -0.42152497127099221527E-07
   -0.53907979293104738610E-07
   -0.46717926611496839346E-07
   -0.43024707316828159867E-07
   -0.54225553411021220698E-07
   -0.56440997811431488747E-07
   -0.55505596062860814209E-07
   -0.48780098263183978257E-07
   -0.41845366802506892887E-07
   -0.53642759366295201180E-07
   -0.47461773347345482922E-07
   -0.42081409484785138846E-07
   -0.55770384583168127829E-07
   -0.48439864140117406394E-07
   -0.42584064877179246801E-07
   -0.54217983037501821964E-07
   -0.46256224471748778928E-07
   -0.42480508182677514901E-07
   -0.53037876436322620865E-07
   -0.56302073061616204344E-07
   -0.55561193674769463573E-07
   -0.38277913885278611441E-07
   -0.24058196613238922372E-07
    0.28665350296300524627E-08
    0.88934745143935246691E-08
   -0.24105904251326643198E-07
   -0.44669299986102092683E-07
   -0.45704018682120498840E-07
   -0.40623363142392067514E-07
   -0.54519066192428966016E-07
   -0.46953217253992540323E-07
   -0.41022593686696918083E-07
   -0.51464859580976347590E-07
   -0.50255601976625995803E-07
   -0.49413962483840601157E-07
   -0.35713420113383954512E-07
   -0.23679651632834652247E-07
   -0.39724142746119736010E-07
   -0.29045540002704566044E-07
   -0.90006915134861557649E-08
   -0.19424958876042793456E-07
    0.25059167143311697920E-08
   -0.20536001867308943726E-07
   -0.20165433324742530259E-08
   -0.15058597949400889063E-07
   -0.10652622382377947622E-07
   -0.34578474963979245173E-07
   -0.28157500494585485157E-07
   -0.22278442927799257309E-07
   -0.35710165208332798978E-07
   -0.23677300996980335010E-07
   -0.39715506486700847792E-07
   -0.29041831401726887209E-07
   -0.89999284520128934422E-08
   -0.19424799457791148011E-07
    0.25057713946517671286E-08
   -0.20536514431772984645E-07
   -0.20180772091167943452E-08
   -0.15061559074534645518E-07
   -0.10654243462383297096E-07
   -0.34581081728740236523E-07
   -0.28157542289892710961E-07
   -0.22278511321060539756E-07
   -0.47939784853418048804E-07
   -0.39938671617806477855E-07
   -0.52747092379793941801E-07
   -0.45999817089851752422E-07
   -0.37647962975039545902E-07
   -0.48307504879015705879E-07
   -0.37145225426315614781E-07
   -0.34487302546841400281E-07
   -0.44613320221234272284E-07
   -0.39757066416110438849E-07
   -0.38699005015718052495E-07
   -0.51730023475041340286E-07
   -0.52484637507988200692E-07
   -0.50753643069278190548E-07
   -0.46951069802127753809E-07
   -0.39238550203851025761E-07
   -0.50873554132175235981E-07
   -0.45060615921893813754E-07
   -0.37380303440076346774E-07
   -0.48223282292887322148E-07
   -0.37122040673823430664E-07
   -0.34448845150667322075E-07
   -0.44603390084207526685E-07
   -0.39739001679890112591E-07
   -0.38597309779681420920E-07
   -0.51484514026035626950E-07
   -0.52289968614031226796E-07
   -0.50620197687060722517E-07
   -0.35688293500952813730E-07
   -0.23666551387548902248E-07
   -0.39689751819872766399E-07
   -0.29032093167761087032E-07
   -0.89973300380096179120E-08
   -0.19424154007900572643E-07
    0.25060216289015910201E-08
   -0.20536085747749489140E-07
   -0.20179146434477687237E-08
   -0.15061268083245568625E-07
   -0.10652533943442484997E-07
   -0.34575781198200016388E-07
   -0.28154855616545064729E-07
   -0.22276950636754240928E-07
   -0.35649539588769451953E-07
   -0.23652120101494588844E-07
   -0.39664707635504369587E-07
   -0.29024337646860910749E-07
   -0.89950831982921819270E-08
   -0.19423688531394347157E-07
    0.25062637633423537392E-08
   -0.20535530338565817276E-07
   -0.20175973430944333319E-08
   -0.15060588225730335807E-07
   -0.10649364868613022533E-07
   -0.34565019769992787643E-07
   -0.28151115489889236222E-07
   -0.22274989217534219741E-07
   -0.42281472200188228122E-07
   -0.36647208993870023534E-07
   -0.45137326041543022539E-07
   -0.42574674248250941775E-07
   -0.36632487570337101384E-07
   -0.48014525598095153064E-07
   -0.37055390947107608795E-07
   -0.34309691967422029508E-07
   -0.44552391645659430069E-07
   -0.39632134326391305228E-07
   -0.38110842874219500888E-07
   -0.50185784651545863459E-07
   -0.51547934081562613907E-07
   -0.50151855055621750037E-07
   -0.33590627307687897482E-07
   -0.33018791258117325046E-07
   -0.39304340372348591320E-07
   -0.40528697794396438416E-07
   -0.35959735073966189905E-07
   -0.47860313587131200942E-07
   -0.36991644276755578340E-07
   -0.34126602616992375111E-07
   -0.44462264707226859994E-07
   -0.39411872208003916832E-07
   -0.37191177863670340755E-07
   -0.47432094714309913147E-07
   -0.50477887198769010533E-07
   -0.49545415470922407505E-07
   -0.41052676015302695443E-07
   -0.33280629317644048323E-07
   -0.28055455257055095363E-07
   -0.30125420655794111685E-07
   -0.36619955074186535539E-07
   -0.52968107314901901285E-07
   -0.46762072591756799857E-07
   -0.41440477104633704376E-07
   -0.53767950753519443862E-07
   -0.46540384707647146178E-07
   -0.41868196348243234130E-07
   -0.52158837665369653795E-07
   -0.53707271619800764606E-07
   -0.53264711884560746645E-07
    0.59656104422388578147E-07
    0.48524446318379655358E-07
    0.17478512466324814515E-06
    0.88624025515603207030E-07
    0.16060906188948305094E-08
   -0.38650816980775638689E-07
   -0.42345053402582008032E-07
   -0.34871727749921597756E-07
   -0.51670539305372035462E-07
   -0.43198671001250789313E-07
   -0.27728140871486259208E-07
   -0.23475294623196723239E-07
   -0.27337712758195890735E-07
   -0.33477643819901938423E-07
    0.32996328615233287341E-06
    0.43100708147584563187E-06
    0.12366459187524490810E-05
    0.10168453865633332853E-05
    0.32146749751553141517E-06
    0.13623031321185780963E-06
    0.86874500951125287512E-08
    0.15927916794294970423E-07
   -0.38477999751429217154E-07
   -0.28027002032115033248E-07
    0.33117919948339784936E-07
    0.55665593095461264573E-07
    0.11702678600299408702E-06
    0.10126287527209789416E-06
    0.53983429792383650215E-05
    0.51875262957417468359E-05
    0.12221648564226757067E-04
    0.85441335348816485959E-05
    0.30706583698390112887E-05
    0.13781015819996503938E-05
    0.43408009738098129906E-06
    0.57287444653101946176E-06
    0.15321034146213858162E-06
    0.23740343228622241572E-06
    0.99582568286696876509E-06
    0.16869938395864086353E-05
    0.19047526101560857236E-05
    0.15673222547811302424E-05
    0.57382415776321425019E-06
    0.37340851339817601297E-06
    0.84053349022441690989E-06
    0.42222871329397917542E-06
    0.11558179580549365059E-06
   -0.12593476615041341806E-08
   -0.29037197664376681795E-07
   -0.99860322077445491844E-08
   -0.41837740786650810962E-07
   -0.25092123128946320460E-07
    0.43314264461317335287E-07
    0.13936221059197874863E-06
    0.80001634078888175082E-07
    0.40391375892547909898E-07
    0.15877157311116398470E-05
    0.85125621603310299925E-06
    0.15506365050062017582E-05
    0.70689725580959203177E-06
    0.22326596229142827982E-06
    0.27363986154848589410E-07
   -0.15729305837340874705E-07
    0.24402124734996894142E-07
   -0.23535576548223976685E-07
    0.14524242821082494080E-07
    0.18521610312117622777E-06
    0.50958172332924831507E-06
    0.24284917817344817088E-06
    0.14068395086618353660E-06
    0.33590903014522168542E-04
    0.25573759701948834533E-04
    0.50901151751314801283E-04
    0.31066357176169646372E-04
    0.11882436882764244479E-04
    0.48233459282876005089E-05
    0.18084193946945822256E-05
    0.28500264092454254749E-05
    0.11277160115277057331E-05
    0.18073758361072342235E-05
    0.62461060852283085764E-05
    0.11912329860095488318E-04
    0.97743970324326519316E-05
    0.74709679115867713619E-05
    0.92456928507594809464E-04
    0.57053299198326878059E-04
    0.94093590410678959977E-04
    0.50989457583954914718E-04
    0.20642563351415196154E-04
    0.75585968311739551356E-05
    0.32493539748481551390E-05
    0.61648964305347149731E-05
    0.30506640089799431721E-05
    0.54732885586235559771E-05
    0.17343207745483193186E-04
    0.36904087505295623292E-04
    0.22342760781299961172E-04
    0.15888554040787943028E-04
   -0.13728364009541360419E-07
   -0.97772571079235826403E-08
   -0.34136873293073001811E-07
   -0.33041788506692724377E-07
   -0.23079792042327737286E-07
   -0.41477657669216150224E-07
   -0.27805990929305079837E-07
   -0.10584414777861305550E-07
   -0.19818269068360391795E-07
    0.33220494556273874111E-08
   -0.20209986485486769710E-07
   -0.26873845193110488699E-08
   -0.22726100376627535392E-07
   -0.26553581232031635749E-07
   -0.41543272227807384496E-07
   -0.37335299903136686531E-07
   -0.51852230698053590201E-07
   -0.46581035915834310044E-07
   -0.39816153402541267500E-07
   -0.54196458888068839567E-07
   -0.45781913496887004852E-07
   -0.38033926028539575292E-07
   -0.46938669371377570341E-07
   -0.36567063127093061257E-07
   -0.34482292544976118995E-07
   -0.42397764777916320460E-07
   -0.51314657262910245245E-07
   -0.51396131115803503531E-07
   -0.13728174860123457431E-07
   -0.97764519092267872488E-08
   -0.34133127385073158145E-07
   -0.33033091706209082219E-07
   -0.23077319233107541337E-07
   -0.41474133108615316781E-07
   -0.27808101297903716662E-07
   -0.10585774481758201383E-07
   -0.19820893456534322403E-07
    0.33207126886530472063E-08
   -0.20210407492491763816E-07
   -0.26874858394731900390E-08
   -0.22726081421019169524E-07
   -0.26553504548573921568E-07
   -0.41458978067349409903E-07
   -0.37067482004188040364E-07
   -0.50912777688665280684E-07
   -0.44707055338545813185E-07
   -0.39115602684482894152E-07
   -0.53206981914227460649E-07
   -0.45535571748267010183E-07
   -0.37931781951225740315E-07
   -0.46920115777502956914E-07
   -0.36556851400851377295E-07
   -0.34443675840072400625E-07
   -0.42374509466978329311E-07
   -0.51181005817357080231E-07
   -0.51201178127783278110E-07
   -0.46510665889041011382E-07
   -0.36527139322983484484E-07
   -0.36124311078231324047E-07
   -0.22003982200997438189E-07
   -0.33298594351451064869E-07
   -0.47417880936784442167E-07
   -0.46360447413116358025E-07
   -0.41419034599406755616E-07
   -0.54030026146974830736E-07
   -0.46109391391754241972E-07
   -0.41764499258175562457E-07
   -0.52427703271320322431E-07
   -0.54056956748512134545E-07
   -0.52822183839413935737E-07
    0.14263352849632635408E-06
    0.32153158813065751667E-06
    0.10108446320642853919E-05
    0.12426971535097022079E-05
    0.43097607245657829090E-06
    0.32358562254897396634E-06
    0.61441687412482960936E-07
    0.33530075168023626743E-07
   -0.35579798017854693620E-07
   -0.30902341634166791887E-07
    0.15538302592168889646E-07
    0.29344087521437039227E-08
    0.10043396467055171330E-06
    0.11788167105267100413E-06
   -0.32192310910582408955E-07
    0.17011601887728773184E-08
    0.82629043030210636502E-07
    0.18084253799089311709E-06
    0.48511464604460001649E-07
    0.53298162898543208402E-07
   -0.17672337947543818247E-07
   -0.27276256384404463653E-07
   -0.50686718187374228155E-07
   -0.44010960728315340521E-07
   -0.35194528281032217849E-07
   -0.48009995104208477767E-07
   -0.34267688269079205628E-07
   -0.26449811113453543029E-07
    0.13845155883248022438E-05
    0.30707423304429996227E-05
    0.85381630170894617574E-05
    0.12227734620395724110E-04
    0.51875331753776153884E-05
    0.53920188209111070512E-05
    0.16928015317628862186E-05
    0.99626014752019560245E-06
    0.22986343042031492378E-06
    0.16079582242679260734E-06
    0.57249766246232626636E-06
    0.42833537916557297335E-06
    0.15665139745750869108E-05
    0.19056321769770015275E-05
   -0.13727536753062129294E-07
   -0.97738564187173859140E-08
   -0.34123392785214728923E-07
   -0.33007333439715829155E-07
   -0.23066558837706501145E-07
   -0.41452239955730713008E-07
   -0.27802776047125203059E-07
   -0.10584045372210773280E-07
   -0.19820581677656124442E-07
    0.33208817467399405362E-08
   -0.20209974136211681220E-07
   -0.26872356293161661583E-08
   -0.22724516748612302593E-07
   -0.26550807526750124841E-07
   -0.41250210627981640522E-07
   -0.36319626643564585703E-07
   -0.48426759120666302031E-07
   -0.38970657758892550200E-07
   -0.36524094760405948266E-07
   -0.48537037027202471378E-07
   -0.44236623573945107844E-07
   -0.37445215836041299647E-07
   -0.46813192041212287493E-07
   -0.36505827386152735846E-07
   -0.34304498269574105721E-07
   -0.42307848824842419709E-07
   -0.50712612584753464331E-07
   -0.50459067203399166685E-07
   -0.13727125451357709991E-07
   -0.97716490090584221645E-08
   -0.34115691230375084623E-07
   -0.32982320854412582740E-07
   -0.23052143960990383796E-07
   -0.41413497709060635160E-07
   -0.27792020879059949288E-07
   -0.10580889592743133036E-07
   -0.19819909222860190689E-07
    0.33211891518042069814E-08
   -0.20209438564354911386E-07
   -0.26870377637921787134E-08
   -0.22722579844349966276E-07
   -0.26547090084127578659E-07
   -0.41096051385187629824E-07
   -0.35646910987817716977E-07
   -0.46380825364471756380E-07
   -0.33137687817613452993E-07
   -0.32895659742781812323E-07
   -0.39846107997453904594E-07
   -0.41482876943427018974E-07
   -0.36525535118657390917E-07
   -0.46592924349266479981E-07
   -0.36415706032687212097E-07
   -0.34121423292593705257E-07
   -0.42244131492538590843E-07
   -0.50106184181563396132E-07
   -0.49389020041453401511E-07
    0.51994906989972279869E-08
    0.11567771011457242150E-06
    0.41623507576906377818E-06
    0.84659295715163757739E-06
    0.37339818385869195372E-06
    0.56747121131392145883E-06
    0.14516870574054619823E-06
    0.43767956013402150126E-07
   -0.32579215606778076099E-07
   -0.34177617386103753346E-07
   -0.10308241659969300346E-07
   -0.34701867408276149882E-07
    0.39602425993638189967E-07
    0.80891062414820336521E-07
    0.48297613277613436140E-05
    0.11882526462285923394E-04
    0.31060398458650478187E-04
    0.50907232683648348992E-04
    0.25573781996328477856E-04
    0.33584610270725280068E-04
    0.11918164472284174007E-04
    0.62465559618769631327E-05
    0.17998457400932411935E-05
    0.11353080258766618972E-05
    0.28496557312382776083E-05
    0.18026773938708120859E-05
    0.74701686614829567940E-05