# vtk DataFile Version 3.0
LAPLACIEN  2D
ASCII
DATASET UNSTRUCTURED_GRID
 POINTS        1857  float
   3.1250000000000000E-002  0.93750000000000000        0.0000000000000000     
   6.2500000000000000E-002  0.93750000000000000        0.0000000000000000     
   6.2500000000000000E-002  0.96875000000000000        0.0000000000000000     
   1.8749999999999999E-002  0.95625000000000004        0.0000000000000000     
   4.0625000000000001E-002  0.95937499999999998        0.0000000000000000     
   4.3749999999999997E-002  0.98124999999999996        0.0000000000000000     
   2.1874999999999999E-002  0.97812500000000002        0.0000000000000000     
   9.3750000000000000E-002  0.93750000000000000        0.0000000000000000     
  0.12500000000000000       0.93750000000000000        0.0000000000000000     
  0.12500000000000000       0.96875000000000000        0.0000000000000000     
   8.1250000000000003E-002  0.95625000000000004        0.0000000000000000     
  0.10312499999999999       0.95937499999999998        0.0000000000000000     
  0.10625000000000000       0.98124999999999996        0.0000000000000000     
   8.4375000000000006E-002  0.97812500000000002        0.0000000000000000     
   3.1250000000000000E-002  0.87500000000000000        0.0000000000000000     
   6.2500000000000000E-002  0.87500000000000000        0.0000000000000000     
   6.2500000000000000E-002  0.90625000000000000        0.0000000000000000     
   1.8749999999999999E-002  0.89375000000000004        0.0000000000000000     
   4.0625000000000001E-002  0.89687499999999998        0.0000000000000000     
   4.3749999999999997E-002  0.91874999999999996        0.0000000000000000     
   2.1874999999999999E-002  0.91562500000000002        0.0000000000000000     
   9.3750000000000000E-002  0.87500000000000000        0.0000000000000000     
  0.12500000000000000       0.87500000000000000        0.0000000000000000     
  0.12500000000000000       0.90625000000000000        0.0000000000000000     
   8.1250000000000003E-002  0.89375000000000004        0.0000000000000000     
  0.10312499999999999       0.89687499999999998        0.0000000000000000     
  0.10625000000000000       0.91874999999999996        0.0000000000000000     
   8.4375000000000006E-002  0.91562500000000002        0.0000000000000000     
  0.15625000000000000       0.93750000000000000        0.0000000000000000     
  0.18750000000000000       0.93750000000000000        0.0000000000000000     
  0.18750000000000000       0.96875000000000000        0.0000000000000000     
  0.14374999999999999       0.95625000000000004        0.0000000000000000     
  0.16562499999999999       0.95937499999999998        0.0000000000000000     
  0.16875000000000001       0.98124999999999996        0.0000000000000000     
  0.14687500000000001       0.97812500000000002        0.0000000000000000     
  0.21875000000000000       0.93750000000000000        0.0000000000000000     
  0.25000000000000000       0.93750000000000000        0.0000000000000000     
  0.25000000000000000       0.96875000000000000        0.0000000000000000     
  0.20624999999999999       0.95625000000000004        0.0000000000000000     
  0.22812499999999999       0.95937499999999998        0.0000000000000000     
  0.23125000000000001       0.98124999999999996        0.0000000000000000     
  0.20937500000000001       0.97812500000000002        0.0000000000000000     
  0.15625000000000000       0.87500000000000000        0.0000000000000000     
  0.18750000000000000       0.87500000000000000        0.0000000000000000     
  0.18750000000000000       0.90625000000000000        0.0000000000000000     
  0.14374999999999999       0.89375000000000004        0.0000000000000000     
  0.16562499999999999       0.89687499999999998        0.0000000000000000     
  0.16875000000000001       0.91874999999999996        0.0000000000000000     
  0.14687500000000001       0.91562500000000002        0.0000000000000000     
  0.21875000000000000       0.87500000000000000        0.0000000000000000     
  0.25000000000000000       0.87500000000000000        0.0000000000000000     
  0.25000000000000000       0.90625000000000000        0.0000000000000000     
  0.20624999999999999       0.89375000000000004        0.0000000000000000     
  0.22812499999999999       0.89687499999999998        0.0000000000000000     
  0.23125000000000001       0.91874999999999996        0.0000000000000000     
  0.20937500000000001       0.91562500000000002        0.0000000000000000     
   3.1250000000000000E-002  0.81250000000000000        0.0000000000000000     
   6.2500000000000000E-002  0.81250000000000000        0.0000000000000000     
   6.2500000000000000E-002  0.84375000000000000        0.0000000000000000     
   1.8749999999999999E-002  0.83125000000000004        0.0000000000000000     
   4.0625000000000001E-002  0.83437499999999998        0.0000000000000000     
   4.3749999999999997E-002  0.85624999999999996        0.0000000000000000     
   2.1874999999999999E-002  0.85312500000000002        0.0000000000000000     
   9.3750000000000000E-002  0.81250000000000000        0.0000000000000000     
  0.12500000000000000       0.81250000000000000        0.0000000000000000     
  0.12500000000000000       0.84375000000000000        0.0000000000000000     
   8.1250000000000003E-002  0.83125000000000004        0.0000000000000000     
  0.10312499999999999       0.83437499999999998        0.0000000000000000     
  0.10625000000000000       0.85624999999999996        0.0000000000000000     
   8.4375000000000006E-002  0.85312500000000002        0.0000000000000000     
   3.1250000000000000E-002  0.75000000000000000        0.0000000000000000     
   6.2500000000000000E-002  0.75000000000000000        0.0000000000000000     
   6.2500000000000000E-002  0.78125000000000000        0.0000000000000000     
   1.8749999999999999E-002  0.76875000000000004        0.0000000000000000     
   4.0625000000000001E-002  0.77187499999999998        0.0000000000000000     
   4.3749999999999997E-002  0.79374999999999996        0.0000000000000000     
   2.1874999999999999E-002  0.79062500000000002        0.0000000000000000     
   9.3750000000000000E-002  0.75000000000000000        0.0000000000000000     
  0.12500000000000000       0.75000000000000000        0.0000000000000000     
  0.12500000000000000       0.78125000000000000        0.0000000000000000     
   8.1250000000000003E-002  0.76875000000000004        0.0000000000000000     
  0.10312499999999999       0.77187499999999998        0.0000000000000000     
  0.10625000000000000       0.79374999999999996        0.0000000000000000     
   8.4375000000000006E-002  0.79062500000000002        0.0000000000000000     
  0.15625000000000000       0.81250000000000000        0.0000000000000000     
  0.18750000000000000       0.81250000000000000        0.0000000000000000     
  0.18750000000000000       0.84375000000000000        0.0000000000000000     
  0.14374999999999999       0.83125000000000004        0.0000000000000000     
  0.16562499999999999       0.83437499999999998        0.0000000000000000     
  0.16875000000000001       0.85624999999999996        0.0000000000000000     
  0.14687500000000001       0.85312500000000002        0.0000000000000000     
  0.21875000000000000       0.81250000000000000        0.0000000000000000     
  0.25000000000000000       0.81250000000000000        0.0000000000000000     
  0.25000000000000000       0.84375000000000000        0.0000000000000000     
  0.20624999999999999       0.83125000000000004        0.0000000000000000     
  0.22812499999999999       0.83437499999999998        0.0000000000000000     
  0.23125000000000001       0.85624999999999996        0.0000000000000000     
  0.20937500000000001       0.85312500000000002        0.0000000000000000     
  0.15625000000000000       0.75000000000000000        0.0000000000000000     
  0.18750000000000000       0.75000000000000000        0.0000000000000000     
  0.18750000000000000       0.78125000000000000        0.0000000000000000     
  0.14374999999999999       0.76875000000000004        0.0000000000000000     
  0.16562499999999999       0.77187499999999998        0.0000000000000000     
  0.16875000000000001       0.79374999999999996        0.0000000000000000     
  0.14687500000000001       0.79062500000000002        0.0000000000000000     
  0.21875000000000000       0.75000000000000000        0.0000000000000000     
  0.25000000000000000       0.75000000000000000        0.0000000000000000     
  0.25000000000000000       0.78125000000000000        0.0000000000000000     
  0.20624999999999999       0.76875000000000004        0.0000000000000000     
  0.22812499999999999       0.77187499999999998        0.0000000000000000     
  0.23125000000000001       0.79374999999999996        0.0000000000000000     
  0.20937500000000001       0.79062500000000002        0.0000000000000000     
  0.28125000000000000       0.93750000000000000        0.0000000000000000     
  0.31250000000000000       0.93750000000000000        0.0000000000000000     
  0.31250000000000000       0.96875000000000000        0.0000000000000000     
  0.26874999999999999       0.95625000000000004        0.0000000000000000     
  0.29062500000000002       0.95937499999999998        0.0000000000000000     
  0.29375000000000001       0.98124999999999996        0.0000000000000000     
  0.27187499999999998       0.97812500000000002        0.0000000000000000     
  0.34375000000000000       0.93750000000000000        0.0000000000000000     
  0.37500000000000000       0.93750000000000000        0.0000000000000000     
  0.37500000000000000       0.96875000000000000        0.0000000000000000     
  0.33124999999999999       0.95625000000000004        0.0000000000000000     
  0.35312500000000002       0.95937499999999998        0.0000000000000000     
  0.35625000000000001       0.98124999999999996        0.0000000000000000     
[...]
 CELL_DATA        3584
 SCALARS VEGF float
 LOOKUP_TABLE default
    0.90200358783850200756E-08
    0.17594073241297953687E-07
   -0.89706111855188284720E-08
   -0.31084147528053593550E-08
    0.19015000549776404358E-07
    0.37389432959497578302E-08
    0.30406617014010324548E-07
    0.13091815005106397308E-07
    0.21574607129863485052E-07
    0.24903952448539124351E-07
    0.12339401638136906856E-07
    0.24303726567795346753E-07
    0.11182462373789241058E-07
    0.12281700602252676758E-07
   -0.16247143372104391856E-07
   -0.67603571755924746682E-08
   -0.25080187711846254253E-07
   -0.15146855774052740730E-07
    0.55891805667637102231E-08
   -0.61749686366685631379E-08
    0.17771435666443594388E-07
   -0.43155465713128269059E-08
    0.17106606397857465750E-07
    0.55768683473480600800E-08
    0.92075842791052393542E-08
   -0.11986496543880009168E-07
   -0.11593338280546049005E-07
   -0.65581035978539194372E-08
   -0.55452847302246062980E-09
    0.45503310971147632948E-08
   -0.20525353109885779648E-07
   -0.18456118857530651265E-07
   -0.63969470283520826412E-08
   -0.22429482983528299833E-07
   -0.56439984829636382101E-08
    0.88453089410498487050E-08
    0.31862954678448222026E-09
    0.22331734957842990839E-07
   -0.41939339934061155252E-08
    0.12200745559040010731E-07
   -0.72788720597335632495E-08
   -0.10262948113936696947E-07
   -0.27610635802547310559E-07
   -0.22206259401636021400E-07
   -0.37547961713253414501E-07
   -0.31436367297929273121E-07
   -0.22321993178880597433E-07
   -0.34296227037038958534E-07
   -0.22253839680844206441E-07
   -0.17330099857464699434E-07
   -0.25048602760217877320E-07
   -0.17191660279990933034E-07
   -0.17551895444917671155E-07
   -0.27764326146978253207E-07
   -0.34975877193111295000E-07
   -0.34156145340017813433E-07
   -0.22773191116756440404E-07
   -0.10884141375890820617E-07
   -0.27384533685513736771E-07
   -0.16752391459783008789E-07
    0.34554620997974534791E-08
   -0.76197654548419284335E-08
    0.15490731328349704630E-07
   -0.81468651180180684156E-08
    0.11102486242125081162E-07
   -0.22286420636230448212E-08
    0.24118421400510294304E-08
   -0.21314805913194449222E-07
   -0.15907454498824108884E-07
   -0.10153497253205244319E-07
   -0.23404187240138422184E-07
   -0.11219933411913140377E-07
   -0.27528588176734435819E-07
   -0.16838663621720642625E-07
    0.33212749858703145924E-08
   -0.76972571611551867961E-08
    0.15341941082069681080E-07
   -0.84685218699008407828E-08
    0.10471228332329364844E-07
   -0.31972478870502195552E-08
    0.16787967401933621413E-08
   -0.22424270888852276957E-07
   -0.16276884316453004819E-07
   -0.10436003538133771761E-07
   -0.34265951121793720861E-07
   -0.26387733854547501329E-07
   -0.39830943918766208278E-07
   -0.33019149034638787609E-07
   -0.24469951588883540794E-07
   -0.35738316204074787988E-07
   -0.24572625500254145427E-07
   -0.21366187553985134779E-07
   -0.31639553836996252569E-07
   -0.26110344148192653271E-07
   -0.24868262901970096890E-07
   -0.37661960528922706615E-07
   -0.39452144042332510782E-07
   -0.37864569890228160193E-07
   -0.34878304628265976683E-07
   -0.26711720080568223460E-07
   -0.39969726261239855392E-07
   -0.33101986607206344470E-07
   -0.24598835402659059346E-07
   -0.35812795618984535051E-07
   -0.24716605048738387014E-07
   -0.21679876017159914504E-07
   -0.32263236504034907682E-07
   -0.27067155424959830889E-07
   -0.25583057452231340351E-07
   -0.38747106897784246649E-07
   -0.39809178563418748056E-07
   -0.38137264403632141017E-07
   -0.19341178353564336863E-08
    0.25157108929579166264E-08
   -0.22039029490021697926E-07
   -0.20630398213937088039E-07
   -0.10327482404503514051E-07
   -0.28659226165929312056E-07
   -0.14592575433033230143E-07
    0.23086732198254474407E-08
   -0.72216737025594857051E-08
    0.16527969274465440038E-07
   -0.78852376958729383069E-08
    0.10009330810440915287E-07
   -0.10726468304003583895E-07
   -0.14398216992845751913E-07
   -0.28950825733680039695E-07
   -0.24210304094637281276E-07
   -0.39010872856306306923E-07
   -0.33562904991029272909E-07
   -0.26269391361063841807E-07
   -0.40630544591306165089E-07
   -0.31731614337175359862E-07
   -0.24303899432291524539E-07
   -0.33568584346105928198E-07
   -0.23473534338473471681E-07
   -0.21370219288667781985E-07
   -0.29945108911648858103E-07
   -0.38471510995253870864E-07
   -0.38388311135528549753E-07
   -0.20057122527888088172E-08
    0.23918296664173335073E-08
   -0.22117182461037949258E-07
   -0.20760902883964283498E-07
   -0.10636868381187433607E-07
   -0.29242112584474055703E-07
   -0.15633520051744182720E-07
    0.16191085668586226446E-08
   -0.81426120706295288934E-08
    0.15929811596731326858E-07
   -0.81875965458358535498E-08
    0.98703984153872233313E-08
   -0.10989656211524161908E-07
   -0.14742521385770916559E-07
   -0.29016532206631990839E-07
   -0.24324076549714100287E-07
   -0.39082788260744215362E-07
   -0.33684396306051790344E-07
   -0.26558574340370968098E-07
   -0.41183189745489111830E-07
   -0.32726116218989736207E-07
   -0.24955477923620839799E-07
   -0.34450413756758237144E-07
   -0.24046042655606680072E-07
   -0.21654134786100195787E-07
   -0.30074572448523677660E-07
   -0.38715592919042569539E-07
   -0.38709042733559324380E-07
   -0.35568555489171551968E-07
   -0.28356615909102410002E-07
   -0.41274357653215352181E-07
   -0.35127230929223394346E-07
   -0.28386137567223813005E-07
   -0.42044672145336128236E-07
   -0.34018875361717312046E-07
   -0.28312389130541121841E-07
   -0.40192843108444107116E-07
   -0.32415044131671943535E-07
   -0.28648777465692579066E-07
   -0.39792256324184455470E-07
   -0.42904744174892104357E-07
   -0.42055776803316621540E-07
   -0.36171533430197606078E-07
   -0.28668912764109757017E-07
   -0.41365504073410263041E-07
   -0.35173213178546470445E-07
   -0.28506611498008763184E-07
   -0.42115370373214868583E-07
   -0.34158013762208945090E-07
   -0.28617241726281639068E-07
   -0.40798721948469385118E-07
   -0.33349816639997102851E-07
   -0.29350370173923002469E-07
   -0.40863689287343041168E-07
   -0.43254503527383097601E-07
   -0.42322184710800230282E-07
   -0.35629026022867165798E-07
   -0.28460515348390785704E-07
   -0.41308461923614770725E-07
   -0.35200245578144759692E-07
   -0.28662447926635855302E-07
   -0.42587257670644591440E-07
   -0.34998245738604294881E-07
   -0.28947074657808031638E-07
   -0.41044753478611425904E-07
   -0.32961104989249726036E-07
   -0.28919440698760439023E-07
   -0.39913801133342827009E-07
   -0.43140088023958607589E-07
   -0.42366920173382250197E-07
   -0.35530244164095328460E-07
   -0.27499173411269656853E-07
   -0.36574220421606028324E-07
   -0.30421862343741846955E-07
   -0.27510096537421100499E-07
   -0.41957692397045501556E-07
   -0.34998147038107228786E-07
   -0.29148893137572524512E-07
   -0.41633326110963808551E-07
   -0.33878294409874870798E-07
   -0.29517624854384014605E-07
   -0.40845170817468176159E-07
   -0.43129190836826481105E-07
   -0.42272839171324281021E-07
   -0.23427390889218206094E-07
   -0.11230100836792405697E-07
   -0.27532036474527877664E-07
   -0.16840497396988262175E-07
    0.33181485983147896236E-08
   -0.76988088119282821717E-08
    0.15338435859182282736E-07
   -0.84781290422820711911E-08
    0.10447881860006865314E-07
   -0.32407421081736788952E-08
    0.16497647617704907715E-08
   -0.22475568024870045541E-07
   -0.16288442966614780970E-07
   -0.10443970596134427477E-07
   -0.23427724948797220410E-07
   -0.11230217416901250528E-07
   -0.27531930945508592868E-07
   -0.16840469984880867063E-07
    0.33181164023213576962E-08
   -0.76988274898876587015E-08
    0.15338392284898050150E-07
   -0.84782575368084347012E-08
    0.10447534790577836368E-07
   -0.32414939701862594071E-08
    0.16492928167043213073E-08
   -0.22476531523038066556E-07
   -0.16288605323812113862E-07
   -0.10444076769613159957E-07
   -0.34899766078892423405E-07
   -0.26720344989856943746E-07
   -0.39966161622004937150E-07
   -0.33100340632341092348E-07
   -0.24601311980770290688E-07
   -0.35814195279405012619E-07
   -0.24720031370331240746E-07
   -0.21689223307461777833E-07
   -0.32285964466493513036E-07
   -0.27108952071888612018E-07
   -0.25610922137412710898E-07
   -0.38796280692987031007E-07
   -0.39820197066091547459E-07
   -0.38144902579721045736E-07
   -0.34858567419378987947E-07
   -0.26692165508127899734E-07
   -0.39872069625250022683E-07
   -0.33059787554971845679E-07
   -0.24591921542048091173E-07
   -0.35811794695616163510E-07
   -0.24719574849589811028E-07
   -0.21688495993092579990E-07
   -0.32286178267706218041E-07
   -0.27109380749192277515E-07
   -0.25608792596909776927E-07
   -0.38789503064878351931E-07
   -0.39814189723380032658E-07
   -0.38141184040457135386E-07
   -0.23427226821611987520E-07
   -0.11229995494452022401E-07
   -0.27531268108162589754E-07
   -0.16840261310717431281E-07
    0.33181608832098353214E-08
   -0.76988187208621287651E-08
    0.15338393797363726979E-07
   -0.84782556726296278341E-08
    0.10447531238302487191E-07
   -0.32415016463280420007E-08
    0.16493078552446527524E-08
   -0.22476455400565343345E-07
   -0.16288564947485457558E-07
   -0.10444057265038022736E-07
   -0.23426118272840087519E-07
   -0.11229636297986166106E-07
   -0.27530535204848589529E-07
   -0.16840070363967026376E-07
    0.33182030734550368499E-08
   -0.76988096135472204693E-08
    0.15338397637017284448E-07
   -0.84782483547003418005E-08
    0.10447533690336734375E-07
   -0.32414929950424525060E-08
    0.16493696857619460531E-08
   -0.22476210772334428174E-07
   -0.16288487172936797516E-07
   -0.10444020878560897099E-07
   -0.34582010170780398916E-07
   -0.26552622431054029452E-07
   -0.39506898629922181768E-07
   -0.32925133835645666001E-07
   -0.24558110688623531412E-07
   -0.35804030731866460485E-07
   -0.24717539512568255512E-07
   -0.21683844294767195039E-07
   -0.32284788690165105136E-07
   -0.27106011124112109606E-07
   -0.25589172629685547269E-07
   -0.38727237140715207272E-07
   -0.39781268699415046285E-07
   -0.38122408967309997735E-07
   -0.33976300374800970763E-07
   -0.26329592083300671526E-07
   -0.39092408547575243074E-07
   -0.32801363882883322544E-07
   -0.24524433972017731708E-07
   -0.35797632761003823444E-07
   -0.24715354414139402307E-07
   -0.21676797204706519734E-07
   -0.32281807453427204310E-07
   -0.27097522628366351427E-07
   -0.25545006402975832049E-07
   -0.38571027424766800556E-07
   -0.39726731734776596462E-07
   -0.38094619528276435495E-07
   -0.35693701714536760649E-07
   -0.28131723633547707297E-07
   -0.39414465233255540026E-07
   -0.33943449131457775470E-07
   -0.28203773896245584053E-07
   -0.42007223763842005203E-07
   -0.34139123674383076925E-07
   -0.28600917951763101027E-07
   -0.40817098200614604145E-07
   -0.33384916356558106079E-07
   -0.29332664181719640171E-07
   -0.40816720536896436937E-07
   -0.43132077510061906285E-07
   -0.42226879861648880609E-07
   -0.25790438064049112957E-07
   -0.20316035562877698643E-07
   -0.16551378971959148473E-07
   -0.22041890336547337098E-07
   -0.24961973624928421478E-07
   -0.40982814583102811948E-07
   -0.33877956759814699099E-07
   -0.28193245943646602285E-07
   -0.40713280137611280705E-07
   -0.33202077509950967886E-07
   -0.28342761148219507178E-07
   -0.38503279961183253390E-07
   -0.41041557988829993782E-07
   -0.40765170029224995143E-07
    0.90032924955417779557E-08
    0.30498670167659909599E-07
    0.14776862037679138592E-06
    0.11394697756234578626E-06
    0.14771275262881431831E-07
   -0.22347455704003901123E-07
   -0.30109086637158904891E-07
   -0.24141564208659163656E-07
   -0.40527890089214852282E-07
   -0.32538583876089288028E-07
   -0.22700380165966249475E-07
   -0.30138962802362934864E-07
   -0.25215133339000499422E-07
   -0.26544077643148504437E-07
    0.97551168657388859785E-06
    0.93859830254043738967E-06
    0.25728474145496676343E-05
    0.16495196998431116444E-05
    0.49837554266459101865E-06
    0.16764676264406527381E-06
    0.24953226656960372929E-07
    0.50402176191978541939E-07
   -0.19174731392710144996E-07
   -0.95833020804081139005E-09
    0.11719276610092711974E-06
    0.23211828637333564071E-06
    0.26510447728191104000E-06
    0.20097415490956151465E-06
    0.42085691341701582323E-07
    0.19516366930412715009E-07
    0.78123466382685555276E-07
    0.19285322193527004436E-07
   -0.12987108813844383638E-07
   -0.37692963818108118970E-07
   -0.32894888665535639228E-07
   -0.26192028526121266604E-07
   -0.40045823784419887865E-07
   -0.31816061400729872607E-07
   -0.21627192218505933568E-07
   -0.20679524310350450907E-07
   -0.30019048214455210647E-07
   -0.33779340781081350744E-07
    0.20095707111621510106E-06
    0.86821655516397686865E-07
    0.19196756618946343243E-06
    0.58821658644171546553E-07
   -0.43262042246463996380E-09
   -0.34891503698711591399E-07
   -0.31800195942717706000E-07
   -0.23034320540368793775E-07
   -0.38591773196218195990E-07
   -0.28216264432845453753E-07
   -0.57673458483851844850E-08
    0.27298076283505191564E-07
   -0.10772375193630288349E-07
   -0.22951927519957235466E-07
    0.83778668987772228878E-05
    0.60525883348657783236E-05
    0.13635153302385780865E-04
    0.74389646399573128272E-05
    0.24542604058001613152E-05
    0.82344348835815837294E-06
    0.24820254497970835266E-06
    0.44722015847669240248E-06
    0.12550808827968669538E-06
    0.25459262016670257580E-06
    0.11537265314799706483E-05
    0.25003427030620909222E-05
    0.19498292047785482238E-05
    0.13903280256140789471E-05
    0.27104338229710186645E-04
    0.15276340947355913241E-04
    0.27783879899271128578E-04
    0.13234968433141270345E-04
    0.46373120222935979655E-05
    0.14071166712013910406E-05
    0.51149282911191849115E-06
    0.11153332598453564428E-05
    0.46341246930083328169E-06
    0.97455980346410114374E-06
    0.37895503022540239429E-05
    0.92169539736852198190E-05
    0.50975693725755211714E-05
    0.33531716331958677362E-05
   -0.20070438351941553694E-08
    0.23891349362162807492E-08
   -0.22118655082705799404E-07
   -0.20763803073941664946E-07
   -0.10645751100076937630E-07
   -0.29262510590353004336E-07
   -0.15679669362046898066E-07
    0.15929226981849175285E-08
   -0.81824679271018435341E-08
    0.15908564541997179485E-07
   -0.81962295166217623949E-08
    0.98673020612551184809E-08
   -0.10996717240138471026E-07
   -0.14752797637890640636E-07
   -0.29017615456754081418E-07
   -0.24325943836935709631E-07
   -0.39080626603913538158E-07
   -0.33680021055948793872E-07
   -0.26565454878811356077E-07
   -0.41201016726627046330E-07
   -0.32768336483563692001E-07
   -0.24979312733474083930E-07
   -0.34486831759372692377E-07
   -0.24065777415343145292E-07
   -0.21662080208296599809E-07
   -0.30077433179296970634E-07
   -0.38721936648696040493E-07
   -0.38718244665227596761E-07
   -0.20070533690052800868E-08
    0.23891195442458305428E-08
   -0.22118612879061377066E-07
   -0.20763679217750902364E-07
   -0.10645818089417482789E-07
   -0.29262736730665612721E-07
   -0.15680416828289152741E-07
    0.15925610827273244762E-08
   -0.81830938178726281304E-08
    0.15908288115623509572E-07
   -0.81963184120403880453E-08
    0.98672746626075301958E-08
   -0.10996787015848395800E-07
   -0.14752911306191269540E-07
   -0.29015195766741372054E-07
   -0.24316501807430552166E-07
   -0.39039975200112797212E-07
   -0.33585725813590990120E-07
   -0.26537099878331711106E-07
   -0.41159477584144871557E-07
   -0.32761209785929917894E-07
   -0.24977013983584971733E-07
   -0.34487074570401754170E-07
   -0.24065880128826068159E-07
   -0.21661292904890986879E-07
   -0.30076946449003239649E-07
   -0.38718147294652441435E-07
   -0.38712135039668971111E-07
   -0.35519962318325481040E-07
   -0.28155855644223726917E-07
   -0.40075667514675718535E-07
   -0.33244999688016699789E-07
   -0.28121624009195847478E-07
   -0.42103922637778122247E-07
   -0.34943269604833842201E-07
   -0.28924458076148766746E-07
   -0.41073487292877754646E-07
   -0.32975756602269071014E-07
   -0.28901142930651719642E-07
   -0.39893988091800745157E-07
   -0.43042607185142596304E-07
   -0.42241657278020640114E-07
   -0.15909266466042903400E-07
    0.14798025808213390147E-07
    0.10782213619894069730E-06
    0.15394809670424968926E-06
    0.30503511680889147914E-07
    0.25863871777029447193E-08
   -0.24281297381966817130E-07
   -0.22322371389770954421E-07
   -0.40285013634819768306E-07
   -0.32766649360303134816E-07
   -0.24503075620069911712E-07
   -0.35950088051235569691E-07
   -0.27389505755819155585E-07
   -0.24347582532990171369E-07
   -0.34494953327157430248E-07
   -0.24912581083255766621E-07
   -0.28171240070227016936E-07
   -0.10377033502563118360E-07
   -0.20302114407051845898E-07
   -0.32194702564336543906E-07
   -0.32626617345995229429E-07
   -0.27932817192138763993E-07
   -0.40889826627301743157E-07
   -0.32871445156200250524E-07
   -0.28492794656722500800E-07
   -0.39632470839979463749E-07
   -0.41579496630009597224E-07
   -0.40149250160984684461E-07
    0.17409561382553707586E-06
    0.49842298295099290400E-06
    0.16434265887370907214E-05
    0.25790716495604990371E-05
    0.93864492350680713961E-06
    0.96915252876766715583E-06
    0.23800937733888423871E-06
    0.11759354216989464614E-06
   -0.86928922315755842269E-08
   -0.11404837521242102057E-07
    0.50052753034960618796E-07
    0.19119622115978937859E-07
    0.20014975287782405330E-06
    0.26599772509193275303E-06
   -0.20070471391825558101E-08
    0.23891650056960008431E-08
   -0.22118405052107137565E-07
   -0.20763014764258346418E-07
   -0.10645592737637769089E-07
   -0.29262229669460835569E-07
   -0.15680327644451389751E-07
    0.15925824987486749451E-08
   -0.81830960148977366243E-08
    0.15908286671901058051E-07
   -0.81963138141560234183E-08
    0.98672765556259494149E-08
   -0.10996763826944955110E-07
   -0.14752866332204598189E-07
   -0.29007428211288481331E-07
   -0.24282679578779492252E-07
   -0.38905294275081266246E-07
   -0.33220494529661806209E-07
   -0.26397490270559950991E-07
   -0.40882765822821758580E-07
   -0.32698859938705475445E-07
   -0.24957359441985572122E-07
   -0.34483689698958356236E-07
   -0.24064481793272087785E-07
   -0.21656632815218765417E-07
   -0.30074907876364993238E-07
   -0.38699356455782230655E-07
   -0.38679188164584641483E-07
   -0.20070846987203705243E-08
    0.23891781856881570858E-08
   -0.22118256131929929844E-07
   -0.20762308660617691186E-07
   -0.10645246745430954170E-07
   -0.29261128676044015097E-07
   -0.15680086929096595886E-07
    0.15926326257507827481E-08
   -0.81830912641314258917E-08
    0.15908282733432603868E-07
   -0.81963239043439208763E-08
    0.98672490108438960256E-08
   -0.10996746869488036426E-07
   -0.14752804082971494715E-07
   -0.29001085067322555892E-07
   -0.24249035872678992799E-07
   -0.38781569907893158905E-07
   -0.32806023634994997793E-07
   -0.26174467891758328309E-07
   -0.40277032170279497486E-07
   -0.32542633684450936452E-07
   -0.24913195318414926931E-07
   -0.34475203079839245607E-07
   -0.24061510281925165661E-07
   -0.21649600086849282657E-07
   -0.30072754184267976094E-07
   -0.38671581826954090040E-07
   -0.38624660926805617782E-07
   -0.31204933486900447681E-07
   -0.12937230577000126629E-07
    0.13156780598386237956E-07
    0.84299383078950556974E-07
    0.19532152003797117624E-07
    0.35685250684285054402E-07
   -0.14800323184304058259E-07
   -0.21216094257222660488E-07
   -0.39503286277683027760E-07
   -0.32203718557586652916E-07
   -0.26491274990982825155E-07
   -0.38649285713406047637E-07
   -0.34593022412274623762E-07
   -0.29125784904667606294E-07
    0.82989453582208313011E-06
    0.24543131819366628074E-05
    0.74328788253532578130E-05
    0.13641383856305465752E-04
    0.60526508336545306634E-05
    0.83715375845183504774E-05
    0.25062609659903668075E-05
    0.11541422280645667465E-05
    0.24686741485171278036E-06
    0.13328356677076787898E-06
    0.44687593199072049161E-06
    0.24237125267403383416E-06
    0.13895118640972633555E-05