# vtk DataFile Version 3.0
LAPLACIEN  2D
ASCII
DATASET UNSTRUCTURED_GRID
 POINTS         481  float
   6.2500000000000000E-002  0.87500000000000000        0.0000000000000000     
  0.12500000000000000       0.87500000000000000        0.0000000000000000     
  0.12500000000000000       0.93750000000000000        0.0000000000000000     
   3.7499999999999999E-002  0.91249999999999998        0.0000000000000000     
   8.1250000000000003E-002  0.91874999999999996        0.0000000000000000     
   8.7499999999999994E-002  0.96250000000000002        0.0000000000000000     
   4.3749999999999997E-002  0.95625000000000004        0.0000000000000000     
  0.18750000000000000       0.87500000000000000        0.0000000000000000     
  0.25000000000000000       0.87500000000000000        0.0000000000000000     
  0.25000000000000000       0.93750000000000000        0.0000000000000000     
  0.16250000000000001       0.91249999999999998        0.0000000000000000     
  0.20624999999999999       0.91874999999999996        0.0000000000000000     
  0.21249999999999999       0.96250000000000002        0.0000000000000000     
  0.16875000000000001       0.95625000000000004        0.0000000000000000     
   6.2500000000000000E-002  0.75000000000000000        0.0000000000000000     
  0.12500000000000000       0.75000000000000000        0.0000000000000000     
  0.12500000000000000       0.81250000000000000        0.0000000000000000     
   3.7499999999999999E-002  0.78749999999999998        0.0000000000000000     
   8.1250000000000003E-002  0.79374999999999996        0.0000000000000000     
   8.7499999999999994E-002  0.83750000000000002        0.0000000000000000     
   4.3749999999999997E-002  0.83125000000000004        0.0000000000000000     
  0.18750000000000000       0.75000000000000000        0.0000000000000000     
  0.25000000000000000       0.75000000000000000        0.0000000000000000     
  0.25000000000000000       0.81250000000000000        0.0000000000000000     
  0.16250000000000001       0.78749999999999998        0.0000000000000000     
  0.20624999999999999       0.79374999999999996        0.0000000000000000     
  0.21249999999999999       0.83750000000000002        0.0000000000000000     
  0.16875000000000001       0.83125000000000004        0.0000000000000000     
  0.31250000000000000       0.87500000000000000        0.0000000000000000     
  0.37500000000000000       0.87500000000000000        0.0000000000000000     
  0.37500000000000000       0.93750000000000000        0.0000000000000000     
  0.28749999999999998       0.91249999999999998        0.0000000000000000     
  0.33124999999999999       0.91874999999999996        0.0000000000000000     
  0.33750000000000002       0.96250000000000002        0.0000000000000000     
  0.29375000000000001       0.95625000000000004        0.0000000000000000     
  0.43750000000000000       0.87500000000000000        0.0000000000000000     
  0.50000000000000000       0.87500000000000000        0.0000000000000000     
  0.50000000000000000       0.93750000000000000        0.0000000000000000     
  0.41249999999999998       0.91249999999999998        0.0000000000000000     
  0.45624999999999999       0.91874999999999996        0.0000000000000000     
  0.46250000000000002       0.96250000000000002        0.0000000000000000     
  0.41875000000000001       0.95625000000000004        0.0000000000000000     
  0.31250000000000000       0.75000000000000000        0.0000000000000000     
  0.37500000000000000       0.75000000000000000        0.0000000000000000     
  0.37500000000000000       0.81250000000000000        0.0000000000000000     
  0.28749999999999998       0.78749999999999998        0.0000000000000000     
  0.33124999999999999       0.79374999999999996        0.0000000000000000     
  0.33750000000000002       0.83750000000000002        0.0000000000000000     
  0.29375000000000001       0.83125000000000004        0.0000000000000000     
  0.43750000000000000       0.75000000000000000        0.0000000000000000     
  0.50000000000000000       0.75000000000000000        0.0000000000000000     
  0.50000000000000000       0.81250000000000000        0.0000000000000000     
  0.41249999999999998       0.78749999999999998        0.0000000000000000     
  0.45624999999999999       0.79374999999999996        0.0000000000000000     
  0.46250000000000002       0.83750000000000002        0.0000000000000000     
  0.41875000000000001       0.83125000000000004        0.0000000000000000     
   6.2500000000000000E-002  0.62500000000000000        0.0000000000000000     
  0.12500000000000000       0.62500000000000000        0.0000000000000000     
  0.12500000000000000       0.68750000000000000        0.0000000000000000     
   3.7499999999999999E-002  0.66249999999999998        0.0000000000000000     
   8.1250000000000003E-002  0.66874999999999996        0.0000000000000000     
   8.7499999999999994E-002  0.71250000000000002        0.0000000000000000     
   4.3749999999999997E-002  0.70625000000000004        0.0000000000000000     
  0.18750000000000000       0.62500000000000000        0.0000000000000000     
  0.25000000000000000       0.62500000000000000        0.0000000000000000     
  0.25000000000000000       0.68750000000000000        0.0000000000000000     
  0.16250000000000001       0.66249999999999998        0.0000000000000000     
  0.20624999999999999       0.66874999999999996        0.0000000000000000     
  0.21249999999999999       0.71250000000000002        0.0000000000000000     
  0.16875000000000001       0.70625000000000004        0.0000000000000000     
   6.2500000000000000E-002  0.50000000000000000        0.0000000000000000     
  0.12500000000000000       0.50000000000000000        0.0000000000000000     
  0.12500000000000000       0.56250000000000000        0.0000000000000000     
   3.7499999999999999E-002  0.53749999999999998        0.0000000000000000     
   8.1250000000000003E-002  0.54374999999999996        0.0000000000000000     
   8.7499999999999994E-002  0.58750000000000002        0.0000000000000000     
   4.3749999999999997E-002  0.58125000000000004        0.0000000000000000     
  0.18750000000000000       0.50000000000000000        0.0000000000000000     
  0.25000000000000000       0.50000000000000000        0.0000000000000000     
  0.25000000000000000       0.56250000000000000        0.0000000000000000     
  0.16250000000000001       0.53749999999999998        0.0000000000000000     
  0.20624999999999999       0.54374999999999996        0.0000000000000000     
  0.21249999999999999       0.58750000000000002        0.0000000000000000     
  0.16875000000000001       0.58125000000000004        0.0000000000000000     
  0.31250000000000000       0.62500000000000000        0.0000000000000000     
  0.37500000000000000       0.62500000000000000        0.0000000000000000     
  0.37500000000000000       0.68750000000000000        0.0000000000000000     
  0.28749999999999998       0.66249999999999998        0.0000000000000000     
  0.33124999999999999       0.66874999999999996        0.0000000000000000     
  0.33750000000000002       0.71250000000000002        0.0000000000000000     
  0.29375000000000001       0.70625000000000004        0.0000000000000000     
  0.43750000000000000       0.62500000000000000        0.0000000000000000     
  0.50000000000000000       0.62500000000000000        0.0000000000000000     
  0.50000000000000000       0.68750000000000000        0.0000000000000000     
  0.41249999999999998       0.66249999999999998        0.0000000000000000     
  0.45624999999999999       0.66874999999999996        0.0000000000000000     
  0.46250000000000002       0.71250000000000002        0.0000000000000000     
  0.41875000000000001       0.70625000000000004        0.0000000000000000     
  0.31250000000000000       0.50000000000000000        0.0000000000000000     
  0.37500000000000000       0.50000000000000000        0.0000000000000000     
  0.37500000000000000       0.56250000000000000        0.0000000000000000     
  0.28749999999999998       0.53749999999999998        0.0000000000000000     
  0.33124999999999999       0.54374999999999996        0.0000000000000000     
  0.33750000000000002       0.58750000000000002        0.0000000000000000     
  0.29375000000000001       0.58125000000000004        0.0000000000000000     
  0.43750000000000000       0.50000000000000000        0.0000000000000000     
  0.50000000000000000       0.50000000000000000        0.0000000000000000     
  0.50000000000000000       0.56250000000000000        0.0000000000000000     
  0.41249999999999998       0.53749999999999998        0.0000000000000000     
  0.45624999999999999       0.54374999999999996        0.0000000000000000     
  0.46250000000000002       0.58750000000000002        0.0000000000000000     
  0.41875000000000001       0.58125000000000004        0.0000000000000000     
  0.56250000000000000       0.87500000000000000        0.0000000000000000     
  0.62500000000000000       0.87500000000000000        0.0000000000000000     
  0.62500000000000000       0.93750000000000000        0.0000000000000000     
  0.53749999999999998       0.91249999999999998        0.0000000000000000     
  0.58125000000000004       0.91874999999999996        0.0000000000000000     
  0.58750000000000002       0.96250000000000002        0.0000000000000000     
  0.54374999999999996       0.95625000000000004        0.0000000000000000     
  0.68750000000000000       0.87500000000000000        0.0000000000000000     
  0.75000000000000000       0.87500000000000000        0.0000000000000000     
  0.75000000000000000       0.93750000000000000        0.0000000000000000     
  0.66249999999999998       0.91249999999999998        0.0000000000000000     
  0.70625000000000004       0.91874999999999996        0.0000000000000000     
  0.71250000000000002       0.96250000000000002        0.0000000000000000     
[...]
 CELL_DATA         896
 SCALARS Cells_density float
 LOOKUP_TABLE default
    0.92279252759339780443E+00
    0.86016003014909026003E+00
    0.79229366650494292834E+00
    0.75384450728413388010E+00
    0.78263949740092297880E+00
    0.74257934207385978276E+00
    0.79537091230944234610E+00
    0.85589987096425790281E+00
    0.92490010004944434030E+00
    0.96237251530963274782E+00
    0.93343545562179708330E+00
    0.97526181352107488287E+00
    0.87070874636308359662E+00
    0.84940730752701743000E+00
    0.65393139283743029200E+00
    0.58829623796476138153E+00
    0.51205008165639342987E+00
    0.47483368010303306228E+00
    0.51081948296808665777E+00
    0.46629308753094472761E+00
    0.52679855439300216080E+00
    0.59059695091501451802E+00
    0.66398997622256927809E+00
    0.70367682026969602394E+00
    0.67114041447997896395E+00
    0.71204514126572338029E+00
    0.60345503054629623385E+00
    0.58200521468860977325E+00
    0.91836104677506236182E+00
    0.85298633389666922433E+00
    0.77858115295893037811E+00
    0.73826090264180854739E+00
    0.77137883840407572844E+00
    0.73166702074021383595E+00
    0.79171632019731341678E+00
    0.85068594890128035324E+00
    0.92423064773650853709E+00
    0.96224270258898925157E+00
    0.93053146357134142175E+00
    0.97517345150155443356E+00
    0.86527968769415175565E+00
    0.84468261827256674312E+00
    0.61648861836213064702E+00
    0.54297225125230397236E+00
    0.44947439980153697237E+00
    0.41163100777601985270E+00
    0.46706308582938693696E+00
    0.43155082953911788612E+00
    0.50618390182974426494E+00
    0.56596309282773982208E+00
    0.65292927176871806694E+00
    0.69080676598369228358E+00
    0.64875300842969318982E+00
    0.68954249270758327661E+00
    0.56946430818329107915E+00
    0.55017665020593964353E+00
    0.39994424507581272099E+00
    0.39995587629797701990E+00
    0.39994396928858350071E+00
    0.28426751797552152201E+00
    0.35495786695354830664E+00
    0.26669655376249656875E+00
    0.36749806537518869831E+00
    0.39995524971384543989E+00
    0.39997572541941445179E+00
    0.42647980560616155499E+00
    0.39995713123803094957E+00
    0.42943385960417090885E+00
    0.39996212976127182293E+00
    0.39996435192125850966E+00
    0.18646992532262829378E+00
    0.12777213890640243266E+00
    0.62942260884416886824E-01
    0.25975611414803902177E-01
    0.53859408676968659191E-01
    0.13757586462221926132E-01
    0.62987545586368043349E-01
    0.12343364949197851987E+00
    0.18635840127555736156E+00
    0.22380407302687738147E+00
    0.19651479199800858666E+00
    0.23685176075643102345E+00
    0.13585239415827027321E+00
    0.11435937359553836890E+00
    0.39994196219844291296E+00
    0.39994907846068661339E+00
    0.39994147861976481195E+00
    0.38248413685266241524E+00
    0.39995537219771731818E+00
    0.27211730831860625468E+00
    0.37025937174776546446E+00
    0.39995603099718923801E+00
    0.39994300256840858987E+00
    0.39994433818647939782E+00
    0.39995310616440266083E+00
    0.39994589800294200188E+00
    0.39996680995732769581E+00
    0.39995986702179608940E+00
    0.18729229292179150335E+00
    0.12778822502470041367E+00
    0.62942287259624474238E-01
    0.25975580059865405885E-01
    0.53859636162416658911E-01
    0.13757841020494621445E-01
    0.63042887714384321374E-01
    0.12343788344868618367E+00
    0.18641771548668242819E+00
    0.22431862670370181223E+00
    0.19703037512232871031E+00
    0.25137560277731774150E+00
    0.13586368083092126291E+00
    0.11435939115464810456E+00
    0.91299098302820458350E+00
    0.83836688954755467229E+00
    0.75439123426223808622E+00
    0.70553034005248649319E+00
    0.74404290058161992594E+00
    0.70162321082730383370E+00
    0.77712296171870276495E+00
    0.83769258264237356215E+00
    0.92129816178794965431E+00
    0.96086785698332677352E+00
    0.92595072441956804976E+00
    0.97376796985870583967E+00
    0.85379286662955655718E+00
    0.83354898904027052708E+00
    0.54950829744403428823E+00
    0.45708508808697195791E+00
    0.39985656788474410739E+00
    0.39994049379984764059E+00
    0.39989919160639220141E+00
    0.39994057761268569928E+00
    0.43751216320879537935E+00
    0.49545248367359562280E+00
    0.61372761234264294750E+00
    0.65514763137812659366E+00
    0.59384990421198724508E+00
    0.64189509605132011316E+00
    0.49138829755988089332E+00
    0.47297495967471792078E+00
    0.91157794043022422059E+00
    0.82493181097142420644E+00
    0.73805193591428308597E+00
    0.67520042571639915518E+00
    0.71214855927364872912E+00
    0.65674298893361748863E+00
    0.75221759568448876010E+00
    0.82037810430961088937E+00
    0.91639607329234396005E+00
    0.95862376873160826118E+00
    0.92151003369485062766E+00
    0.97206659889656332751E+00
    0.84190817731295908288E+00
    0.82033948552329405413E+00
    0.51012718861146799654E+00
    0.39989315147576259823E+00
    0.39991352765709758943E+00
    0.39993456453973363907E+00
    0.39995888658827838391E+00
    0.39993812233066911022E+00
    0.39988995119099174369E+00
    0.40929314963628826707E+00
    0.54753149978431492340E+00
    0.60263436902230016479E+00
    0.53189918770251765068E+00
    0.60041004166235012462E+00
    0.41617769786987807157E+00
    0.39983069738356791234E+00
    0.39994545239228207478E+00
    0.39994252211066594338E+00
    0.40013965577435334220E+00
    0.40030556831901048520E+00
    0.39991843365409418531E+00
    0.39994778974937494898E+00
    0.39994925240435263980E+00
    0.39995376356190426304E+00
    0.39994174922185282695E+00
    0.39994877690895780376E+00
    0.39994863407987452097E+00
    0.39993652253347289349E+00
    0.39996560052986973588E+00
    0.39996704704000041186E+00
    0.40986654670597116867E+00
    0.19962704666619546234E+00
    0.75470980673973370179E-01
    0.34083760922747265154E-01
    0.57878033776672735411E-01
    0.14072025278852578339E-01
    0.63051533723890426653E-01
    0.12370404796000863956E+00
    0.19415908011246404974E+00
    0.34884136752607342036E+00
    0.22342202368128069589E+00
    0.40302054358981781457E+00
    0.14235895041234694625E+00
    0.11592012146423542884E+00
    0.40007974860947786988E+00
    0.40319505901810698267E+00
    0.40985328195200632084E+00
    0.41381053899696157439E+00
    0.40936666849633368548E+00
    0.40992731287909855986E+00
    0.40280556692575514299E+00
    0.40026313031988713931E+00
    0.39992243402300647892E+00
    0.39995589064800640688E+00
    0.39992069732736718057E+00
    0.39994070855214869376E+00
    0.40041398148722689987E+00
    0.40260248773319046167E+00
    0.48447583645864911173E+00
    0.76886224641573230887E+00
    0.70055735145537101349E+00
    0.56369862658433556035E+00
    0.51307574242661257991E+00
    0.15795031147977203756E+00
    0.90567461736034429731E-01
    0.41606658713606031741E+00
    0.41222169137650399584E+00
    0.41256312855902549375E+00
    0.41768916740118883224E+00
    0.41724691240137090631E+00
    0.42218432349442891471E+00
    0.41947051099363197313E+00
    0.84539540394194221144E-04
    0.14096497403512870457E-05
    0.15407861478825189369E-03
    0.15301474974365608401E-03
   -0.96576194244136636009E-06
    0.88209606800116374713E-04
   -0.19398802610120254567E-04
   -0.25206639183496687981E-05
   -0.27479216995030694118E-04
    0.22052960167957602394E-03
    0.16212309898990488874E-04
    0.46392323314944894884E-03
    0.47693008696799609391E-03
    0.46878443461125510932E-03
    0.86335807497186080155E-04
   -0.19146298333642237065E-05
    0.15449280152188843581E-03
    0.15416037727388517530E-03
   -0.26916930211711285917E-05
    0.87479968081589047765E-04
   -0.20631866730792801660E-04
   -0.38029334979707924086E-05
   -0.28033709933445561486E-04
    0.15111161740621702329E-03
    0.30675053023176778290E-05
    0.86335776562016425294E-04
    0.48083938742510148965E-03
    0.47821529779060899983E-03
    0.84915817343184950609E-04
    0.14353892849201686712E-05
    0.15397271760807056378E-03
    0.15307995923815687165E-03
   -0.87524701380080937641E-06
    0.88322990794829046857E-04
    0.86923534622862914890E-04
    0.16014323024893556034E-05
    0.14991869925106386793E-03
    0.22645479005468401165E-03
    0.16429490023696080570E-04
    0.46400807679472874526E-03
    0.47629303997784723339E-03
    0.46874766890614080750E-03
    0.86523731300063201491E-04
   -0.19956215551951305049E-05
    0.15447302544617259054E-03
    0.15419898370972823448E-03
   -0.26917406300645220962E-05
    0.87543697779022034452E-04
    0.87095043611005030885E-04
   -0.16881289776814146705E-05
    0.15312560133974730632E-03
    0.15355725375042073434E-03
    0.29054113498285046751E-05
    0.86426384191907822509E-04
    0.48063711500434433107E-03
    0.47834730890260039084E-03
    0.86919505899365340218E-04
   -0.30298486306809668399E-05
    0.15462890939491012190E-03
    0.15453502297779885964E-03
   -0.32764324722021509093E-05
    0.87221234917022179246E-04
   -0.21042375767874803121E-04
   -0.42702187287468640646E-05
   -0.28208960349995458198E-04
    0.15305589431816892226E-03
   -0.14021540762892276133E-05
    0.86909080509666103908E-04
    0.48214944816820818696E-03
    0.48136562605050959348E-03
    0.87114895438164757866E-04
   -0.34391204907975173380E-05
    0.15393954435031074915E-03
   -0.28277958183951582818E-04
   -0.45951816366554361555E-05
   -0.21271799523205752196E-04
   -0.21271594757562258047E-04
   -0.44375163623476639640E-05
   -0.28264942848149322380E-04
    0.15371890664607064619E-03
   -0.29561846893862584666E-05
    0.87102805977225789924E-04
    0.48258316724245076124E-03
    0.48248829503610605280E-03
    0.86972130277045329744E-04
   -0.30664023075008175340E-05
    0.15462757100901896689E-03
    0.15454865289174561606E-03
   -0.32830735404726097684E-05
    0.87281322484934094883E-04
    0.87151454227705910387E-04
   -0.29049875179774502535E-05
    0.15420185840629935334E-03
    0.15432853496005386569E-03
   -0.15008868850633335713E-05
    0.86944953233427182699E-04
    0.48211769141977755745E-03
    0.48143556966276699173E-03
    0.87126974612345911434E-04
   -0.34470641548045387716E-05
    0.15394569164031934828E-03
   -0.28279020818302246475E-04
   -0.45954185896053630805E-05
   -0.21214657055390426395E-04
    0.87094517971153019315E-04
   -0.33315557785584317687E-05
    0.15456475521676517533E-03
    0.15458470389391151031E-03
   -0.29821548388665611654E-05
    0.87112728899464496974E-04
    0.48258428006828105270E-03
    0.48250793592569655608E-03
    0.92659376814933115674E-02
    0.53848679987529421073E-02
    0.21012036428729023198E-02
    0.28608530159841729767E-03
    0.81347230049134566668E-05
    0.88207768088869136750E-04
    0.86931056447237981823E-04
    0.11978626860666527254E-04
    0.15097205356037835867E-03
    0.37107266715369037957E-03
    0.29200304304406355001E-02
    0.78490172751729710143E-02
    0.21771284817777396270E-02
    0.77249357754820009280E-03
    0.86731496215615926744E-04
   -0.22834143390758006081E-05
    0.15449344730753905791E-03
    0.15427711007774647881E-03
   -0.27882399366622313927E-05
    0.87498316493551684466E-04
    0.87100615078091814854E-04
   -0.14737236646117325353E-05
    0.15323270961674736101E-03
    0.15351081801010820318E-03
    0.19391927117627052351E-05
    0.88340494674573179310E-04
    0.48064465809533084891E-03
    0.47890551356286894472E-03
    0.24342041448430853240E-01
    0.78141052710520731567E-02
    0.18166771777948587455E-02
    0.12055397756913493069E-02
    0.43345918226217741362E-02
    0.15741870451903561268E-02
    0.35869538370075374281E-02
    0.82003288386473648791E-02
    0.10848256510815466880E-01
    0.15923089620611653727E-01
    0.28539772781218948616E-01
    0.39478376304980183908E+00
    0.91206426213806222891E-02
    0.78983060886109249243E-02
    0.94535505465283888602E-04
   -0.24010274344800615971E-05
    0.15454843306740508220E-03
    0.15432255429792841590E-03
   -0.29600880248068264214E-05
    0.87433564169026045405E-04
    0.87108578492469009025E-04
   -0.21047084986998826339E-05
    0.15491565320614310926E-03
    0.28964779178543531265E-03
    0.12574424802303978333E-04
    0.38473906711068435026E-03
    0.48132863056923159235E-03
    0.47956716212437921348E-03
    0.87010890103060209693E-04
   -0.31396140762122920823E-05
    0.15463551550111767630E-03
    0.15456917614009292551E-03
   -0.33127938915032280310E-05
    0.87269016554781939825E-04
    0.87153831421410963599E-04
   -0.28981747717418735019E-05
    0.15424695229990147897E-03
    0.15434424691873073997E-03
   -0.17809192914248674490E-05
    0.86995930635705410149E-04
    0.48216147778787311548E-03
    0.48160271528895109072E-03
    0.87134052687453937449E-04
   -0.34607817842627343308E-05
    0.15395120360421068410E-03
   -0.28279333604509761317E-04
   -0.45944759527318947243E-05
   -0.21215562463847445978E-04
    0.87096249230716842049E-04
   -0.33337766230632663372E-05
    0.15457740971156830930E-03
    0.15459254059011401415E-03
   -0.30477062708723758955E-05
    0.87124436235139687541E-04
    0.48260193955928663758E-03
    0.48254280575445700078E-03
    0.86983812113933112599E-04
   -0.31954511381100394682E-05
    0.15465086072140166846E-03
    0.15458243771080377809E-03
   -0.33554254816917096461E-05
    0.87254448788810735557E-04
    0.87156611984305940944E-04
   -0.30364134855208430529E-05
    0.15432072986253838058E-03
    0.15441688212657021513E-03
   -0.20551505687191882251E-05
    0.87000511877792621783E-04
    0.48232619159747073439E-03
    0.48177960442096336244E-03
    0.87125807576052529345E-04
   -0.34579580214253848665E-05
    0.15395154973339299329E-03
   -0.28280853273460640176E-04
   -0.45922148186065094900E-05
   -0.21216651626453006927E-04
    0.87101404782871384149E-04
   -0.33698178863032337616E-05
    0.15459492692400229300E-03
    0.15461169423670477257E-03
   -0.31091780656334563101E-05
    0.87125792189542361705E-04
    0.48263562323141014033E-03
    0.48257813187896071412E-03
    0.91655143548868789338E+00
    0.82914256383293361008E+00
    0.75157264766212605878E+00
    0.68654228051531951404E+00
    0.71314658045493239946E+00
    0.64384112741582266715E+00
    0.73759221095591775974E+00
    0.81636211632243349534E+00
    0.91235318612205196231E+00
    0.95803698686576821419E+00
    0.92129688241297702511E+00
    0.97253785514609980556E+00
    0.84326680853018987083E+00
    0.81875177734301340937E+00
    0.54996457946024968066E+00
    0.42051448995615559046E+00
    0.39988337446684485421E+00
    0.39994769784768191556E+00
    0.39996075604719411034E+00
    0.39994309085900991985E+00
    0.39991356824028045924E+00
    0.39988920741213179744E+00
    0.51369332500496289740E+00
    0.58604440015804404318E+00
    0.53416473520748608550E+00
    0.61900766283309760496E+00
    0.42190619783621563510E+00
    0.39983421968842641769E+00
    0.92141329324145937463E+00
    0.84436407989065487278E+00
    0.77634783907016713389E+00
    0.72291377757622199418E+00
    0.74599471468322386958E+00
    0.68190315662199818547E+00
    0.75292606201161571544E+00
    0.83211783929674476568E+00
    0.91453643345609836324E+00
    0.96012605949481411027E+00
    0.92530904685263559717E+00
    0.97452822287631746256E+00
    0.85626865876885527307E+00
    0.83109774596657370882E+00
    0.61656178598877009467E+00
    0.50624581731247431104E+00
    0.43485872863114077846E+00
    0.39993714295765087074E+00
    0.39988867626511170883E+00
    0.39994876393707989859E+00
    0.39986244321219999165E+00
    0.45098824416862470787E+00
    0.55771858640934335316E+00
    0.62888150166000300612E+00
    0.59715370030410652724E+00
    0.67080880876212534147E+00
    0.50270952072789221177E+00
    0.46662742112313154719E+00
    0.39992606503529859463E+00
    0.40006252738434094907E+00
    0.40182944724502078770E+00
    0.40793022715987559135E+00
    0.40937546623958825931E+00
    0.41532368929400587110E+00
    0.40987939918878868450E+00
    0.40313945771214881875E+00
    0.40004836448576258645E+00
    0.39994194409821076652E+00
    0.39998274644233200448E+00
    0.39992302484270048080E+00
    0.40026680835489686361E+00
    0.40303651172175258832E+00
    0.41104244698769948352E+00
    0.28413042864266702114E+00
    0.80110117618082288260E-01
    0.13900055848627437816E+00
    0.52802830708616210753E+00
    0.49283444236429330143E+00
    0.69291124753537625125E+00
    0.77091102149703727431E+00
    0.50550956194298657387E+00
    0.41827306181120182949E+00
    0.41739564514753246804E+00
    0.41111157816218202310E+00
    0.41881260267593312108E+00
    0.41987533651210440233E+00
    0.39993826083688466255E+00
    0.39996249102093994754E+00
    0.39992813699208035194E+00
    0.39995405543596335152E+00
    0.39991385600125162192E+00
    0.40016059457931296706E+00
    0.40003973468391912371E+00
    0.39992900555328364520E+00
    0.39994495029494586680E+00
    0.39994247551232015025E+00
    0.39996752083769060437E+00
    0.39994077962160223816E+00
    0.39994596955686856354E+00
    0.39996376712233716599E+00
    0.19591998049422865158E+00
    0.12808252194457167561E+00
    0.62949863393030422443E-01
    0.26194384172994158305E-01
    0.57631308210879278464E-01
    0.21388056327892129155E-01
    0.75645925061557775515E-01
    0.18187362488170730201E+00
    0.40816925733967179823E+00
    0.40223994808500085352E+00
    0.24008982869904843538E+00
    0.39991871304395171238E+00
    0.13813891839223771396E+00
    0.11898955925317990234E+00
    0.92420883168235579141E+00
    0.85605249406395322875E+00
    0.79142024598205629182E+00
    0.74747667404533324476E+00
    0.77258684057668347567E+00
    0.72140009525233261822E+00
    0.77733822286329401496E+00
    0.84796101979308791119E+00
    0.91966763557292774411E+00
    0.96186802776069935117E+00
    0.93018999771071941840E+00
    0.97534315167926666224E+00
    0.86670358073665465515E+00
    0.84322816074389994601E+00
    0.65408002711204349389E+00
    0.57299458390615554126E+00
    0.50520561070091662970E+00
    0.45196983278818486651E+00
    0.46808843874610051028E+00
    0.40134357082819044349E+00
    0.44687532419142361739E+00
    0.53776476666512151859E+00
    0.62209719092424553555E+00
    0.67688398113965586589E+00
    0.64971650214069243123E+00
    0.70452810968095858080E+00
    0.57553856738758069067E+00
    0.54578619382242932190E+00
    0.92468855910367253603E+00
    0.86084698235082279805E+00
    0.79570109216159867760E+00
    0.75646997290309880846E+00
    0.78306659477849605011E+00
    0.73970177356860178364E+00
    0.79167245174235734151E+00
    0.85543195806386318480E+00
    0.92350894711742292920E+00
    0.96238964612924693398E+00
    0.93330687919646904138E+00
    0.97511983082825837155E+00
    0.87107408522086271496E+00
    0.84917196439872844049E+00
    0.66355686280276116040E+00
    0.59606656956194359331E+00
    0.52706295153705462475E+00
    0.48522572121126544831E+00
    0.51113005636894992545E+00
    0.45578815193317928633E+00
    0.51066172401668163960E+00
    0.58347090532082801495E+00
    0.65626037486770805174E+00
    0.69956273810441016447E+00
    0.67142154898021622067E+00
    0.71641528695119993664E+00
    0.60491051219403302319E+00
    0.58105599507823368910E+00
    0.39994532128421872441E+00
    0.39995238655117199000E+00
    0.39133708082311613463E+00
    0.28673272245273678793E+00
    0.39994646300474112621E+00
    0.37897844350882320397E+00
    0.39995040537397968938E+00
    0.39994774854381470730E+00
    0.39994904573388967428E+00
    0.39994209095917188090E+00
    0.39995752764558656356E+00
    0.40881286841370517715E+00
    0.39996128929573737665E+00
    0.39996557165048368665E+00
    0.18648296811362063963E+00
    0.12777262125373392565E+00
    0.62942290317049801041E-01
    0.25975587189417021633E-01
    0.53859548021940463480E-01
    0.13757939366788183438E-01
    0.63043231673692717854E-01
    0.12345810875192597678E+00
    0.18733810599386743756E+00
    0.23675874227729645782E+00
    0.19698566129162772831E+00
    0.23726526409294146358E+00