# vtk DataFile Version 3.0
LAPLACIEN  2D
ASCII
DATASET UNSTRUCTURED_GRID
 POINTS         481  float
   6.2500000000000000E-002  0.87500000000000000        0.0000000000000000     
  0.12500000000000000       0.87500000000000000        0.0000000000000000     
  0.12500000000000000       0.93750000000000000        0.0000000000000000     
   3.7499999999999999E-002  0.91249999999999998        0.0000000000000000     
   8.1250000000000003E-002  0.91874999999999996        0.0000000000000000     
   8.7499999999999994E-002  0.96250000000000002        0.0000000000000000     
   4.3749999999999997E-002  0.95625000000000004        0.0000000000000000     
  0.18750000000000000       0.87500000000000000        0.0000000000000000     
  0.25000000000000000       0.87500000000000000        0.0000000000000000     
  0.25000000000000000       0.93750000000000000        0.0000000000000000     
  0.16250000000000001       0.91249999999999998        0.0000000000000000     
  0.20624999999999999       0.91874999999999996        0.0000000000000000     
  0.21249999999999999       0.96250000000000002        0.0000000000000000     
  0.16875000000000001       0.95625000000000004        0.0000000000000000     
   6.2500000000000000E-002  0.75000000000000000        0.0000000000000000     
  0.12500000000000000       0.75000000000000000        0.0000000000000000     
  0.12500000000000000       0.81250000000000000        0.0000000000000000     
   3.7499999999999999E-002  0.78749999999999998        0.0000000000000000     
   8.1250000000000003E-002  0.79374999999999996        0.0000000000000000     
   8.7499999999999994E-002  0.83750000000000002        0.0000000000000000     
   4.3749999999999997E-002  0.83125000000000004        0.0000000000000000     
  0.18750000000000000       0.75000000000000000        0.0000000000000000     
  0.25000000000000000       0.75000000000000000        0.0000000000000000     
  0.25000000000000000       0.81250000000000000        0.0000000000000000     
  0.16250000000000001       0.78749999999999998        0.0000000000000000     
  0.20624999999999999       0.79374999999999996        0.0000000000000000     
  0.21249999999999999       0.83750000000000002        0.0000000000000000     
  0.16875000000000001       0.83125000000000004        0.0000000000000000     
  0.31250000000000000       0.87500000000000000        0.0000000000000000     
  0.37500000000000000       0.87500000000000000        0.0000000000000000     
  0.37500000000000000       0.93750000000000000        0.0000000000000000     
  0.28749999999999998       0.91249999999999998        0.0000000000000000     
  0.33124999999999999       0.91874999999999996        0.0000000000000000     
  0.33750000000000002       0.96250000000000002        0.0000000000000000     
  0.29375000000000001       0.95625000000000004        0.0000000000000000     
  0.43750000000000000       0.87500000000000000        0.0000000000000000     
  0.50000000000000000       0.87500000000000000        0.0000000000000000     
  0.50000000000000000       0.93750000000000000        0.0000000000000000     
  0.41249999999999998       0.91249999999999998        0.0000000000000000     
  0.45624999999999999       0.91874999999999996        0.0000000000000000     
  0.46250000000000002       0.96250000000000002        0.0000000000000000     
  0.41875000000000001       0.95625000000000004        0.0000000000000000     
  0.31250000000000000       0.75000000000000000        0.0000000000000000     
  0.37500000000000000       0.75000000000000000        0.0000000000000000     
  0.37500000000000000       0.81250000000000000        0.0000000000000000     
  0.28749999999999998       0.78749999999999998        0.0000000000000000     
  0.33124999999999999       0.79374999999999996        0.0000000000000000     
  0.33750000000000002       0.83750000000000002        0.0000000000000000     
  0.29375000000000001       0.83125000000000004        0.0000000000000000     
  0.43750000000000000       0.75000000000000000        0.0000000000000000     
  0.50000000000000000       0.75000000000000000        0.0000000000000000     
  0.50000000000000000       0.81250000000000000        0.0000000000000000     
  0.41249999999999998       0.78749999999999998        0.0000000000000000     
  0.45624999999999999       0.79374999999999996        0.0000000000000000     
  0.46250000000000002       0.83750000000000002        0.0000000000000000     
  0.41875000000000001       0.83125000000000004        0.0000000000000000     
   6.2500000000000000E-002  0.62500000000000000        0.0000000000000000     
  0.12500000000000000       0.62500000000000000        0.0000000000000000     
  0.12500000000000000       0.68750000000000000        0.0000000000000000     
   3.7499999999999999E-002  0.66249999999999998        0.0000000000000000     
   8.1250000000000003E-002  0.66874999999999996        0.0000000000000000     
   8.7499999999999994E-002  0.71250000000000002        0.0000000000000000     
   4.3749999999999997E-002  0.70625000000000004        0.0000000000000000     
  0.18750000000000000       0.62500000000000000        0.0000000000000000     
  0.25000000000000000       0.62500000000000000        0.0000000000000000     
  0.25000000000000000       0.68750000000000000        0.0000000000000000     
  0.16250000000000001       0.66249999999999998        0.0000000000000000     
  0.20624999999999999       0.66874999999999996        0.0000000000000000     
  0.21249999999999999       0.71250000000000002        0.0000000000000000     
  0.16875000000000001       0.70625000000000004        0.0000000000000000     
   6.2500000000000000E-002  0.50000000000000000        0.0000000000000000     
  0.12500000000000000       0.50000000000000000        0.0000000000000000     
  0.12500000000000000       0.56250000000000000        0.0000000000000000     
   3.7499999999999999E-002  0.53749999999999998        0.0000000000000000     
   8.1250000000000003E-002  0.54374999999999996        0.0000000000000000     
   8.7499999999999994E-002  0.58750000000000002        0.0000000000000000     
   4.3749999999999997E-002  0.58125000000000004        0.0000000000000000     
  0.18750000000000000       0.50000000000000000        0.0000000000000000     
  0.25000000000000000       0.50000000000000000        0.0000000000000000     
  0.25000000000000000       0.56250000000000000        0.0000000000000000     
  0.16250000000000001       0.53749999999999998        0.0000000000000000     
  0.20624999999999999       0.54374999999999996        0.0000000000000000     
  0.21249999999999999       0.58750000000000002        0.0000000000000000     
  0.16875000000000001       0.58125000000000004        0.0000000000000000     
  0.31250000000000000       0.62500000000000000        0.0000000000000000     
  0.37500000000000000       0.62500000000000000        0.0000000000000000     
  0.37500000000000000       0.68750000000000000        0.0000000000000000     
  0.28749999999999998       0.66249999999999998        0.0000000000000000     
  0.33124999999999999       0.66874999999999996        0.0000000000000000     
  0.33750000000000002       0.71250000000000002        0.0000000000000000     
  0.29375000000000001       0.70625000000000004        0.0000000000000000     
  0.43750000000000000       0.62500000000000000        0.0000000000000000     
  0.50000000000000000       0.62500000000000000        0.0000000000000000     
  0.50000000000000000       0.68750000000000000        0.0000000000000000     
  0.41249999999999998       0.66249999999999998        0.0000000000000000     
  0.45624999999999999       0.66874999999999996        0.0000000000000000     
  0.46250000000000002       0.71250000000000002        0.0000000000000000     
  0.41875000000000001       0.70625000000000004        0.0000000000000000     
  0.31250000000000000       0.50000000000000000        0.0000000000000000     
  0.37500000000000000       0.50000000000000000        0.0000000000000000     
  0.37500000000000000       0.56250000000000000        0.0000000000000000     
  0.28749999999999998       0.53749999999999998        0.0000000000000000     
  0.33124999999999999       0.54374999999999996        0.0000000000000000     
  0.33750000000000002       0.58750000000000002        0.0000000000000000     
  0.29375000000000001       0.58125000000000004        0.0000000000000000     
  0.43750000000000000       0.50000000000000000        0.0000000000000000     
  0.50000000000000000       0.50000000000000000        0.0000000000000000     
  0.50000000000000000       0.56250000000000000        0.0000000000000000     
  0.41249999999999998       0.53749999999999998        0.0000000000000000     
  0.45624999999999999       0.54374999999999996        0.0000000000000000     
  0.46250000000000002       0.58750000000000002        0.0000000000000000     
  0.41875000000000001       0.58125000000000004        0.0000000000000000     
  0.56250000000000000       0.87500000000000000        0.0000000000000000     
  0.62500000000000000       0.87500000000000000        0.0000000000000000     
  0.62500000000000000       0.93750000000000000        0.0000000000000000     
  0.53749999999999998       0.91249999999999998        0.0000000000000000     
  0.58125000000000004       0.91874999999999996        0.0000000000000000     
  0.58750000000000002       0.96250000000000002        0.0000000000000000     
  0.54374999999999996       0.95625000000000004        0.0000000000000000     
  0.68750000000000000       0.87500000000000000        0.0000000000000000     
  0.75000000000000000       0.87500000000000000        0.0000000000000000     
  0.75000000000000000       0.93750000000000000        0.0000000000000000     
  0.66249999999999998       0.91249999999999998        0.0000000000000000     
  0.70625000000000004       0.91874999999999996        0.0000000000000000     
  0.71250000000000002       0.96250000000000002        0.0000000000000000     
[...]
 CELL_DATA         896
 SCALARS Cells_density float
 LOOKUP_TABLE default
    0.92615126142993520197E+00
    0.86622673521193349622E+00
    0.80040736693897884813E+00
    0.76356404779578324060E+00
    0.79095025398498297609E+00
    0.75137363972940984791E+00
    0.80181101667620924278E+00
    0.86157935579642253021E+00
    0.92724763367545404158E+00
    0.96472307612525765030E+00
    0.93659460306003694541E+00
    0.97746706512874625972E+00
    0.87481586335596306370E+00
    0.85365025347845513437E+00
    0.67345227811094487969E+00
    0.61352557911402161306E+00
    0.54717290367224979963E+00
    0.51075790451955782601E+00
    0.53928000013279575597E+00
    0.50007063448488231483E+00
    0.55040675628462565339E+00
    0.61026025150765772498E+00
    0.67647095987333416556E+00
    0.71385527849626784214E+00
    0.68553988479247163212E+00
    0.72511630563922235826E+00
    0.62295949177007758912E+00
    0.60208699897955508806E+00
    0.92436654188330991122E+00
    0.86420286279011582220E+00
    0.79642338468594264800E+00
    0.75977683947833596356E+00
    0.78781729153645185804E+00
    0.74811686512069197619E+00
    0.80097288813269174046E+00
    0.85951567211952129011E+00
    0.92705751386556189964E+00
    0.96493467230775986643E+00
    0.93536390205974317968E+00
    0.97769170374753466835E+00
    0.87288977714225857163E+00
    0.85245654375135693215E+00
    0.66509467861278037670E+00
    0.60413768326003436382E+00
    0.53401846017858800586E+00
    0.49864290200321709223E+00
    0.53010187346402293240E+00
    0.49299451707268909795E+00
    0.54657918152807338785E+00
    0.60446903947973040783E+00
    0.67427005264355610592E+00
    0.71072517012022951022E+00
    0.68055615287535053959E+00
    0.71991926045303333837E+00
    0.61536065808910744845E+00
    0.59606981968604133559E+00
    0.42127892086230794844E+00
    0.38889753087635625661E+00
    0.30942541426155562023E+00
    0.27228383668159894526E+00
    0.29973743995503226989E+00
    0.25992578819774186938E+00
    0.30948420283278027521E+00
    0.39463148576866219353E+00
    0.42532555895585189010E+00
    0.46258618183632560505E+00
    0.43402428347066085434E+00
    0.47271983228037683933E+00
    0.39999060832887345374E+00
    0.36173699956988331072E+00
    0.18567561607054716699E+00
    0.12602477975587100811E+00
    0.61940692628708257650E-01
    0.24826900141793478705E-01
    0.52295868350404124680E-01
    0.12460540569866767474E-01
    0.61943824534667173143E-01
    0.12171829947335377486E+00
    0.18566921529873980923E+00
    0.22279196610115467592E+00
    0.19538538867107774211E+00
    0.23518274485100190696E+00
    0.13465574522806234015E+00
    0.11301291280952381613E+00
    0.40417385014075313254E+00
    0.40005207168517986638E+00
    0.36118935588080280930E+00
    0.27243953663826381284E+00
    0.30804119133407348308E+00
    0.25993116569393320825E+00
    0.31107058653747399202E+00
    0.39998282368706294942E+00
    0.41894527378421603236E+00
    0.45514454393936698562E+00
    0.42314680618364702847E+00
    0.45877677199322114410E+00
    0.39997777099779679988E+00
    0.40001672790547898595E+00
    0.18567561649622346676E+00
    0.12602477978686280058E+00
    0.61940692630406246622E-01
    0.24826900157910395534E-01
    0.52295868348720742080E-01
    0.12460540432778445877E-01
    0.61947681168432328080E-01
    0.12171830893767655868E+00
    0.18567141487263100208E+00
    0.22279197445297632685E+00
    0.19538538921383610814E+00
    0.23518320279493878933E+00
    0.13465574523032322607E+00
    0.11301291280805307593E+00
    0.92290033566352103200E+00
    0.86017377454531096515E+00
    0.79074135469751027916E+00
    0.75274157029500243787E+00
    0.78061676585233363834E+00
    0.74097747024700766350E+00
    0.79749216764198938012E+00
    0.85531497475331508262E+00
    0.92628516752549061586E+00
    0.96457958058742210294E+00
    0.93396014388605386181E+00
    0.97733533984890430535E+00
    0.86933051317642096034E+00
    0.84984303901453839281E+00
    0.65167222160588167412E+00
    0.58407603327028945195E+00
    0.50859596254928662873E+00
    0.47189516904616662929E+00
    0.50720751607947467399E+00
    0.47234086773736722042E+00
    0.53199605285834439261E+00
    0.58844874076210251790E+00
    0.66675198052175177477E+00
    0.70306580954130504235E+00
    0.66939672859604770760E+00
    0.70973052537004066576E+00
    0.59796757630420172003E+00
    0.58085368254666824850E+00
    0.92324967874895080833E+00
    0.85638375667885213716E+00
    0.78771387079274424181E+00
    0.74672616167001160115E+00
    0.77382730082290696050E+00
    0.73138554218427520581E+00
    0.79175013688093276443E+00
    0.85096268612922010277E+00
    0.92518251015273633708E+00
    0.96368007968481850245E+00
    0.93320566374920299602E+00
    0.97645801185204272876E+00
    0.86628968864019584295E+00
    0.84694214198661843529E+00
    0.64462771327094270379E+00
    0.56579198094298954747E+00
    0.49051593817478988946E+00
    0.44715311101184718190E+00
    0.47967608038005732363E+00
    0.44111377873923196535E+00
    0.50570719233201733012E+00
    0.56507613791541544401E+00
    0.65390814574607436516E+00
    0.69284958223339809802E+00
    0.65664646586493324865E+00
    0.70162719091358927148E+00
    0.57897733859057587402E+00
    0.56191257054442245167E+00
    0.40001444830630861205E+00
    0.40003760528197340740E+00
    0.39997378256874854818E+00
    0.36151834817267536337E+00
    0.40010089012149274712E+00
    0.26032280619399711385E+00
    0.33334950957006742600E+00
    0.40005995906199914858E+00
    0.39998766662285256679E+00
    0.43327915808028261146E+00
    0.39999753798997955689E+00
    0.42993963026034220931E+00
    0.39998399585614502483E+00
    0.39994788389414159813E+00
    0.18568077641164099090E+00
    0.12602571847393526094E+00
    0.62337234515325717910E-01
    0.24827047989964479840E-01
    0.52295870734550824188E-01
    0.12460540501306042668E-01
    0.61947681178548229253E-01
    0.12171831002617308770E+00
    0.18567141686979188320E+00
    0.22279331959402309815E+00
    0.19538574622941670689E+00
    0.23551205693102672534E+00
    0.13465574190526408138E+00
    0.11301291272836727630E+00
    0.39994475954090702441E+00
    0.40018477782790423669E+00
    0.40016931497852686883E+00
    0.39956268427260982490E+00
    0.40025001607245058732E+00
    0.39946312622472313070E+00
    0.40004790513612636937E+00
    0.40012087472126517396E+00
    0.39998613617795275577E+00
    0.40043052444953974867E+00
    0.39993587066321178991E+00
    0.40449972370031500590E+00
    0.40024493451693898827E+00
    0.39970194312274542892E+00
    0.45072525827428683298E+00
    0.48028562955375303511E+00
    0.14331766883747440455E+00
    0.65877851461193528970E-01
    0.12504789047139258651E+00
    0.60076890104903669931E-01
    0.73500534907774278670E-01
    0.14523223276120256209E+00
    0.19341120228805053216E+00
    0.40074388292780366294E+00
    0.42227000118029572873E+00
    0.40835548124403009407E+00
    0.20617131796271578881E+00
    0.17916584957431186398E+00
    0.53221420123381251528E-05
   -0.10854870552289946941E-05
    0.97756005182390500878E-05
    0.97713737735064645003E-05
   -0.10931079752695309515E-05
    0.53352516643175564379E-05
   -0.13367436868681510879E-05
   -0.10930263443125500888E-05
   -0.18508914633983805448E-05
    0.14033218114676035648E-04
   -0.10282930611658133612E-05
    0.28264777925952471886E-04
    0.31872518466049114413E-04
    0.31833854472388663042E-04
    0.53275906700027501748E-05
   -0.10982665669122178342E-05
    0.97763775267856672197E-05
    0.97749998429028986516E-05
   -0.11007620041926171268E-05
    0.53319098807459107517E-05
   -0.13404714005885006327E-05
   -0.11007798689996279826E-05
   -0.18522269298927477259E-05
    0.97676906557225963668E-05
   -0.10795227415112303465E-05
    0.53278321981170279341E-05
    0.31883749038596379368E-04
    0.31871116617133986337E-04
    0.53222714044152781083E-05
   -0.10854892410902963200E-05
    0.97756179315156524641E-05
    0.97713825776002574783E-05
   -0.10930951170788639913E-05
    0.53352168572401853237E-05
    0.53301474219251691712E-05
   -0.10851992104660278886E-05
    0.97611891832272979755E-05
    0.14051008354915605603E-04
   -0.10282879944053645914E-05
    0.28264797527189941230E-04
    0.31872461033398560111E-04
    0.31833820198211904603E-04
    0.53276051459888973700E-05
   -0.10982659100719359010E-05
    0.97763782185213272643E-05
    0.97750002472824161937E-05
   -0.11007592225543457960E-05
    0.53318795169273405194E-05
    0.53302306769561419236E-05
   -0.10981539503946944356E-05
    0.97716511687041391997E-05
    0.97735287064806491102E-05
   -0.10795125540204401854E-05
    0.53278357912982563611E-05
    0.31883737607572506948E-04
    0.31871103633685251807E-04
    0.53294018580096095097E-05
   -0.11025030809824438510E-05
    0.97766268691199513806E-05
    0.97762133462405400105E-05
   -0.11033168704265823993E-05
    0.53307749402829013828E-05
   -0.13417149911894629147E-05
   -0.11033569853384784122E-05
   -0.18526612172819265406E-05
    0.97738183580061751009E-05
   -0.10964435849854225872E-05
    0.53294826919282189005E-05
    0.31887427581834693199E-04
    0.31883476246887168103E-04
    0.53300402097464209562E-05
   -0.11040343573369862838E-05
    0.97766142420856099533E-05
   -0.18528241779356580064E-05
   -0.11045279941990200066E-05
   -0.13422412382766688313E-05
   -0.13422391830192534640E-05
   -0.11042621358665898050E-05
   -0.18527984933706230846E-05
    0.97759096989177679245E-05
   -0.11023512500125994058E-05
    0.53300467347733844026E-05
    0.31888637544744492575E-04
    0.31887953341809075207E-04
    0.53294028546084963331E-05
   -0.11025039004685794650E-05
    0.97766270226273817398E-05
    0.97762137174528799166E-05
   -0.11033168741240645967E-05
    0.53307475336568960769E-05
    0.53302581752700790261E-05
   -0.11024532397244356472E-05
    0.97751109901697971424E-05
    0.97757036893743186779E-05
   -0.10964446467280976184E-05
    0.53294833199892062802E-05
    0.31887427194131321459E-04
    0.31883475969499327758E-04
    0.53300399159957150268E-05
   -0.11040351119825896962E-05
    0.97766134002105563289E-05
   -0.18528242740049676725E-05
   -0.11045277926002170646E-05
   -0.13422374375501968161E-05
    0.53302662911682387788E-05
   -0.11039894381530363549E-05
    0.97763160710718633974E-05
    0.97764377154621384452E-05
   -0.11023507359748886932E-05
    0.53300465369556632687E-05
    0.31888642290735276920E-04
    0.31887951952253558116E-04
    0.37553294044103974897E-03
   -0.95699167444764990410E-06
    0.97837770601555157124E-05
    0.97727271232492579411E-05
   -0.10927517999994604458E-05
    0.53352084837141975713E-05
    0.53301418082951461386E-05
   -0.10833181491851660056E-05
    0.97612749811971348676E-05
    0.14050399464736150343E-04
   -0.10298108125590619834E-05
    0.28781470154814532719E-04
    0.31865811757657465375E-04
    0.31837635785163123734E-04
    0.53285136580886234575E-05
   -0.10984729058673820849E-05
    0.97764136750657287594E-05
    0.97750257016080260424E-05
   -0.11007646233548428599E-05
    0.53318791462836087486E-05
    0.53302301140836571975E-05
   -0.10980932692127579022E-05
    0.97716733980369512117E-05
    0.97735142250989875913E-05
   -0.10799665879082061522E-05
    0.53282215392185425140E-05
    0.31883710586405125957E-04
    0.31871315289800791705E-04
    0.31799114834443684141E-01
    0.22331199637291243576E-01
    0.10824826384621490105E-01
    0.38406212133199378947E-02
    0.38381769120374529397E-02
    0.29960653893703789155E-04
    0.30031064830001665298E-04
    0.40214598363688403015E-02
    0.91163174957715753521E-02
    0.37914916722429831131E-01
    0.26142427801691844186E-01
    0.35203554371834769321E-01
    0.18763509518609115118E-01
    0.14703516405770106559E-01
    0.53599474255094942408E-05
   -0.11003252272395940728E-05
    0.97767134715546526115E-05
    0.97752076032624435976E-05
   -0.11010841398195099776E-05
    0.53318663643982563605E-05
    0.53302511212760171849E-05
   -0.10976597410047087193E-05
    0.97730498448638417172E-05
    0.97760661122487754640E-05
   -0.10448442992263856569E-05
    0.11082299333435516331E-03
    0.31887530019836676060E-04
    0.31875612956998467396E-04
    0.53294076196465325860E-05
   -0.11025049720804080593E-05
    0.97766271881288375957E-05
    0.97762141711566675773E-05
   -0.11033172186010559317E-05
    0.53307470252481267217E-05
    0.53302580940364209880E-05
   -0.11024527467067023888E-05
    0.97751118485328129532E-05
    0.97757040778284275774E-05
   -0.10964515848036819365E-05
    0.53294881452511842860E-05
    0.31887427131039421861E-04
    0.31883479967626183115E-04
    0.53300414618858771906E-05
   -0.11040346143006366912E-05
    0.97766150381352324544E-05
   -0.18528244687885524148E-05
   -0.11045282776963239233E-05
   -0.13422377169475110199E-05
    0.53302669808964510672E-05
   -0.11039885310433574389E-05
    0.97763166442070171001E-05
    0.97764377018628398239E-05
   -0.11023530850381327765E-05
    0.53300472324257289474E-05
    0.31888638701937818383E-04
    0.31887954317179657035E-04
    0.53294147894443563723E-05
   -0.11025095550791341235E-05
    0.97766279297585007539E-05
    0.97762141535494834882E-05
   -0.11033171820318843889E-05
    0.53307470809221183430E-05
    0.53302576803238438114E-05
   -0.11024522207962452040E-05
    0.97751213992513155530E-05
    0.97757315784786475669E-05
   -0.10965047583641630813E-05
    0.53295240930314677092E-05
    0.31887447078731601558E-04
    0.31883491887866117944E-04
    0.53300414671583362617E-05
   -0.11040341066530971163E-05
    0.97766151267099810507E-05
   -0.18528243151194137250E-05
   -0.11045281217448943442E-05
   -0.13422375686015572399E-05
    0.53302652353860350710E-05
   -0.11039838831171552645E-05
    0.97763161812733248655E-05
    0.97764368245772180857E-05
   -0.11023515931739579913E-05
    0.53300474497446828496E-05
    0.31888635550699962113E-04
    0.31887952540744883827E-04
    0.92528433765220752250E+00
    0.85668906484754303587E+00
    0.79109061122555379697E+00
    0.74869893662752995400E+00
    0.77428824933835538324E+00
    0.72885959943565137298E+00
    0.78797200855625537663E+00
    0.85067455255757229438E+00
    0.92354378932124459034E+00
    0.96356113431799184088E+00
    0.93296991971540743638E+00
    0.97656035550300135384E+00
    0.86698623044922418224E+00
    0.84629192144503606610E+00
    0.65367991083115595252E+00
    0.57298991183527914206E+00
    0.50474673279186654806E+00
    0.45710885239127929669E+00
    0.48002420483831836906E+00
    0.43195641398851736259E+00
    0.49072700432522359248E+00
    0.55832527765162431876E+00
    0.64632440107998800904E+00
    0.68971262443890302141E+00
    0.65690036301567478194E+00
    0.70516998200974789768E+00
    0.58103339118667629570E+00
    0.56024594808765026954E+00
    0.92632997005331474405E+00
    0.86039916328391363720E+00
    0.79686916491092485426E+00
    0.75576097252261631443E+00
    0.78190916639624874485E+00
    0.73687425217562518842E+00
    0.79048456318622495331E+00
    0.85525954011506133412E+00
    0.92354545637360785371E+00
    0.96444693973569184386E+00
    0.93347235328189692716E+00
    0.97751771224326844401E+00
    0.87075090123008980214E+00
    0.84841668286427618373E+00
    0.66712327860063180829E+00
    0.59473390155336713914E+00
    0.53115443073449564171E+00
    0.48686866231425263152E+00
    0.50784001097255893065E+00
    0.45778846864140188000E+00
    0.50793436026363025793E+00
    0.57841315501754531070E+00
    0.65413349014443178397E+00
    0.69788819008712266179E+00
    0.66954994004033430155E+00
    0.71568018956009937792E+00
    0.60139817987414467826E+00
    0.57820542101996996731E+00
    0.40010404635939383899E+00
    0.39987261431401566192E+00
    0.40022558177019218473E+00
    0.39980041712037045487E+00
    0.40012633175835238264E+00
    0.39963238740662720971E+00
    0.40018661253877807482E+00
    0.39994339876750539808E+00
    0.40011897203578788984E+00
    0.39995992387219336806E+00
    0.40012592914349420781E+00
    0.41508943635623163360E+00
    0.40000086882643143271E+00
    0.39989517969568788569E+00
    0.19223187945103345498E+00
    0.13482724325498168794E+00
    0.73002315702172221323E-01
    0.69369457160415370911E-01
    0.12587717515754484610E+00
    0.52916838096366380917E-01
    0.12144341035775174653E+00
    0.48090755946074853489E+00
    0.44717648037113005843E+00
    0.40793796531626269619E+00
    0.28767500219978608955E+00
    0.40040263237172274424E+00
    0.18641661725923902582E+00
    0.18435475833791564737E+00
    0.40001011218417636961E+00
    0.39994411941143936939E+00
    0.36220834418775366137E+00
    0.27282948228858400208E+00
    0.40011010557723691861E+00
    0.34688724213571858757E+00
    0.39987642524259831012E+00
    0.40012215567787295933E+00
    0.39994420186834722664E+00
    0.41668401121640197271E+00
    0.40001948159572647823E+00
    0.44687913681787266862E+00
    0.40003538022897261461E+00
    0.39994381362095804411E+00
    0.18567561908033131113E+00
    0.12602477962647851140E+00
    0.61940692760462073840E-01
    0.24826900399947518516E-01
    0.52295868545799560623E-01
    0.12460681541806600814E-01
    0.62413558134094077046E-01
    0.12171928505393274367E+00
    0.18567497995954934664E+00
    0.22304060935494238183E+00
    0.19538566331118009667E+00
    0.23518512548631151371E+00
    0.13465574745472047580E+00
    0.11301291419359399404E+00
    0.92708853284085424029E+00
    0.86422857640691475023E+00
    0.80070972489794189908E+00
    0.76152099330507505570E+00
    0.78862602747533538938E+00
    0.74594104436507546740E+00
    0.79608823823922314489E+00
    0.85969137424811004067E+00
    0.92496183141882326595E+00
    0.96487060186689554975E+00
    0.93511665221173434492E+00
    0.97763101595796986221E+00
    0.87384628787497831137E+00
    0.85140472585870385913E+00
    0.67453800294685251071E+00
    0.60950217735967604504E+00
    0.54616319699384352493E+00
    0.50615761076281362563E+00
    0.53056940734842139573E+00
    0.48556550787182795048E+00
    0.53331121514470081202E+00
    0.59944018587702552203E+00
    0.66674808434489951647E+00
    0.70791142891014580130E+00
    0.68020930367581111664E+00
    0.72327707414941322384E+00
    0.61728197288995434455E+00
    0.59450212602649721294E+00
    0.92722925006631662370E+00
    0.86617095590266568461E+00
    0.80185277762962314796E+00
    0.76426191509624408216E+00
    0.79128384152999742263E+00
    0.75066714614461427235E+00
    0.80026953415623558463E+00
    0.86178440638568443166E+00
    0.92647242448140465498E+00
    0.96486900423389609927E+00
    0.93650326079345413977E+00
    0.97723911217034831189E+00
    0.87517628297973826257E+00
    0.85338588241042445670E+00
    0.67644119948396141950E+00
    0.61499207131171662599E+00
    0.55052477107760566799E+00
    0.51279209838298400737E+00
    0.53946279033260124969E+00
    0.49817410835855041595E+00
    0.54690959947504935723E+00
    0.60904861537901111568E+00
    0.67426957418215693885E+00
    0.71295694054781355575E+00
    0.68548661860689175107E+00
    0.72633843451534196856E+00
    0.62348466766239274417E+00
    0.60165153397490944709E+00
    0.41971334588923547848E+00
    0.39998330444038959763E+00
    0.31751086938146028116E+00
    0.27232556686370884558E+00
    0.31784609538020142105E+00
    0.26001960997505496609E+00
    0.35515954403156096975E+00
    0.40001001983673972751E+00
    0.40557959311586966322E+00
    0.44640746860710772692E+00
    0.42416456640957844737E+00
    0.46798579813526558491E+00
    0.40002852963378898732E+00
    0.39998514141227575758E+00
    0.18567561616826530613E+00
    0.12602477975602516258E+00
    0.61940692627730102593E-01
    0.24826900146540598069E-01
    0.52295868342337639700E-01
    0.12460540435747713070E-01
    0.61947681212243907445E-01
    0.12171830895690015362E+00
    0.18567141501917996949E+00
    0.22279213532888905713E+00
    0.19538538898694157719E+00
    0.23518285262192004104E+00