# vtk DataFile Version 3.0
LAPLACIEN  2D
ASCII
DATASET UNSTRUCTURED_GRID
 POINTS         481  float
   6.2500000000000000E-002  0.87500000000000000        0.0000000000000000     
  0.12500000000000000       0.87500000000000000        0.0000000000000000     
  0.12500000000000000       0.93750000000000000        0.0000000000000000     
   3.7499999999999999E-002  0.91249999999999998        0.0000000000000000     
   8.1250000000000003E-002  0.91874999999999996        0.0000000000000000     
   8.7499999999999994E-002  0.96250000000000002        0.0000000000000000     
   4.3749999999999997E-002  0.95625000000000004        0.0000000000000000     
  0.18750000000000000       0.87500000000000000        0.0000000000000000     
  0.25000000000000000       0.87500000000000000        0.0000000000000000     
  0.25000000000000000       0.93750000000000000        0.0000000000000000     
  0.16250000000000001       0.91249999999999998        0.0000000000000000     
  0.20624999999999999       0.91874999999999996        0.0000000000000000     
  0.21249999999999999       0.96250000000000002        0.0000000000000000     
  0.16875000000000001       0.95625000000000004        0.0000000000000000     
   6.2500000000000000E-002  0.75000000000000000        0.0000000000000000     
  0.12500000000000000       0.75000000000000000        0.0000000000000000     
  0.12500000000000000       0.81250000000000000        0.0000000000000000     
   3.7499999999999999E-002  0.78749999999999998        0.0000000000000000     
   8.1250000000000003E-002  0.79374999999999996        0.0000000000000000     
   8.7499999999999994E-002  0.83750000000000002        0.0000000000000000     
   4.3749999999999997E-002  0.83125000000000004        0.0000000000000000     
  0.18750000000000000       0.75000000000000000        0.0000000000000000     
  0.25000000000000000       0.75000000000000000        0.0000000000000000     
  0.25000000000000000       0.81250000000000000        0.0000000000000000     
  0.16250000000000001       0.78749999999999998        0.0000000000000000     
  0.20624999999999999       0.79374999999999996        0.0000000000000000     
  0.21249999999999999       0.83750000000000002        0.0000000000000000     
  0.16875000000000001       0.83125000000000004        0.0000000000000000     
  0.31250000000000000       0.87500000000000000        0.0000000000000000     
  0.37500000000000000       0.87500000000000000        0.0000000000000000     
  0.37500000000000000       0.93750000000000000        0.0000000000000000     
  0.28749999999999998       0.91249999999999998        0.0000000000000000     
  0.33124999999999999       0.91874999999999996        0.0000000000000000     
  0.33750000000000002       0.96250000000000002        0.0000000000000000     
  0.29375000000000001       0.95625000000000004        0.0000000000000000     
  0.43750000000000000       0.87500000000000000        0.0000000000000000     
  0.50000000000000000       0.87500000000000000        0.0000000000000000     
  0.50000000000000000       0.93750000000000000        0.0000000000000000     
  0.41249999999999998       0.91249999999999998        0.0000000000000000     
  0.45624999999999999       0.91874999999999996        0.0000000000000000     
  0.46250000000000002       0.96250000000000002        0.0000000000000000     
  0.41875000000000001       0.95625000000000004        0.0000000000000000     
  0.31250000000000000       0.75000000000000000        0.0000000000000000     
  0.37500000000000000       0.75000000000000000        0.0000000000000000     
  0.37500000000000000       0.81250000000000000        0.0000000000000000     
  0.28749999999999998       0.78749999999999998        0.0000000000000000     
  0.33124999999999999       0.79374999999999996        0.0000000000000000     
  0.33750000000000002       0.83750000000000002        0.0000000000000000     
  0.29375000000000001       0.83125000000000004        0.0000000000000000     
  0.43750000000000000       0.75000000000000000        0.0000000000000000     
  0.50000000000000000       0.75000000000000000        0.0000000000000000     
  0.50000000000000000       0.81250000000000000        0.0000000000000000     
  0.41249999999999998       0.78749999999999998        0.0000000000000000     
  0.45624999999999999       0.79374999999999996        0.0000000000000000     
  0.46250000000000002       0.83750000000000002        0.0000000000000000     
  0.41875000000000001       0.83125000000000004        0.0000000000000000     
   6.2500000000000000E-002  0.62500000000000000        0.0000000000000000     
  0.12500000000000000       0.62500000000000000        0.0000000000000000     
  0.12500000000000000       0.68750000000000000        0.0000000000000000     
   3.7499999999999999E-002  0.66249999999999998        0.0000000000000000     
   8.1250000000000003E-002  0.66874999999999996        0.0000000000000000     
   8.7499999999999994E-002  0.71250000000000002        0.0000000000000000     
   4.3749999999999997E-002  0.70625000000000004        0.0000000000000000     
  0.18750000000000000       0.62500000000000000        0.0000000000000000     
  0.25000000000000000       0.62500000000000000        0.0000000000000000     
  0.25000000000000000       0.68750000000000000        0.0000000000000000     
  0.16250000000000001       0.66249999999999998        0.0000000000000000     
  0.20624999999999999       0.66874999999999996        0.0000000000000000     
  0.21249999999999999       0.71250000000000002        0.0000000000000000     
  0.16875000000000001       0.70625000000000004        0.0000000000000000     
   6.2500000000000000E-002  0.50000000000000000        0.0000000000000000     
  0.12500000000000000       0.50000000000000000        0.0000000000000000     
  0.12500000000000000       0.56250000000000000        0.0000000000000000     
   3.7499999999999999E-002  0.53749999999999998        0.0000000000000000     
   8.1250000000000003E-002  0.54374999999999996        0.0000000000000000     
   8.7499999999999994E-002  0.58750000000000002        0.0000000000000000     
   4.3749999999999997E-002  0.58125000000000004        0.0000000000000000     
  0.18750000000000000       0.50000000000000000        0.0000000000000000     
  0.25000000000000000       0.50000000000000000        0.0000000000000000     
  0.25000000000000000       0.56250000000000000        0.0000000000000000     
  0.16250000000000001       0.53749999999999998        0.0000000000000000     
  0.20624999999999999       0.54374999999999996        0.0000000000000000     
  0.21249999999999999       0.58750000000000002        0.0000000000000000     
  0.16875000000000001       0.58125000000000004        0.0000000000000000     
  0.31250000000000000       0.62500000000000000        0.0000000000000000     
  0.37500000000000000       0.62500000000000000        0.0000000000000000     
  0.37500000000000000       0.68750000000000000        0.0000000000000000     
  0.28749999999999998       0.66249999999999998        0.0000000000000000     
  0.33124999999999999       0.66874999999999996        0.0000000000000000     
  0.33750000000000002       0.71250000000000002        0.0000000000000000     
  0.29375000000000001       0.70625000000000004        0.0000000000000000     
  0.43750000000000000       0.62500000000000000        0.0000000000000000     
  0.50000000000000000       0.62500000000000000        0.0000000000000000     
  0.50000000000000000       0.68750000000000000        0.0000000000000000     
  0.41249999999999998       0.66249999999999998        0.0000000000000000     
  0.45624999999999999       0.66874999999999996        0.0000000000000000     
  0.46250000000000002       0.71250000000000002        0.0000000000000000     
  0.41875000000000001       0.70625000000000004        0.0000000000000000     
  0.31250000000000000       0.50000000000000000        0.0000000000000000     
  0.37500000000000000       0.50000000000000000        0.0000000000000000     
  0.37500000000000000       0.56250000000000000        0.0000000000000000     
  0.28749999999999998       0.53749999999999998        0.0000000000000000     
  0.33124999999999999       0.54374999999999996        0.0000000000000000     
  0.33750000000000002       0.58750000000000002        0.0000000000000000     
  0.29375000000000001       0.58125000000000004        0.0000000000000000     
  0.43750000000000000       0.50000000000000000        0.0000000000000000     
  0.50000000000000000       0.50000000000000000        0.0000000000000000     
  0.50000000000000000       0.56250000000000000        0.0000000000000000     
  0.41249999999999998       0.53749999999999998        0.0000000000000000     
  0.45624999999999999       0.54374999999999996        0.0000000000000000     
  0.46250000000000002       0.58750000000000002        0.0000000000000000     
  0.41875000000000001       0.58125000000000004        0.0000000000000000     
  0.56250000000000000       0.87500000000000000        0.0000000000000000     
  0.62500000000000000       0.87500000000000000        0.0000000000000000     
  0.62500000000000000       0.93750000000000000        0.0000000000000000     
  0.53749999999999998       0.91249999999999998        0.0000000000000000     
  0.58125000000000004       0.91874999999999996        0.0000000000000000     
  0.58750000000000002       0.96250000000000002        0.0000000000000000     
  0.54374999999999996       0.95625000000000004        0.0000000000000000     
  0.68750000000000000       0.87500000000000000        0.0000000000000000     
  0.75000000000000000       0.87500000000000000        0.0000000000000000     
  0.75000000000000000       0.93750000000000000        0.0000000000000000     
  0.66249999999999998       0.91249999999999998        0.0000000000000000     
  0.70625000000000004       0.91874999999999996        0.0000000000000000     
  0.71250000000000002       0.96250000000000002        0.0000000000000000     
[...]
 CELL_DATA         896
 SCALARS Cells_density float
 LOOKUP_TABLE default
    0.92428436605202368703E+00
    0.86327365489699703360E+00
    0.79575442293304410324E+00
    0.75855060518816286308E+00
    0.78634186395066452135E+00
    0.74664601413644671180E+00
    0.79852477688451173332E+00
    0.85864417994987352056E+00
    0.92619458790847630780E+00
    0.96397465561561668235E+00
    0.93526449219900731347E+00
    0.97686691366418110238E+00
    0.87238574691760295554E+00
    0.85152955810702946060E+00
    0.66301577151109736263E+00
    0.60083141315048660402E+00
    0.52971587081901583272E+00
    0.49355654148907451839E+00
    0.52510979377292787973E+00
    0.48643840707491220465E+00
    0.53900740811003444719E+00
    0.60008724865451723574E+00
    0.67019250433596733174E+00
    0.70843627459104430155E+00
    0.67827303292760732223E+00
    0.71813912739418339637E+00
    0.61254298464314249628E+00
    0.59221106740640538924E+00
    0.92079666516696401235E+00
    0.85845651171066261753E+00
    0.78635950234194473829E+00
    0.74878174439740075030E+00
    0.77857260426757668448E+00
    0.73913060448387801760E+00
    0.79627314620535150080E+00
    0.85445962537037345452E+00
    0.92580340245114711717E+00
    0.96405976147355443295E+00
    0.93294112979203425162E+00
    0.97706459630266029315E+00
    0.86825563417468654137E+00
    0.84862702506768794564E+00
    0.63991097376999028778E+00
    0.57348112849508026123E+00
    0.49192187035122336702E+00
    0.45782747969365600316E+00
    0.49825497914208299877E+00
    0.46519720703637373882E+00
    0.52696579827775680283E+00
    0.58417117794800321740E+00
    0.66378310591740574687E+00
    0.70036563367607962416E+00
    0.66454732619524958803E+00
    0.70399909702142315915E+00
    0.59124910327456214887E+00
    0.57389075329613248311E+00
    0.39998922230716005277E+00
    0.39998905194655604012E+00
    0.35709208346399223810E+00
    0.27304889900911705203E+00
    0.30237838071993228262E+00
    0.26033182985164399215E+00
    0.33398401084544632189E+00
    0.39998717974382669293E+00
    0.41006854940280612620E+00
    0.44739346388838474589E+00
    0.41649342913237580310E+00
    0.45307497823474301990E+00
    0.39998776544387265597E+00
    0.39999711529179698966E+00
    0.18583353041649583459E+00
    0.12639971815496162111E+00
    0.62146138128269953760E-01
    0.25066201087435246303E-01
    0.52622256907321265929E-01
    0.12727283565714465549E-01
    0.62157690065482898434E-01
    0.12208668783731586871E+00
    0.18580692093021092259E+00
    0.22292634700780641910E+00
    0.19561768850496966121E+00
    0.23536832301610638440E+00
    0.13490022045526597894E+00
    0.11329624156164590232E+00
    0.39997569614418049255E+00
    0.39999881449292595814E+00
    0.39995877003216034895E+00
    0.30968206199979153581E+00
    0.39998973630244616384E+00
    0.26167743057825332276E+00
    0.33548604486582184192E+00
    0.40000385310514907644E+00
    0.39998033292870649458E+00
    0.42488360591578733239E+00
    0.39998770003869377199E+00
    0.41481310243099106527E+00
    0.40000042187491641199E+00
    0.39997543854403189156E+00
    0.18583515509802706056E+00
    0.12639974416883043018E+00
    0.62146121766414479104E-01
    0.25066205035034240522E-01
    0.52622272322234570074E-01
    0.12727284723859113441E-01
    0.62173802550900637842E-01
    0.12208694255586069466E+00
    0.18581681876099259698E+00
    0.22294564997026852793E+00
    0.19561954660659480743E+00
    0.23581434103593909568E+00
    0.13490020223603471639E+00
    0.11329622944404148244E+00
    0.91727803633953175488E+00
    0.84882502442795337849E+00
    0.77151613590833156842E+00
    0.72968762977413481607E+00
    0.76070360124743796604E+00
    0.72011013781690058622E+00
    0.78731382401810356964E+00
    0.84503252086797520093E+00
    0.92399863475937782376E+00
    0.96315113208133240619E+00
    0.92987874083063748465E+00
    0.97614689152236167047E+00
    0.86014455315427207349E+00
    0.84211224098687409434E+00
    0.60157394694048205164E+00
    0.51993823635609237588E+00
    0.43118009021090064614E+00
    0.39996941563969129474E+00
    0.44120617021204727726E+00
    0.41284173714010008460E+00
    0.48510802468272395949E+00
    0.53994139913898220318E+00
    0.64147015447223554307E+00
    0.67915920783122718518E+00
    0.63249151559577598825E+00
    0.67569575841756512879E+00
    0.54366932902023812346E+00
    0.52986535666264367173E+00
    0.91716382841873822507E+00
    0.83986502710801069771E+00
    0.76273558820036768680E+00
    0.71277753406471922037E+00
    0.74175440565538108828E+00
    0.69351427786013941645E+00
    0.77247595401604651766E+00
    0.83385955970480496457E+00
    0.92095392157452338200E+00
    0.96156292197996728888E+00
    0.92733436769284682821E+00
    0.97478920266087787372E+00
    0.85247214976792573538E+00
    0.83472294439764405105E+00
    0.58077076073329547690E+00
    0.47798209327990698325E+00
    0.39997301772525678532E+00
    0.40001523085659246304E+00
    0.39997956595416800374E+00
    0.39999007924312035556E+00
    0.42436129014259821313E+00
    0.48253141873421068198E+00
    0.60445042761700573664E+00
    0.64998700240333384670E+00
    0.59672218640281493585E+00
    0.65219638850885675030E+00
    0.49675203218016633633E+00
    0.48120202063655331814E+00
    0.39997183790662910186E+00
    0.40004422059823352420E+00
    0.39991946902799835328E+00
    0.39998839920919626589E+00
    0.39994514844411060972E+00
    0.38962538120130763009E+00
    0.40001327139501019481E+00
    0.39998100181559376187E+00
    0.40000225827428725900E+00
    0.39997231937851845940E+00
    0.40000994380026361208E+00
    0.40001415729710354530E+00
    0.39998771019006162941E+00
    0.40000031475240466206E+00
    0.36198189580172118740E+00
    0.12960570003836457964E+00
    0.74057393935500662185E-01
    0.26847921211895643678E-01
    0.52650909859456883344E-01
    0.12727288347780529865E-01
    0.62173815661214056061E-01
    0.12208712587043916986E+00
    0.18582660851569757221E+00
    0.22478429754801040885E+00
    0.20043116676941571952E+00
    0.39985501561673414406E+00
    0.13495164781625781925E+00
    0.11329648708909299815E+00
    0.40001013021313230889E+00
    0.39992941372919454945E+00
    0.40061067372141145881E+00
    0.40921784053754362009E+00
    0.40043681435549544068E+00
    0.40097459333629337230E+00
    0.40004534965358973242E+00
    0.39993184226009714788E+00
    0.40002047841059273914E+00
    0.39998048073018532822E+00
    0.40000703047410129942E+00
    0.39995847160338610093E+00
    0.39998720751596389400E+00
    0.40002972017296256624E+00
    0.43531132822475621102E+00
    0.43737320580244554158E+00
    0.46611075427325754372E+00
    0.42163238223991111875E+00
    0.31298261809261046507E+00
    0.38197435689190317731E-01
    0.82523754444606439717E-01
    0.15511148216096698471E+00
    0.38784396205865029339E+00
    0.40897503779250315992E+00
    0.42877567417099132774E+00
    0.42332701581331683149E+00
    0.43723271688298703808E+00
    0.43546708431137826079E+00
    0.22211581673430038611E-04
   -0.42025071447480864481E-05
    0.40983139406069496360E-04
    0.40906004362752507164E-04
   -0.43466759515073311634E-05
    0.22473799334588458562E-04
   -0.58807684632273548000E-05
   -0.43891289558700241112E-05
   -0.80231248017533205754E-05
    0.58341596610602503795E-04
   -0.31610790926797728142E-05
    0.11705305487684855440E-03
    0.13288971013329656180E-03
    0.13217550710724383861E-03
    0.22331856274917528114E-04
   -0.44434644262630869718E-05
    0.41007357050314081112E-04
    0.40982135643738301862E-04
   -0.44905163375055100097E-05
    0.22417311356688280949E-04
   -0.59589688956566719976E-05
   -0.45139147924965217906E-05
   -0.80553244079444772080E-05
    0.40813386623570937345E-04
   -0.41003636203829803489E-05
    0.22333712614537506308E-04
    0.13312809617718911388E-03
    0.13289420954581412319E-03
    0.22258639896000386772E-04
   -0.42022891014390516328E-05
    0.40974955715378396140E-04
    0.40914872266305634253E-04
   -0.43404068218129424674E-05
    0.22473971724582695794E-04
    0.22376379043095359888E-04
   -0.41700784794913990349E-05
    0.40690042045589108874E-04
    0.58716835842246217422E-04
   -0.31611763197598288696E-05
    0.11706546192075248033E-03
    0.13283323203827640405E-03
    0.13219321690519919153E-03
    0.22350777855590859883E-04
   -0.44485492181992029615E-05
    0.41006580945709541217E-04
    0.40985052744866025637E-04
   -0.44903819463870590874E-05
    0.22417264802080381393E-04
    0.22385564718437837834E-04
   -0.44321877143885863215E-05
    0.40911952817312783064E-04
    0.40944164837608677365E-04
   -0.41120082962651698040E-05
    0.22341472060363382394E-04
    0.13311437799563087580E-03
    0.13290645082288148537E-03
    0.22370883508485885495E-04
   -0.45232186955208870447E-05
    0.41015025302608335673E-04
    0.41007412649250004537E-04
   -0.45386305281613113238E-05
    0.22397845964931423224E-04
   -0.59850538342154899657E-05
   -0.45558666248430196264E-05
   -0.80657084663317359276E-05
    0.40945272733847511571E-04
   -0.44115895855236442939E-05
    0.22371660151684652929E-04
    0.13320603873429636755E-03
    0.13313261042235055034E-03
    0.22384711716701132260E-04
   -0.45522407819799551068E-05
    0.41005156364057293009E-04
   -0.80698300009561924051E-05
   -0.45764171270439168659E-05
   -0.59967486597540635836E-05
   -0.59967098654721075855E-05
   -0.45705562205743068924E-05
   -0.80690720006972254627E-05
    0.40990235156371099745E-04
   -0.45205057744234039712E-05
    0.22384587977591285598E-04
    0.13323126699628755885E-03
    0.13321889806123718945E-03
    0.22373976044674991580E-04
   -0.45244153443807836706E-05
    0.41015132804925564451E-04
    0.41007840815351624696E-04
   -0.45387768412408917407E-05
    0.22397974936114586013E-04
    0.22388502651985362331E-04
   -0.45205799144025762875E-05
    0.40984409469064448706E-04
    0.40995147269909710153E-04
   -0.44150056253379700084E-05
    0.22373415502763862429E-04
    0.13320513001832321159E-03
    0.13313518061218318706E-03
    0.22384959065890975356E-04
   -0.45523676654938792293E-05
    0.41005218741115950472E-04
   -0.80698491681003046505E-05
   -0.45764302944679026075E-05
   -0.59960806124733631367E-05
    0.22388502455294181465E-04
   -0.45504797740786143934E-05
    0.41009435267354202965E-04
    0.41011662744496575009E-04
   -0.45209284298892277775E-05
    0.22384765229165777409E-04
    0.13323151176116451808E-03
    0.13321921876193547319E-03
    0.91760164958797525714E-02
    0.10350094434310092885E-02
    0.52101191813358038295E-04
    0.40969335384758072145E-04
   -0.43378762098555566354E-05
    0.22464129147425288203E-04
    0.22379923960939883328E-04
   -0.39309087825647641025E-05
    0.40693111498203171931E-04
    0.58650850432826254471E-04
    0.18968723791674366739E-05
    0.11014409106996578009E-02
    0.13969403290777074106E-03
    0.13240960595308493551E-03
    0.22406217516217933418E-04
   -0.44846186063847970734E-05
    0.41007048059817568586E-04
    0.40996875858199889522E-04
   -0.44987142572483917351E-05
    0.22414543620704962352E-04
    0.22386736920868133797E-04
   -0.43933010543669073005E-05
    0.40923691084390886527E-04
    0.40934728781671944164E-04
   -0.42217761265372687351E-05
    0.22381008267340044042E-04
    0.13307827174526004480E-03
    0.13298773390451378647E-03
    0.28257368680363790202E-02
    0.91462302526725317540E-03
    0.34255693372686545723E-03
    0.46393696540037885831E-03
    0.33125497086027985358E-02
    0.30961989855085022627E-03
    0.77406541401174859974E-03
    0.78958833355093124146E-02
    0.14900894046740630061E-01
    0.21626112574864263249E-01
    0.13937930053750918064E-01
    0.23499124747277924663E+00
    0.36919475706408797118E-02
    0.29008542692323547457E-02
    0.23589700021078613586E-04
   -0.45340836821546726850E-05
    0.41016754289184540242E-04
    0.41011287865511502205E-04
   -0.45358068275705030938E-05
    0.22403320836187985476E-04
    0.22389285271593675780E-04
   -0.44234883177761447098E-05
    0.40977927170172734122E-04
    0.42626120252974375262E-04
   -0.27137039401527135346E-05
    0.21751484508442526762E-03
    0.13314664662164669160E-03
    0.13317379717025758712E-03
    0.22381220030766943582E-04
   -0.45299210031394611023E-05
    0.41015750961230665556E-04
    0.41009305149917507410E-04
   -0.45402401828284029092E-05
    0.22397683909031419682E-04
    0.22388675902795222991E-04
   -0.45177190458119864436E-05
    0.40987360356585004714E-04
    0.40995927687985488227E-04
   -0.44359973190945988430E-05
    0.22380322899760660149E-04
    0.13320545824579139277E-03
    0.13314824159159132982E-03
    0.22385522384631845183E-04
   -0.45527614518026008627E-05
    0.41005442998732719864E-04
   -0.80698881205750359679E-05
   -0.45764594913155839877E-05
   -0.59961034035472838964E-05
    0.22388531693454349859E-04
   -0.45503878243749666289E-05
    0.41009764064961758503E-04
    0.41011920620904702484E-04
   -0.45228374690829672975E-05
    0.22385442515018639983E-04
    0.13323185285317267184E-03
    0.13322024208495454210E-03
    0.22381321090857794894E-04
   -0.45378045068103572970E-05
    0.41017307787011579633E-04
    0.41010966804839225311E-04
   -0.45443974968301120658E-05
    0.22396847929754449836E-04
    0.22389133712605524339E-04
   -0.45244407521800663490E-05
    0.40996654831912488436E-04
    0.41004385510318901251E-04
   -0.44790558731545720170E-05
    0.22386535022111370510E-04
    0.13322106304507544405E-03
    0.13317290219965193269E-03
    0.22385600385423543197E-04
   -0.45532524006803591071E-05
    0.41005610164138186721E-04
   -0.80699264329254882897E-05
   -0.45764903312179465634E-05
   -0.59961405181963658317E-05
    0.22388607136606871877E-04
   -0.45509109337607775458E-05
    0.41010601810036932755E-04
    0.41012895132670914135E-04
   -0.45261395430378976694E-05
    0.22386060360078184579E-04
    0.13323319920017327321E-03
    0.13322193211616175290E-03
    0.92109328804394985379E+00
    0.84161228785316843926E+00
    0.77121404229779411121E+00
    0.71848431602953122255E+00
    0.74270698345185148792E+00
    0.68628588213777186322E+00
    0.76317605313134506684E+00
    0.83218835849457351017E+00
    0.91776726157872179357E+00
    0.96125420102504000042E+00
    0.92701219444759441757E+00
    0.97503226528396247375E+00
    0.85374714586674482764E+00
    0.83330596619816543758E+00
    0.60458110446631152524E+00
    0.49368139303760549819E+00
    0.42257773465875536623E+00
    0.40000313008305121709E+00
    0.39997669935055168988E+00
    0.39999471520644436229E+00
    0.39999217815193449654E+00
    0.46811533783493958216E+00
    0.58405757196270180476E+00
    0.64091879427109177403E+00
    0.59769914085513287105E+00
    0.66261562482848390676E+00
    0.50102005756257084190E+00
    0.47816078665195066444E+00
    0.92410578721513358946E+00
    0.85122340448062416840E+00
    0.78622015113887611104E+00
    0.73882745732012411466E+00
    0.76278773536312072245E+00
    0.70855143238315254628E+00
    0.77087585319966644981E+00
    0.84289921109396215293E+00
    0.91849166800111470277E+00
    0.96285062533919729688E+00
    0.92906285020396028873E+00
    0.97654273284496351248E+00
    0.86266919743865189130E+00
    0.83946953799966550491E+00
    0.64261586795122904725E+00
    0.54906754599864937560E+00
    0.48311024757717047073E+00
    0.42867328636581658596E+00
    0.44203893801713112222E+00
    0.39997252412091083285E+00
    0.42982234460174711943E+00
    0.51249664594475652368E+00
    0.60722197664406352136E+00
    0.66419224620361305700E+00
    0.63365703762270642052E+00
    0.69256936639201871486E+00
    0.55156745578517807349E+00
    0.52400927058268120806E+00
    0.40000323315110786204E+00
    0.39997682195314998577E+00
    0.40003372822207766690E+00
    0.40019565532150008780E+00
    0.40065726543389773573E+00
    0.41138615283297369496E+00
    0.40073137732566671554E+00
    0.39987354653734075161E+00
    0.40000150745482371262E+00
    0.39998191582610714834E+00
    0.40001577936276438985E+00
    0.39994417875465892998E+00
    0.39994166594149832550E+00
    0.40006293619725713517E+00
    0.35527703621233164277E+00
    0.15649161002205289051E+00
    0.82624309817188823502E-01
    0.50121305327595122581E-01
    0.25035957393457564102E+00
    0.42042154456118185912E+00
    0.47713323209478913922E+00
    0.43674519231551023335E+00
    0.43468887237622932940E+00
    0.42348122765484169649E+00
    0.42481695490506732327E+00
    0.40559023432869373282E+00
    0.43278134109317967226E+00
    0.43525388679910148593E+00
    0.39999732410863902965E+00
    0.39997010581975489529E+00
    0.40002111547365920563E+00
    0.39994463784424488795E+00
    0.39996467133657065407E+00
    0.40005339205275336489E+00
    0.39998198143179819475E+00
    0.39996961831929450648E+00
    0.39997484359925128405E+00
    0.40001212647158990166E+00
    0.40000541616915463727E+00
    0.39998403172267132932E+00
    0.39994366284922217014E+00
    0.40004990548948460294E+00
    0.18594367681919843349E+00
    0.12639996620339047362E+00
    0.62146160395195847170E-01
    0.25066210816358597269E-01
    0.52648682027306333009E-01
    0.14456550269806064946E-01
    0.75554210892556733503E-01
    0.12482423750532492535E+00
    0.27861151939081701956E+00
    0.39990147384625007732E+00
    0.19855912925961355375E+00
    0.27726167527040712635E+00
    0.13491822311745091389E+00
    0.11332161812772723053E+00
    0.92584059538644536413E+00
    0.85965973166920361948E+00
    0.79580508364402413601E+00
    0.75397658256196764537E+00
    0.77995534855039294619E+00
    0.73282019339449133710E+00
    0.78561840778854374889E+00
    0.85355078457553923421E+00
    0.92185857342924160118E+00
    0.96392536656516658589E+00
    0.93253359642203026425E+00
    0.97701128492287836469E+00
    0.86986888164855791228E+00
    0.84686217611364955626E+00
    0.66439817664736089409E+00
    0.59049024213143042061E+00
    0.52600432776584338246E+00
    0.47988988276957339485E+00
    0.49897766444739277691E+00
    0.44393730070430753587E+00
    0.48998058141944506039E+00
    0.56797995938272671790E+00
    0.64383055598862393154E+00
    0.69208357254098851197E+00
    0.66450870389856231402E+00
    0.71331485428732543941E+00
    0.59579390876568660840E+00
    0.57025087772855898027E+00
    0.92611671892574365383E+00
    0.86353697429737485969E+00
    0.79862980138871642044E+00
    0.76024919834962645382E+00
    0.78681235777685876176E+00
    0.74482361038891620186E+00
    0.79542151122025916976E+00
    0.85859939781343497245E+00
    0.92484664852665210422E+00
    0.96410958197171858775E+00
    0.93510871822482533045E+00
    0.97662672705386843752E+00
    0.87290434975497499526E+00
    0.85109370309972531832E+00
    0.67002853066963563577E+00
    0.60547906062148348916E+00
    0.53931315056800344099E+00
    0.49989278463479519532E+00
    0.52545175054347326160E+00
    0.48041465174579778274E+00
    0.52887556831754123365E+00
    0.59597202219475242657E+00
    0.66478426727321304757E+00
    0.70596855806986602566E+00
    0.67835258502348505516E+00
    0.72105032488808440405E+00
    0.61376753687879670451E+00
    0.59131172281109289912E+00
    0.39997959477424233077E+00
    0.39999486461956151873E+00
    0.35596006772661942241E+00
    0.27445960935632890410E+00
    0.39998887105033387179E+00
    0.29681648903711221887E+00
    0.39995404185968058686E+00
    0.40000300805444188867E+00
    0.39997762627764565924E+00
    0.40043163337254839007E+00
    0.39998527618384427385E+00
    0.43885399809014330463E+00
    0.39998544155960558122E+00
    0.40000606889351192352E+00
    0.18583368417066029044E+00
    0.12639971857456855364E+00
    0.62146140260256541032E-01
    0.25066201899717258789E-01
    0.52622258422522216748E-01
    0.12727287815585875200E-01
    0.62173818393991220344E-01
    0.12208692292480374797E+00
    0.18581847387922786896E+00
    0.22326198039068384515E+00
    0.19561918925646051837E+00
    0.23539611321956377399E+00