# vtk DataFile Version 3.0
LAPLACIEN  2D
ASCII
DATASET UNSTRUCTURED_GRID
 POINTS         481  float
   6.2500000000000000E-002  0.87500000000000000        0.0000000000000000     
  0.12500000000000000       0.87500000000000000        0.0000000000000000     
  0.12500000000000000       0.93750000000000000        0.0000000000000000     
   3.7499999999999999E-002  0.91249999999999998        0.0000000000000000     
   8.1250000000000003E-002  0.91874999999999996        0.0000000000000000     
   8.7499999999999994E-002  0.96250000000000002        0.0000000000000000     
   4.3749999999999997E-002  0.95625000000000004        0.0000000000000000     
  0.18750000000000000       0.87500000000000000        0.0000000000000000     
  0.25000000000000000       0.87500000000000000        0.0000000000000000     
  0.25000000000000000       0.93750000000000000        0.0000000000000000     
  0.16250000000000001       0.91249999999999998        0.0000000000000000     
  0.20624999999999999       0.91874999999999996        0.0000000000000000     
  0.21249999999999999       0.96250000000000002        0.0000000000000000     
  0.16875000000000001       0.95625000000000004        0.0000000000000000     
   6.2500000000000000E-002  0.75000000000000000        0.0000000000000000     
  0.12500000000000000       0.75000000000000000        0.0000000000000000     
  0.12500000000000000       0.81250000000000000        0.0000000000000000     
   3.7499999999999999E-002  0.78749999999999998        0.0000000000000000     
   8.1250000000000003E-002  0.79374999999999996        0.0000000000000000     
   8.7499999999999994E-002  0.83750000000000002        0.0000000000000000     
   4.3749999999999997E-002  0.83125000000000004        0.0000000000000000     
  0.18750000000000000       0.75000000000000000        0.0000000000000000     
  0.25000000000000000       0.75000000000000000        0.0000000000000000     
  0.25000000000000000       0.81250000000000000        0.0000000000000000     
  0.16250000000000001       0.78749999999999998        0.0000000000000000     
  0.20624999999999999       0.79374999999999996        0.0000000000000000     
  0.21249999999999999       0.83750000000000002        0.0000000000000000     
  0.16875000000000001       0.83125000000000004        0.0000000000000000     
  0.31250000000000000       0.87500000000000000        0.0000000000000000     
  0.37500000000000000       0.87500000000000000        0.0000000000000000     
  0.37500000000000000       0.93750000000000000        0.0000000000000000     
  0.28749999999999998       0.91249999999999998        0.0000000000000000     
  0.33124999999999999       0.91874999999999996        0.0000000000000000     
  0.33750000000000002       0.96250000000000002        0.0000000000000000     
  0.29375000000000001       0.95625000000000004        0.0000000000000000     
  0.43750000000000000       0.87500000000000000        0.0000000000000000     
  0.50000000000000000       0.87500000000000000        0.0000000000000000     
  0.50000000000000000       0.93750000000000000        0.0000000000000000     
  0.41249999999999998       0.91249999999999998        0.0000000000000000     
  0.45624999999999999       0.91874999999999996        0.0000000000000000     
  0.46250000000000002       0.96250000000000002        0.0000000000000000     
  0.41875000000000001       0.95625000000000004        0.0000000000000000     
  0.31250000000000000       0.75000000000000000        0.0000000000000000     
  0.37500000000000000       0.75000000000000000        0.0000000000000000     
  0.37500000000000000       0.81250000000000000        0.0000000000000000     
  0.28749999999999998       0.78749999999999998        0.0000000000000000     
  0.33124999999999999       0.79374999999999996        0.0000000000000000     
  0.33750000000000002       0.83750000000000002        0.0000000000000000     
  0.29375000000000001       0.83125000000000004        0.0000000000000000     
  0.43750000000000000       0.75000000000000000        0.0000000000000000     
  0.50000000000000000       0.75000000000000000        0.0000000000000000     
  0.50000000000000000       0.81250000000000000        0.0000000000000000     
  0.41249999999999998       0.78749999999999998        0.0000000000000000     
  0.45624999999999999       0.79374999999999996        0.0000000000000000     
  0.46250000000000002       0.83750000000000002        0.0000000000000000     
  0.41875000000000001       0.83125000000000004        0.0000000000000000     
   6.2500000000000000E-002  0.62500000000000000        0.0000000000000000     
  0.12500000000000000       0.62500000000000000        0.0000000000000000     
  0.12500000000000000       0.68750000000000000        0.0000000000000000     
   3.7499999999999999E-002  0.66249999999999998        0.0000000000000000     
   8.1250000000000003E-002  0.66874999999999996        0.0000000000000000     
   8.7499999999999994E-002  0.71250000000000002        0.0000000000000000     
   4.3749999999999997E-002  0.70625000000000004        0.0000000000000000     
  0.18750000000000000       0.62500000000000000        0.0000000000000000     
  0.25000000000000000       0.62500000000000000        0.0000000000000000     
  0.25000000000000000       0.68750000000000000        0.0000000000000000     
  0.16250000000000001       0.66249999999999998        0.0000000000000000     
  0.20624999999999999       0.66874999999999996        0.0000000000000000     
  0.21249999999999999       0.71250000000000002        0.0000000000000000     
  0.16875000000000001       0.70625000000000004        0.0000000000000000     
   6.2500000000000000E-002  0.50000000000000000        0.0000000000000000     
  0.12500000000000000       0.50000000000000000        0.0000000000000000     
  0.12500000000000000       0.56250000000000000        0.0000000000000000     
   3.7499999999999999E-002  0.53749999999999998        0.0000000000000000     
   8.1250000000000003E-002  0.54374999999999996        0.0000000000000000     
   8.7499999999999994E-002  0.58750000000000002        0.0000000000000000     
   4.3749999999999997E-002  0.58125000000000004        0.0000000000000000     
  0.18750000000000000       0.50000000000000000        0.0000000000000000     
  0.25000000000000000       0.50000000000000000        0.0000000000000000     
  0.25000000000000000       0.56250000000000000        0.0000000000000000     
  0.16250000000000001       0.53749999999999998        0.0000000000000000     
  0.20624999999999999       0.54374999999999996        0.0000000000000000     
  0.21249999999999999       0.58750000000000002        0.0000000000000000     
  0.16875000000000001       0.58125000000000004        0.0000000000000000     
  0.31250000000000000       0.62500000000000000        0.0000000000000000     
  0.37500000000000000       0.62500000000000000        0.0000000000000000     
  0.37500000000000000       0.68750000000000000        0.0000000000000000     
  0.28749999999999998       0.66249999999999998        0.0000000000000000     
  0.33124999999999999       0.66874999999999996        0.0000000000000000     
  0.33750000000000002       0.71250000000000002        0.0000000000000000     
  0.29375000000000001       0.70625000000000004        0.0000000000000000     
  0.43750000000000000       0.62500000000000000        0.0000000000000000     
  0.50000000000000000       0.62500000000000000        0.0000000000000000     
  0.50000000000000000       0.68750000000000000        0.0000000000000000     
  0.41249999999999998       0.66249999999999998        0.0000000000000000     
  0.45624999999999999       0.66874999999999996        0.0000000000000000     
  0.46250000000000002       0.71250000000000002        0.0000000000000000     
  0.41875000000000001       0.70625000000000004        0.0000000000000000     
  0.31250000000000000       0.50000000000000000        0.0000000000000000     
  0.37500000000000000       0.50000000000000000        0.0000000000000000     
  0.37500000000000000       0.56250000000000000        0.0000000000000000     
  0.28749999999999998       0.53749999999999998        0.0000000000000000     
  0.33124999999999999       0.54374999999999996        0.0000000000000000     
  0.33750000000000002       0.58750000000000002        0.0000000000000000     
  0.29375000000000001       0.58125000000000004        0.0000000000000000     
  0.43750000000000000       0.50000000000000000        0.0000000000000000     
  0.50000000000000000       0.50000000000000000        0.0000000000000000     
  0.50000000000000000       0.56250000000000000        0.0000000000000000     
  0.41249999999999998       0.53749999999999998        0.0000000000000000     
  0.45624999999999999       0.54374999999999996        0.0000000000000000     
  0.46250000000000002       0.58750000000000002        0.0000000000000000     
  0.41875000000000001       0.58125000000000004        0.0000000000000000     
  0.56250000000000000       0.87500000000000000        0.0000000000000000     
  0.62500000000000000       0.87500000000000000        0.0000000000000000     
  0.62500000000000000       0.93750000000000000        0.0000000000000000     
  0.53749999999999998       0.91249999999999998        0.0000000000000000     
  0.58125000000000004       0.91874999999999996        0.0000000000000000     
  0.58750000000000002       0.96250000000000002        0.0000000000000000     
  0.54374999999999996       0.95625000000000004        0.0000000000000000     
  0.68750000000000000       0.87500000000000000        0.0000000000000000     
  0.75000000000000000       0.87500000000000000        0.0000000000000000     
  0.75000000000000000       0.93750000000000000        0.0000000000000000     
  0.66249999999999998       0.91249999999999998        0.0000000000000000     
  0.70625000000000004       0.91874999999999996        0.0000000000000000     
  0.71250000000000002       0.96250000000000002        0.0000000000000000     
[...]
 CELL_DATA         896
 SCALARS Cells_density float
 LOOKUP_TABLE default
    0.92309517145089625689E+00
    0.86078056746010256362E+00
    0.79284218343024925879E+00
    0.75461923624593918447E+00
    0.78320862847968764076E+00
    0.74315762465808132831E+00
    0.79592411604524881952E+00
    0.85642825977001768578E+00
    0.92519170247703652610E+00
    0.96278699621036167855E+00
    0.93386612164172444484E+00
    0.97568424467814762746E+00
    0.87099465760407579484E+00
    0.84982462903993938319E+00
    0.65521811772009530550E+00
    0.58994948871377972388E+00
    0.51445671752539123833E+00
    0.47732088258318311480E+00
    0.51237227126396278631E+00
    0.47184083386732622589E+00
    0.52807525007764977154E+00
    0.59154126040060939218E+00
    0.66479349708131652008E+00
    0.70430731637467747230E+00
    0.67213061776765736788E+00
    0.71293107856354376306E+00
    0.60443729287177216936E+00
    0.58323262498700911838E+00
    0.91882955604837435182E+00
    0.85407056384603396992E+00
    0.77998209746281110810E+00
    0.74023844057415166819E+00
    0.77257411794781039038E+00
    0.73285485819190065993E+00
    0.79254337179077927189E+00
    0.85135374978545630409E+00
    0.92458490490979317045E+00
    0.96270460072523544870E+00
    0.93106459404960606463E+00
    0.97566923471280053715E+00
    0.86578164369492249808E+00
    0.84548542653661573620E+00
    0.62087904960437811930E+00
    0.54850251332398358706E+00
    0.45762744743270278303E+00
    0.42109450526015196337E+00
    0.47236007380449535065E+00
    0.43788352330660951228E+00
    0.50933031515206206308E+00
    0.56857917505789212775E+00
    0.65469978018487917648E+00
    0.69238811350829454483E+00
    0.65149854796966000237E+00
    0.69212903288476201880E+00
    0.57304997459930229198E+00
    0.55429458566870304370E+00
    0.39995426354586111062E+00
    0.39996568855386166463E+00
    0.39992596742242908503E+00
    0.28024592632243727763E+00
    0.35141727898236868599E+00
    0.26463565346523948429E+00
    0.36449253540714676713E+00
    0.39996359656463548182E+00
    0.39998082096124237816E+00
    0.42978114904721248513E+00
    0.39996595741249008071E+00
    0.43320619119558245735E+00
    0.39996893346207906816E+00
    0.39997314404416733913E+00
    0.18628347769164924075E+00
    0.12739656542465965794E+00
    0.62717442790579475131E-01
    0.25721403504808462714E-01
    0.53514319095388278302E-01
    0.13467080880481287902E-01
    0.62753241379877783279E-01
    0.12306537522744963320E+00
    0.18619824934615097911E+00
    0.22347840496988150005E+00
    0.19625677083339809759E+00
    0.23626715963419331334E+00
    0.13558294627500813712E+00
    0.11406408096691331155E+00
    0.39995227427952756427E+00
    0.39996124568972418745E+00
    0.39996167298198315176E+00
    0.38103522884532564641E+00
    0.39995663486477112114E+00
    0.26950709267547345860E+00
    0.36477795069803620187E+00
    0.39996103256078124888E+00
    0.39995564326974514247E+00
    0.39995481300081259235E+00
    0.39996465550684223711E+00
    0.39995565481787381801E+00
    0.39997146583263848418E+00
    0.39997183095875121772E+00
    0.18667789290366279542E+00
    0.12740226517570701903E+00
    0.62717383529883694027E-01
    0.25721387987526472124E-01
    0.53514475134523127597E-01
    0.13467194777597399705E-01
    0.62798579157532660733E-01
    0.12306798531248247519E+00
    0.18623898748937522951E+00
    0.22381741173900029929E+00
    0.19652010825062843358E+00
    0.24662727369352616114E+00
    0.13558709410833000297E+00
    0.11406395906103135307E+00
    0.91387941857102450438E+00
    0.84055973646533888033E+00
    0.75800843397924599909E+00
    0.71079899209982577712E+00
    0.74727301671999235566E+00
    0.70518318206161156869E+00
    0.77918272350610795485E+00
    0.83903158800209975965E+00
    0.92190219351400004566E+00
    0.96143529882133471620E+00
    0.92681280974161117658E+00
    0.97438165482574867760E+00
    0.85498926646310913213E+00
    0.83544621343920710821E+00
    0.56104097315085965647E+00
    0.46976634035446102056E+00
    0.39988835012442214278E+00
    0.39995021643931705224E+00
    0.39992866578690594581E+00
    0.39995199581873064343E+00
    0.44655881064823271798E+00
    0.50402022233608589907E+00
    0.61937074734911989893E+00
    0.66004661770423966871E+00
    0.60198715000758007410E+00
    0.64908624292783057008E+00
    0.50226483955771805689E+00
    0.48480631722469497147E+00
    0.91282316564214727173E+00
    0.82817455067801293289E+00
    0.74367484046137577458E+00
    0.68401869511252599843E+00
    0.71855848476187278440E+00
    0.66484842462522442119E+00
    0.75675371745759323350E+00
    0.82311421819654717602E+00
    0.91743376396688602892E+00
    0.95935243827012250950E+00
    0.92282464276770348466E+00
    0.97276841454443996327E+00
    0.84409582486711320914E+00
    0.82375386029084540773E+00
    0.52667432733942831646E+00
    0.41396596786943246071E+00
    0.39993178025566250566E+00
    0.39995318476675378871E+00
    0.39994930325256888848E+00
    0.39996360303591821372E+00
    0.39990133650640352636E+00
    0.42420383603821304463E+00
    0.56054083356281436679E+00
    0.61358918576230880859E+00
    0.54678822800860327202E+00
    0.61232379480927878745E+00
    0.43416255088011873609E+00
    0.41180759024424340442E+00
    0.39995361845470361883E+00
    0.39995033132000551435E+00
    0.40001315955343241804E+00
    0.40002390798651571435E+00
    0.39997196623155256701E+00
    0.39995250431850892792E+00
    0.39993952526204196163E+00
    0.39996323743749956359E+00
    0.39995590363150612667E+00
    0.39995825695358866447E+00
    0.39995854894212434782E+00
    0.39996113503960301072E+00
    0.39997965170337340668E+00
    0.39996413405962599752E+00
    0.40924134596473021874E+00
    0.19035194031987676122E+00
    0.75139353120789550977E-01
    0.33473352255981733694E-01
    0.56435382664668042041E-01
    0.13567657279576846377E-01
    0.62800444544165931471E-01
    0.12316932648549605567E+00
    0.19108134513391242248E+00
    0.33574411160163303292E+00
    0.21707838228136872027E+00
    0.40199934746463672486E+00
    0.13995633549509023386E+00
    0.11466292719006157541E+00
    0.39997776860277445277E+00
    0.40172679549756579176E+00
    0.40841380809469612911E+00
    0.41420959552647040880E+00
    0.40815818376217327668E+00
    0.40909404961022560743E+00
    0.40159924794950241367E+00
    0.39997823804027199390E+00
    0.39996671950824785879E+00
    0.39995376571834179158E+00
    0.39994064123127198718E+00
    0.39995123731602966188E+00
    0.40004946142869607373E+00
    0.40145077660644218343E+00
    0.44004580840291634969E+00
    0.71298514977934623893E+00
    0.68529984387526321488E+00
    0.53957917092875373744E+00
    0.47418370655937303049E+00
    0.12604601192804745780E+00
    0.82242147895893777387E-01
    0.38951324693726174786E+00
    0.41244543491619772846E+00
    0.41251852516829728978E+00
    0.41932610469078568372E+00
    0.41839649602917572402E+00
    0.42225856016528084957E+00
    0.42147575334846199002E+00
    0.67259373048002767895E-04
   -0.35126155180155877464E-05
    0.12323187170945864438E-03
    0.12254808952122367882E-03
   -0.49711208697654297236E-05
    0.69637969774241783400E-04
   -0.16021135419332338101E-04
   -0.57930275788768418785E-05
   -0.22508279460343150576E-04
    0.17597404744688940046E-03
    0.60289429775990754196E-05
    0.36532939482014739922E-03
    0.38749397260071723366E-03
    0.38182451322191218865E-03
    0.68410514348975998773E-04
   -0.56985868446258947562E-05
    0.12349267914619932343E-03
    0.12327949267837179674E-03
   -0.61718078226444494884E-05
    0.69152552004459792397E-04
   -0.16794451705896213723E-04
   -0.67374512335807299130E-05
   -0.22848126428244425315E-04
    0.12141772926438568875E-03
   -0.25156317910480080469E-05
    0.68406492390426224719E-04
    0.38994187483028469685E-03
    0.38812501220508092807E-03
    0.67536700870517884414E-04
   -0.34945172163384234838E-05
    0.12315417031928883092E-03
    0.12259839671492528163E-03
   -0.49088206711846494082E-05
    0.69682223155168038090E-04
    0.68783443459733800392E-04
   -0.32557936421996903887E-05
    0.12052965372792061663E-03
    0.17969285456099337974E-03
    0.61425056833219424270E-05
    0.36539847066781940303E-03
    0.38699907658873975748E-03
    0.38183698169891598694E-03
    0.68551230647497386327E-04
   -0.57557486859942007999E-05
    0.12347735370793385670E-03
    0.12330857578985674481E-03
   -0.61735379882319087316E-05
    0.69175586323861140443E-04
    0.68889503876848107080E-04
   -0.55145189728833055379E-05
    0.12261261437676387073E-03
    0.12288195323760799332E-03
   -0.26449937859067266296E-05
    0.68474739567349874833E-04
    0.38977778888438799560E-03
    0.38823774408518391989E-03
    0.68776935780120892995E-04
   -0.64261485182233772043E-05
    0.12357857595464270426E-03
    0.12351750481489305665E-03
   -0.65764663605675540000E-05
    0.68982550815870072249E-04
   -0.17051071550614079858E-04
   -0.70771092189393330191E-05
   -0.22955595170769445702E-04
    0.12266902524704815939E-03
   -0.53909472417635503059E-05
    0.68770363033025225285E-04
    0.39076360990630202956E-03
    0.39021680593753153409E-03
    0.68898866860274334423E-04
   -0.66891707770440021199E-05
    0.12323505581223986156E-03
   -0.22997744016425183917E-04
   -0.72873504376678570902E-05
   -0.17185568471863785483E-04
   -0.17185312925738522737E-04
   -0.71979488987605266066E-05
   -0.22989770683455614100E-04
    0.12309366952748619552E-03
   -0.63861112616628429024E-05
    0.68891962833660011197E-04
    0.39103369227338168057E-03
    0.39096064019237533257E-03
    0.68816894831622048767E-04
   -0.64521965193218373726E-05
    0.12357732291161231154E-03
    0.12352754492164595831E-03
   -0.65819129626264306725E-05
    0.69006723680561707205E-04
    0.68923718604770961528E-04
   -0.63432123240496284216E-05
    0.12330431724117747088E-03
    0.12338394762982895754E-03
   -0.54668028770824019760E-05
    0.68797118557669743161E-04
    0.39073467598230735096E-03
    0.39027237248979014484E-03
    0.68907995888275365578E-04
   -0.66947055175784312179E-05
    0.12323957599722303903E-03
   -0.22998519405219151239E-04
   -0.72877183024680968967E-05
   -0.17158767145175062734E-04
    0.68899682141614385870E-04
   -0.66309668367008309264E-05
    0.12353624733178508906E-03
    0.12354943490383837120E-03
   -0.64072441492835690495E-05
    0.68899276956782247797E-04
    0.39103241171707116795E-03
    0.39097530905907596898E-03
    0.95679527184801983070E-02
    0.51484833081769897090E-02
    0.13188728757372039039E-02
    0.15705855235617846859E-03
   -0.35751015820255015144E-05
    0.69599758402340286480E-04
    0.68791850343618231832E-04
   -0.52223564525640309478E-06
    0.12063521865804147462E-03
    0.21572996979510257508E-03
    0.17488724327284941532E-02
    0.71934306547178118729E-02
    0.14790394749805487341E-02
    0.47764553776477082243E-03
    0.68713710938264466990E-04
   -0.59702880718829732609E-05
    0.12348870806815255303E-03
    0.12336903965939674250E-03
   -0.62495397852715823248E-05
    0.69141720936968551294E-04
    0.68894119207476986954E-04
   -0.53476899591608271589E-05
    0.12269151346445440753E-03
    0.12284280202013808745E-03
   -0.33539864780202524131E-05
    0.68849809705133567083E-04
    0.38973680615281562807E-03
    0.38868125595312706146E-03
    0.19326416782963838636E-01
    0.62752207513932095617E-02
    0.99645770543627522169E-03
    0.92857554429870805320E-03
    0.37917554412625125923E-02
    0.11103865626107900857E-02
    0.31617526894344915797E-02
    0.83205424014900740415E-02
    0.11502132411701379566E-01
    0.15719899417588591162E-01
    0.24173449944014924889E-01
    0.33316051645243632828E+00
    0.86604334516223718116E-02
    0.74227610361726533567E-02
    0.73857536597552532519E-04
   -0.61064031311160597349E-05
    0.12353396681218738098E-03
    0.12340876909529865891E-03
   -0.63973560645525913925E-05
    0.69088732297878287930E-04
    0.68900054932194366910E-04
   -0.57929704827022925127E-05
    0.12326158352065475334E-03
    0.18005329687517416192E-03
    0.29830670590425484919E-05
    0.31560369735975730889E-03
    0.39025294678678526007E-03
    0.38924415594400148862E-03
    0.68849973821702914120E-04
   -0.65082723908096584838E-05
    0.12358270575431215240E-03
    0.12354345855569948088E-03
   -0.66056438208870163389E-05
    0.68997649602296111729E-04
    0.68925582687970012767E-04
   -0.63349720309284758926E-05
    0.12333792644687616657E-03
    0.12339409994559555990E-03
   -0.56778131523781040101E-05
    0.68837395096198628498E-04
    0.39075801921303318425E-03
    0.39040617505859889899E-03
    0.68914246435846648344E-04
   -0.67050561885711613811E-05
    0.12324391599400654190E-03
   -0.22998660136131714415E-04
   -0.72876199026771332722E-05
   -0.17159445020889282766E-04
    0.68900697000893085416E-04
   -0.66312404052640363291E-05
    0.12354544792748221199E-03
    0.12355479407644219102E-03
   -0.64557955346549006598E-05
    0.68908516093153955855E-04
    0.39104322133082643166E-03
    0.39100236793646704148E-03
    0.68830234537929228843E-04
   -0.65558007821768059101E-05
    0.12359491926970561410E-03
    0.12355428788535211633E-03
   -0.66412521338438287833E-05
    0.68986129021618631564E-04
    0.68927734224689170967E-04
   -0.64369715741155843821E-05
    0.12339579816979449303E-03
    0.12344927671956512573E-03
   -0.59031829564607970204E-05
    0.68844192708713441466E-04
    0.39088513609099578144E-03
    0.39055288062923729448E-03
    0.68908936829931133859E-04
   -0.67107004470479602806E-05
    0.12324511154158243804E-03
   -0.22999963001621294385E-04
   -0.72866761412304622083E-05
   -0.17160220186558105561E-04
    0.68904098806431409927E-04
   -0.66556916256479235349E-05
    0.12355874698622755113E-03
    0.12356891700796097315E-03
   -0.65037753782002535549E-05
    0.68910305711894495541E-04
    0.39107347905147110028E-03
    0.39103026117130761834E-03
    0.91757822936428101723E+00
    0.83174402261203861375E+00
    0.75589086450106313109E+00
    0.69376563733640939091E+00
    0.71956347901225159447E+00
    0.65346445828883548135E+00
    0.74346557707067439935E+00
    0.81972352385188740342E+00
    0.91356855369505263198E+00
    0.95883854898036902092E+00
    0.92257485077661594008E+00
    0.97317734047201875924E+00
    0.84547066237333456939E+00
    0.82217585325758868464E+00
    0.56223656954315004430E+00
    0.43550807363535104511E+00
    0.39989475934065599194E+00
    0.39995831426539968367E+00
    0.39995213710166360732E+00
    0.39996715302212959564E+00
    0.39992748817349849100E+00
    0.40514228802808954777E+00
    0.53016688261831368401E+00
    0.59901493332840727302E+00
    0.54868509301443024739E+00
    0.62873845768141589652E+00
    0.43941487122971528700E+00
    0.40917384876844753450E+00
    0.92201658883251336185E+00
    0.84564552334723597227E+00
    0.77828593335814733045E+00
    0.72606740869879171640E+00
    0.74929338786247756676E+00
    0.68742684349269023159E+00
    0.75672565474404274166E+00
    0.83430805609547897816E+00
    0.91535774825292215429E+00
    0.96080437170395660562E+00
    0.92611237467415230551E+00
    0.97504635870593503455E+00
    0.85750988049771703636E+00
    0.83288299032725321425E+00
    0.62171424305979394731E+00
    0.51448298017869065202E+00
    0.44399484943306777307E+00
    0.39994724284048349672E+00
    0.39992329443483853879E+00
    0.39995726055994595960E+00
    0.39989723725854214864E+00
    0.46320731941441511959E+00
    0.56860411200742966287E+00
    0.63653826212215136593E+00
    0.60471112948889738092E+00
    0.67506682175736520968E+00
    0.51272467307968239147E+00
    0.47847591910175513163E+00
    0.39994759448157424231E+00
    0.40000622620678810692E+00
    0.40073563377408821795E+00
    0.40651298112717193511E+00
    0.40848759723318261994E+00
    0.41598132966510276143E+00
    0.40864603488786932495E+00
    0.40155690372194824400E+00
    0.40001163577313242348E+00
    0.39992907889013523670E+00
    0.39997560122635816837E+00
    0.39994443105344912315E+00
    0.40002407106991161312E+00
    0.40173599209780519459E+00
    0.41119473191838240567E+00
    0.24017127441920280151E+00
    0.79210267703509362747E-01
    0.11211152842967229970E+00
    0.50818682428611361424E+00
    0.46533539448150895712E+00
    0.67892576720780273281E+00
    0.73447440151645615458E+00
    0.45741292424959067997E+00
    0.41976706331599605848E+00
    0.41884698885190385642E+00
    0.41104073598600776585E+00
    0.42062999435437409268E+00
    0.42190923079658432249E+00
    0.39996024708296201711E+00
    0.39995678987040333974E+00
    0.39993958449157301915E+00
    0.39997169744581750894E+00
    0.39993862869139823468E+00
    0.39999137484355412608E+00
    0.39997021662527937336E+00
    0.39993583682511657518E+00
    0.39996027077183948784E+00
    0.39994559877292484851E+00
    0.39996979500579421529E+00
    0.39995530310223337267E+00
    0.39996880030326847910E+00
    0.39998407173324312947E+00
    0.19267656013495867984E+00
    0.12753506810661022208E+00
    0.62719277944199999797E-01
    0.25785656386000884582E-01
    0.56097477332757224311E-01
    0.20748047788519772411E-01
    0.75713901825465973472E-01
    0.16653341114616099228E+00
    0.40709107586324005945E+00
    0.40121926291176635004E+00
    0.21708734729602982561E+00
    0.39752212636687850322E+00
    0.13658922162761036323E+00
    0.11713790547443296564E+00
    0.92458079945960403023E+00
    0.85671629515539193811E+00
    0.79218972462408898672E+00
    0.74856909870336874047E+00
    0.77384049732655901810E+00
    0.72340133364605496702E+00
    0.77883859404016198003E+00
    0.84903547238593057855E+00
    0.92009122022599820756E+00
    0.96239134587698726975E+00
    0.93069541394934696132E+00
    0.97577884814082405107E+00
    0.86728074651726383415E+00
    0.84391346253522880883E+00
    0.65570503303596616718E+00
    0.57550946961759685827E+00
    0.50817189120748973430E+00
    0.45702227965819341993E+00
    0.47313590854807274777E+00
    0.40917199409703686186E+00
    0.45509068624249288115E+00
    0.54308389314224403410E+00
    0.62613334644496121406E+00
    0.67965061737762455518E+00
    0.65222531278304085589E+00
    0.70593023174313307422E+00
    0.57879398115641644829E+00
    0.54999264610356568550E+00
    0.92501600281156637351E+00
    0.86139259659828049109E+00
    0.79620661984050655757E+00
    0.75708653414800286541E+00
    0.78366258245249731385E+00
    0.74048446574342241533E+00
    0.79228389359269546510E+00
    0.85604595353331391916E+00
    0.92378223798365699526E+00
    0.96283304581896655971E+00
    0.93372975529500790159E+00
    0.97551805283743142638E+00
    0.87140918182523408042E+00
    0.84953120239686397142E+00
    0.66446777594058936689E+00
    0.59720571970081859359E+00
    0.52853009059237709977E+00
    0.48703513695728445354E+00
    0.51280148287844584676E+00
    0.46112554741895056543E+00
    0.51314961395195024529E+00
    0.58502751356958448969E+00
    0.65747274077472850351E+00
    0.70052021859954793914E+00
    0.67239898754246185675E+00
    0.71706707531388580446E+00
    0.60592148256459332778E+00
    0.58231744036888266614E+00
    0.39995385933646804277E+00
    0.39996610785815667199E+00
    0.38617773690377399376E+00
    0.28332622802455925681E+00
    0.39995854556798038359E+00
    0.37498597889928042548E+00
    0.39996185046812920971E+00
    0.39996285465649039637E+00
    0.39995176121662306956E+00
    0.39995513498615109516E+00
    0.39996641932405202491E+00
    0.41361518788877832398E+00
    0.39996552438445620581E+00
    0.39997413341837600997E+00
    0.18629057880720634177E+00
    0.12739674632527350773E+00
    0.62717467037047183731E-01
    0.25721390573912265159E-01
    0.53514387138449998060E-01
    0.13467252634399341088E-01
    0.62798733056517702655E-01
    0.12307523974516870746E+00
    0.18669500896884427821E+00
    0.23251434086635944243E+00
    0.19649407181903244535E+00
    0.23657493380106484060E+00