# vtk DataFile Version 3.0
LAPLACIEN  2D
ASCII
DATASET UNSTRUCTURED_GRID
 POINTS         481  float
   6.2500000000000000E-002  0.87500000000000000        0.0000000000000000     
  0.12500000000000000       0.87500000000000000        0.0000000000000000     
  0.12500000000000000       0.93750000000000000        0.0000000000000000     
   3.7499999999999999E-002  0.91249999999999998        0.0000000000000000     
   8.1250000000000003E-002  0.91874999999999996        0.0000000000000000     
   8.7499999999999994E-002  0.96250000000000002        0.0000000000000000     
   4.3749999999999997E-002  0.95625000000000004        0.0000000000000000     
  0.18750000000000000       0.87500000000000000        0.0000000000000000     
  0.25000000000000000       0.87500000000000000        0.0000000000000000     
  0.25000000000000000       0.93750000000000000        0.0000000000000000     
  0.16250000000000001       0.91249999999999998        0.0000000000000000     
  0.20624999999999999       0.91874999999999996        0.0000000000000000     
  0.21249999999999999       0.96250000000000002        0.0000000000000000     
  0.16875000000000001       0.95625000000000004        0.0000000000000000     
   6.2500000000000000E-002  0.75000000000000000        0.0000000000000000     
  0.12500000000000000       0.75000000000000000        0.0000000000000000     
  0.12500000000000000       0.81250000000000000        0.0000000000000000     
   3.7499999999999999E-002  0.78749999999999998        0.0000000000000000     
   8.1250000000000003E-002  0.79374999999999996        0.0000000000000000     
   8.7499999999999994E-002  0.83750000000000002        0.0000000000000000     
   4.3749999999999997E-002  0.83125000000000004        0.0000000000000000     
  0.18750000000000000       0.75000000000000000        0.0000000000000000     
  0.25000000000000000       0.75000000000000000        0.0000000000000000     
  0.25000000000000000       0.81250000000000000        0.0000000000000000     
  0.16250000000000001       0.78749999999999998        0.0000000000000000     
  0.20624999999999999       0.79374999999999996        0.0000000000000000     
  0.21249999999999999       0.83750000000000002        0.0000000000000000     
  0.16875000000000001       0.83125000000000004        0.0000000000000000     
  0.31250000000000000       0.87500000000000000        0.0000000000000000     
  0.37500000000000000       0.87500000000000000        0.0000000000000000     
  0.37500000000000000       0.93750000000000000        0.0000000000000000     
  0.28749999999999998       0.91249999999999998        0.0000000000000000     
  0.33124999999999999       0.91874999999999996        0.0000000000000000     
  0.33750000000000002       0.96250000000000002        0.0000000000000000     
  0.29375000000000001       0.95625000000000004        0.0000000000000000     
  0.43750000000000000       0.87500000000000000        0.0000000000000000     
  0.50000000000000000       0.87500000000000000        0.0000000000000000     
  0.50000000000000000       0.93750000000000000        0.0000000000000000     
  0.41249999999999998       0.91249999999999998        0.0000000000000000     
  0.45624999999999999       0.91874999999999996        0.0000000000000000     
  0.46250000000000002       0.96250000000000002        0.0000000000000000     
  0.41875000000000001       0.95625000000000004        0.0000000000000000     
  0.31250000000000000       0.75000000000000000        0.0000000000000000     
  0.37500000000000000       0.75000000000000000        0.0000000000000000     
  0.37500000000000000       0.81250000000000000        0.0000000000000000     
  0.28749999999999998       0.78749999999999998        0.0000000000000000     
  0.33124999999999999       0.79374999999999996        0.0000000000000000     
  0.33750000000000002       0.83750000000000002        0.0000000000000000     
  0.29375000000000001       0.83125000000000004        0.0000000000000000     
  0.43750000000000000       0.75000000000000000        0.0000000000000000     
  0.50000000000000000       0.75000000000000000        0.0000000000000000     
  0.50000000000000000       0.81250000000000000        0.0000000000000000     
  0.41249999999999998       0.78749999999999998        0.0000000000000000     
  0.45624999999999999       0.79374999999999996        0.0000000000000000     
  0.46250000000000002       0.83750000000000002        0.0000000000000000     
  0.41875000000000001       0.83125000000000004        0.0000000000000000     
   6.2500000000000000E-002  0.62500000000000000        0.0000000000000000     
  0.12500000000000000       0.62500000000000000        0.0000000000000000     
  0.12500000000000000       0.68750000000000000        0.0000000000000000     
   3.7499999999999999E-002  0.66249999999999998        0.0000000000000000     
   8.1250000000000003E-002  0.66874999999999996        0.0000000000000000     
   8.7499999999999994E-002  0.71250000000000002        0.0000000000000000     
   4.3749999999999997E-002  0.70625000000000004        0.0000000000000000     
  0.18750000000000000       0.62500000000000000        0.0000000000000000     
  0.25000000000000000       0.62500000000000000        0.0000000000000000     
  0.25000000000000000       0.68750000000000000        0.0000000000000000     
  0.16250000000000001       0.66249999999999998        0.0000000000000000     
  0.20624999999999999       0.66874999999999996        0.0000000000000000     
  0.21249999999999999       0.71250000000000002        0.0000000000000000     
  0.16875000000000001       0.70625000000000004        0.0000000000000000     
   6.2500000000000000E-002  0.50000000000000000        0.0000000000000000     
  0.12500000000000000       0.50000000000000000        0.0000000000000000     
  0.12500000000000000       0.56250000000000000        0.0000000000000000     
   3.7499999999999999E-002  0.53749999999999998        0.0000000000000000     
   8.1250000000000003E-002  0.54374999999999996        0.0000000000000000     
   8.7499999999999994E-002  0.58750000000000002        0.0000000000000000     
   4.3749999999999997E-002  0.58125000000000004        0.0000000000000000     
  0.18750000000000000       0.50000000000000000        0.0000000000000000     
  0.25000000000000000       0.50000000000000000        0.0000000000000000     
  0.25000000000000000       0.56250000000000000        0.0000000000000000     
  0.16250000000000001       0.53749999999999998        0.0000000000000000     
  0.20624999999999999       0.54374999999999996        0.0000000000000000     
  0.21249999999999999       0.58750000000000002        0.0000000000000000     
  0.16875000000000001       0.58125000000000004        0.0000000000000000     
  0.31250000000000000       0.62500000000000000        0.0000000000000000     
  0.37500000000000000       0.62500000000000000        0.0000000000000000     
  0.37500000000000000       0.68750000000000000        0.0000000000000000     
  0.28749999999999998       0.66249999999999998        0.0000000000000000     
  0.33124999999999999       0.66874999999999996        0.0000000000000000     
  0.33750000000000002       0.71250000000000002        0.0000000000000000     
  0.29375000000000001       0.70625000000000004        0.0000000000000000     
  0.43750000000000000       0.62500000000000000        0.0000000000000000     
  0.50000000000000000       0.62500000000000000        0.0000000000000000     
  0.50000000000000000       0.68750000000000000        0.0000000000000000     
  0.41249999999999998       0.66249999999999998        0.0000000000000000     
  0.45624999999999999       0.66874999999999996        0.0000000000000000     
  0.46250000000000002       0.71250000000000002        0.0000000000000000     
  0.41875000000000001       0.70625000000000004        0.0000000000000000     
  0.31250000000000000       0.50000000000000000        0.0000000000000000     
  0.37500000000000000       0.50000000000000000        0.0000000000000000     
  0.37500000000000000       0.56250000000000000        0.0000000000000000     
  0.28749999999999998       0.53749999999999998        0.0000000000000000     
  0.33124999999999999       0.54374999999999996        0.0000000000000000     
  0.33750000000000002       0.58750000000000002        0.0000000000000000     
  0.29375000000000001       0.58125000000000004        0.0000000000000000     
  0.43750000000000000       0.50000000000000000        0.0000000000000000     
  0.50000000000000000       0.50000000000000000        0.0000000000000000     
  0.50000000000000000       0.56250000000000000        0.0000000000000000     
  0.41249999999999998       0.53749999999999998        0.0000000000000000     
  0.45624999999999999       0.54374999999999996        0.0000000000000000     
  0.46250000000000002       0.58750000000000002        0.0000000000000000     
  0.41875000000000001       0.58125000000000004        0.0000000000000000     
  0.56250000000000000       0.87500000000000000        0.0000000000000000     
  0.62500000000000000       0.87500000000000000        0.0000000000000000     
  0.62500000000000000       0.93750000000000000        0.0000000000000000     
  0.53749999999999998       0.91249999999999998        0.0000000000000000     
  0.58125000000000004       0.91874999999999996        0.0000000000000000     
  0.58750000000000002       0.96250000000000002        0.0000000000000000     
  0.54374999999999996       0.95625000000000004        0.0000000000000000     
  0.68750000000000000       0.87500000000000000        0.0000000000000000     
  0.75000000000000000       0.87500000000000000        0.0000000000000000     
  0.75000000000000000       0.93750000000000000        0.0000000000000000     
  0.66249999999999998       0.91249999999999998        0.0000000000000000     
  0.70625000000000004       0.91874999999999996        0.0000000000000000     
  0.71250000000000002       0.96250000000000002        0.0000000000000000     
[...]
 CELL_DATA         896
 SCALARS Cells_density float
 LOOKUP_TABLE default
    0.92453126726745182840E+00
    0.86374394775473450903E+00
    0.79645419646665727154E+00
    0.75938613243582409051E+00
    0.78704900112763598319E+00
    0.74741171094636782435E+00
    0.79904363214372797763E+00
    0.85907797466764368455E+00
    0.92635715793965911491E+00
    0.96411612402792745691E+00
    0.93547203329995132215E+00
    0.97700133596436689043E+00
    0.87271563459478007641E+00
    0.85185634235348073329E+00
    0.66483979722594177542E+00
    0.60322518986945705688E+00
    0.53310216878862559664E+00
    0.49701784884448368951E+00
    0.52788111374087420824E+00
    0.48919992248395977041E+00
    0.54124939470887323267E+00
    0.60195915561847002095E+00
    0.67131221871274593394E+00
    0.70934589533302117026E+00
    0.67957090721924184873E+00
    0.71931743792299318585E+00
    0.61442337583307093940E+00
    0.59409612629922758931E+00
    0.92127299531696960067E+00
    0.85938382883209918361E+00
    0.78794530694866327103E+00
    0.75067380394326965742E+00
    0.78003778485773445084E+00
    0.74061924793637023967E+00
    0.79705226888979308075E+00
    0.85518403129436681986E+00
    0.92600408509156229009E+00
    0.96423575865122868045E+00
    0.93328873712722959510E+00
    0.97722393153624620421E+00
    0.86890599772927268329E+00
    0.84925116146015255936E+00
    0.64434663094015975915E+00
    0.57911530295398627732E+00
    0.49953412149104398088E+00
    0.46539234359618131265E+00
    0.50422421611442769240E+00
    0.47061421194494690301E+00
    0.53081260198337787415E+00
    0.58788830342863684919E+00
    0.66572393758636783101E+00
    0.70217311015307259936E+00
    0.66745455737532033424E+00
    0.70676553067720238044E+00
    0.59560928467462115332E+00
    0.57812835379034011041E+00
    0.40218333224563035388E+00
    0.39999766586331275686E+00
    0.34616532667743865614E+00
    0.27271034525819909389E+00
    0.30017865510276980912E+00
    0.26017434614807027904E+00
    0.32780439846304354479E+00
    0.39998903870625646118E+00
    0.41327028317410891001E+00
    0.45060270953772008085E+00
    0.42011356587972953358E+00
    0.45711747788575440854E+00
    0.39999059055163921350E+00
    0.39254868218966787463E+00
    0.18579257705701801573E+00
    0.12630359992366338440E+00
    0.62092922690157953403E-01
    0.25004408774700250667E-01
    0.52538105865922953008E-01
    0.12658256422598294574E-01
    0.62102351826255494660E-01
    0.12199226013707058225E+00
    0.18577121516439915050E+00
    0.22289042376333251250E+00
    0.19555793116292466416E+00
    0.23531743452975273367E+00
    0.13483677409407335279E+00
    0.11322319071211091324E+00
    0.39997665217200906174E+00
    0.40000272766160022142E+00
    0.39997915194579497511E+00
    0.29075817467393733073E+00
    0.40001331641828258290E+00
    0.26106922117972775066E+00
    0.33021057221541627591E+00
    0.40000301771034124654E+00
    0.39998244537275862154E+00
    0.43081786552978434957E+00
    0.39998953085610111646E+00
    0.42258822540450552419E+00
    0.39999810919255351926E+00
    0.39998303870572171625E+00
    0.18579293525202253412E+00
    0.12630361169217624306E+00
    0.62092913776275640569E-01
    0.25004411620533469052E-01
    0.52538113455954965625E-01
    0.12658256471395320022E-01
    0.62115337967733344482E-01
    0.12199241757014470111E+00
    0.18577902094765466612E+00
    0.22289949817367504803E+00
    0.19555836356209338467E+00
    0.23544501375214957339E+00
    0.13483676328466143168E+00
    0.11322318542983678125E+00
    0.91808689098937634743E+00
    0.85066589641659373644E+00
    0.77466782149831747706E+00
    0.73369169775838016800E+00
    0.76396856117181122237E+00
    0.72364438169431199999E+00
    0.78905151232152415108E+00
    0.84656079340007994727E+00
    0.92438158682848425851E+00
    0.96340686728086710744E+00
    0.93048896648578871549E+00
    0.97639020349935101706E+00
    0.86150592314601426303E+00
    0.84342063656723265108E+00
    0.61012302488493586061E+00
    0.53055647649635184759E+00
    0.44311940921730419429E+00
    0.40793931766994567800E+00
    0.45169558825986655393E+00
    0.42247284038283566820E+00
    0.49350425315154644590E+00
    0.54831500849914693863E+00
    0.64610993061434096596E+00
    0.68336399416249227201E+00
    0.63901966369070495322E+00
    0.68158420666565466828E+00
    0.55283711984520367277E+00
    0.53890296266997828045E+00
    0.91810778072185050824E+00
    0.84252953672431440957E+00
    0.76691168130638465161E+00
    0.71863889525842206130E+00
    0.74711314812234552729E+00
    0.69992507605333653675E+00
    0.77576995750795374462E+00
    0.83652473027548046591E+00
    0.92165041527416535772E+00
    0.96192167372600234643E+00
    0.92826108986401645318E+00
    0.97508576036796201780E+00
    0.85459604704733216352E+00
    0.83681337730440474854E+00
    0.59141941491130145536E+00
    0.49114998612959148705E+00
    0.41055032855167544747E+00
    0.39997886709134733429E+00
    0.40464445085528555346E+00
    0.39996184654052574503E+00
    0.43675414713782545473E+00
    0.49510361981848588497E+00
    0.61306947191750149617E+00
    0.65737308923179116338E+00
    0.60681408838715444887E+00
    0.66060389451906342817E+00
    0.50936741339730762235E+00
    0.49423175683960779425E+00
    0.40003355790548972282E+00
    0.39994076889130031338E+00
    0.40002454339048848508E+00
    0.40003916798867195093E+00
    0.39994406791991488070E+00
    0.34954590827053422242E+00
    0.40002646663732632781E+00
    0.39997679472260733169E+00
    0.40000770457411083392E+00
    0.39997828552360531473E+00
    0.40003434729661130342E+00
    0.39997852340805728488E+00
    0.39996303718158066065E+00
    0.39999521133603777034E+00
    0.29855447874428731048E+00
    0.12768896314014652194E+00
    0.72286300708727518893E-01
    0.25836410482653213161E-01
    0.52544194189371860870E-01
    0.12658259331845009635E-01
    0.62115345588053073878E-01
    0.12199251775452167601E+00
    0.18578147131534089587E+00
    0.22364555880930761522E+00
    0.19761797032227956805E+00
    0.39981702648561434632E+00
    0.13485089251154547263E+00
    0.11322320647318712128E+00
    0.39994640322694358092E+00
    0.40001012458179968645E+00
    0.40016422565984954840E+00
    0.40645089331613065697E+00
    0.40037038803392910324E+00
    0.40066034393377930600E+00
    0.39986850889621539107E+00
    0.40002872838788039456E+00
    0.39996970742251103381E+00
    0.40002867501371569547E+00
    0.39995233305389510381E+00
    0.40004299200338155895E+00
    0.40004197690336351645E+00
    0.39986234799787145899E+00
    0.43808717552009451834E+00
    0.44124477381036830703E+00
    0.43617064498708790765E+00
    0.42067823097831325008E+00
    0.21891733790003745086E+00
    0.40398491509858802662E-01
    0.83331786583655129141E-01
    0.15464585631078586747E+00
    0.35875911045757785667E+00
    0.40668829607288509154E+00
    0.43073624997843712459E+00
    0.42307502162596333228E+00
    0.44088642710688918935E+00
    0.43944317596298332340E+00
    0.17847173700554076314E-04
   -0.35120822531067063589E-05
    0.32925036691443124517E-04
    0.32874959057908065426E-04
   -0.36043482289574356280E-05
    0.18015991955285526869E-04
   -0.47223766725331258883E-05
   -0.36280517743652319400E-05
   -0.64462309538523846622E-05
    0.46916983725150393286E-04
   -0.28412431356151495118E-05
    0.94020632115789681588E-04
    0.10698472500243824278E-03
    0.10652117876617642797E-03
    0.17923925596038041652E-04
   -0.36667068517058829015E-05
    0.32939926374223022594E-04
    0.32923548255477302416E-04
   -0.36969159983152613560E-05
    0.17979313463346308772E-04
   -0.47720773269912595050E-05
   -0.37093894008146484345E-05
   -0.64664448923856933198E-05
    0.32817971052932570037E-04
   -0.34458809959523319531E-05
    0.17925637583042475752E-04
    0.10713515080108820679E-03
    0.10698316017467852229E-03
    0.17874537655830310436E-04
   -0.35122391562422431297E-05
    0.32921200663752004712E-04
    0.32879863287384281469E-04
   -0.36012140328575391267E-05
    0.18016033035533403377E-04
    0.17953241335575769827E-04
   -0.34975162275141893049E-05
    0.32737657276788492385E-04
    0.47156358054053346325E-04
   -0.28417763449790923709E-05
    0.94027328475182329112E-04
    0.10695760870599524883E-03
    0.10653076502708173467E-03
    0.17933686422063211535E-04
   -0.36690535319246713977E-05
    0.32939746750991084749E-04
    0.32924826099841309726E-04
   -0.36967993685532033054E-05
    0.17979238881626212796E-04
    0.17958796584566389125E-04
   -0.36621833782648035815E-05
    0.32878692129520531938E-04
    0.32900338202619799628E-04
   -0.34507831456854142041E-05
    0.17929341211696982867E-04
    0.10712956160235137157E-03
    0.10698832216049509851E-03
    0.17949187200392733785E-04
   -0.37179908601257421520E-05
    0.32944652022556987362E-04
    0.32939740822760921852E-04
   -0.37278835267028155088E-05
    0.17966703454651409313E-04
   -0.47886669345206255257E-05
   -0.37365847610424787330E-05
   -0.64729901081385879475E-05
    0.32901889205353868919E-04
   -0.36462409409362134334E-05
    0.17949822309814201951E-04
    0.10718421853571970812E-03
    0.10713658907238609740E-03
    0.17958116049316406767E-04
   -0.37366457568052745429E-05
    0.32939990936089468573E-04
   -0.64755804338156037399E-05
   -0.37497078302394779137E-05
   -0.47959914040768505163E-05
   -0.47959664894062050260E-05
   -0.37461357598796769892E-05
   -0.64751091696001929023E-05
    0.32930501970227630160E-04
   -0.37163546174711355226E-05
    0.17958065003977498314E-04
    0.10720017868232141109E-03
    0.10719209280755723896E-03
    0.17950404225396667738E-04
   -0.37183980434129722291E-05
    0.32944725386191226412E-04
    0.32939874091213158021E-04
   -0.37279208015629549181E-05
    0.17966680708377794664E-04
    0.17960600614142985449E-04
   -0.37168821651731279621E-05
    0.32924978781024056445E-04
    0.32932088132801298156E-04
   -0.36473444964516763475E-05
    0.17950481718302087824E-04
    0.10718402179256021080E-03
    0.10713738606569887411E-03
    0.17958176931501096781E-04
   -0.37366809126893030767E-05
    0.32939999067023152625E-04
   -0.64755864934574565702E-05
   -0.37497121098723893600E-05
   -0.47956695717347328298E-05
    0.17960685180034133594E-04
   -0.37357042539737386430E-05
    0.32941034624451108177E-04
    0.32942489198309598273E-04
   -0.37164576470020829687E-05
    0.17958106530184108360E-04
    0.10720031004402363439E-03
    0.10719218327987608457E-03
    0.78231314191545206493E-02
    0.49003926436660873861E-03
    0.36528037664621570741E-04
    0.32916427185686707711E-04
   -0.35963069743300056001E-05
    0.18010994381201815616E-04
    0.17955633659606197656E-04
   -0.33448015728723760922E-05
    0.32740707135422416956E-04
    0.47112006485663018699E-04
   -0.20739089981204586582E-05
    0.56474406646648536365E-03
    0.10822481224037088150E-03
    0.10666858555086243879E-03
    0.17973299970099187593E-04
   -0.36910458599789010688E-05
    0.32940408466320018964E-04
    0.32931870379457817892E-04
   -0.37008435591237315393E-05
    0.17978114796304630073E-04
    0.17959427457027224824E-04
   -0.36395010162598670928E-05
    0.32885383596626530426E-04
    0.32894936988336515873E-04
   -0.35155728392554415278E-05
    0.17955521938221026508E-04
    0.10710784159316871973E-03
    0.10703602326903838521E-03
    0.18946382538792682238E-02
    0.81910271394093235250E-03
    0.33113602106588194444E-03
    0.41169741614313539856E-03
    0.34948123604633266406E-02
    0.25015451377237446105E-03
    0.50798814321263393353E-03
    0.73003909627408552704E-02
    0.15411917635163420795E-01
    0.23648550838449317740E-01
    0.12484037905195543433E-01
    0.12402690402674186598E+00
    0.26069070235901848145E-02
    0.24064330418580880989E-02
    0.18891995103547732423E-04
   -0.37227526563794228562E-05
    0.32946560153688508594E-04
    0.32942261364401452669E-04
   -0.37249518321421707626E-05
    0.17971675687976745693E-04
    0.17961409185491340371E-04
   -0.36492722411164004747E-05
    0.32923239759375645620E-04
    0.33724718367392458570E-04
   -0.22921393998561867528E-05
    0.21167516091549241973E-03
    0.10714558790589378580E-03
    0.10717074777011453813E-03
    0.17954319167725754723E-04
   -0.37208703756302747041E-05
    0.32945057220131428307E-04
    0.32940475209939418970E-04
   -0.37284523640591944315E-05
    0.17966601391329514162E-04
    0.17960647500232627830E-04
   -0.37156001383469454592E-05
    0.32926255191986042003E-04
    0.32932537418752697402E-04
   -0.36569027380060563535E-05
    0.17954161122488057189E-04
    0.10718444244847277964E-03
    0.10714297513954816870E-03
    0.17958376642741185648E-04
   -0.37367931697375112162E-05
    0.32940068345669631835E-04
   -0.64755973298652681264E-05
   -0.37497213108763185587E-05
   -0.47956758805124441894E-05
    0.17960696899252028425E-04
   -0.37356767925155696456E-05
    0.32941131134841092787E-04
    0.32942579952760237937E-04
   -0.37170291717234832287E-05
    0.17958351695837938865E-04
    0.10720042151356869522E-03
    0.10719247071816252758E-03
    0.17954903131304324811E-04
   -0.37249985298425995514E-05
    0.32945860006940902757E-04
    0.32941289597008708645E-04
   -0.37303355151490497077E-05
    0.17966299983040321184E-04
    0.17960883347083892792E-04
   -0.37183003522219286105E-05
    0.32931351763356724494E-04
    0.32937568959553678452E-04
   -0.36810892866787322587E-05
    0.17958601221440762463E-04
    0.10719290526403322270E-03
    0.10715589936771925466E-03
    0.17958431754387389322E-04
   -0.37369526329296119693E-05
    0.32940123382121827317E-04
   -0.64756090650104105094E-05
   -0.37497327244850292590E-05
   -0.47956864129147014949E-05
    0.17960708079914550813E-04
   -0.37358055897418574278E-05
    0.32941429159458887545E-04
    0.32942974498762132266E-04
   -0.37182103938782801414E-05
    0.17958639405694318833E-04
    0.10720088120589845631E-03
    0.10719302595249232714E-03
    0.92178794202319558337E+00
    0.84397018742773666222E+00
    0.77456651378573415645E+00
    0.72369990332734812633E+00
    0.74800533499893284706E+00
    0.69348607833013098389E+00
    0.76736242561740586332E+00
    0.83514572621152649567E+00
    0.91867000324774328313E+00
    0.96164716878763889518E+00
    0.92793935830272822329E+00
    0.97530300753084464560E+00
    0.85580149638032665393E+00
    0.83549891109809915068E+00
    0.61310791227377914314E+00
    0.50609359676478027357E+00
    0.43492242318212864793E+00
    0.39997070800292877646E+00
    0.40483364628113199801E+00
    0.39996657309383532031E+00
    0.41086456402094340135E+00
    0.48133946075663036623E+00
    0.59454603110274273359E+00
    0.64926833078016266132E+00
    0.60769135035302312975E+00
    0.66991372290852879701E+00
    0.51347611517741154064E+00
    0.49123806099260630686E+00
    0.92447801895324177579E+00
    0.85258968029555415313E+00
    0.78800252818223315288E+00
    0.74172600831880508565E+00
    0.76597571320708546239E+00
    0.71339036267787048207E+00
    0.77411425547370737998E+00
    0.84489186353970491261E+00
    0.91922827573083443209E+00
    0.96315339658288678937E+00
    0.92969288845897890550E+00
    0.97674240646365828589E+00
    0.86391831236702665286E+00
    0.84090740471838920644E+00
    0.64711543945019378565E+00
    0.55708006504985629892E+00
    0.49168903264187890922E+00
    0.43838347258766963144E+00
    0.45252595479758755959E+00
    0.39999641140212244261E+00
    0.44174103003811815427E+00
    0.52329998529770771487E+00
    0.61534130309811418957E+00
    0.67008848504555262870E+00
    0.64000207409039722162E+00
    0.69659778281763273799E+00
    0.56018355326390834037E+00
    0.53340893379745146774E+00
    0.39995711074313111677E+00
    0.40008066534430219985E+00
    0.39993802606033523883E+00
    0.40013077905704291792E+00
    0.40030294788749443136E+00
    0.40834062672221593804E+00
    0.40012328625400211957E+00
    0.40004944599408498451E+00
    0.39994906967346621762E+00
    0.40004828777433587561E+00
    0.39995244999373552597E+00
    0.40003067432945260684E+00
    0.40001838151328228399E+00
    0.39994792008841534292E+00
    0.33040802694003806872E+00
    0.15494320540392819696E+00
    0.83007341423193742314E-01
    0.52360146540488622380E-01
    0.14527735334045288607E+00
    0.41979003551330434929E+00
    0.44315844764801975986E+00
    0.44051434523947857747E+00
    0.43735226124748449728E+00
    0.42274038811129205362E+00
    0.42513023412784911592E+00
    0.40357149834253008835E+00
    0.43554038998880900690E+00
    0.43944006594047113623E+00
    0.40000700465995531196E+00
    0.39994670175050439642E+00
    0.40003419921543459381E+00
    0.39903639972005222614E+00
    0.39992344980831812107E+00
    0.40003356379249699337E+00
    0.40002546737490984885E+00
    0.39993928692429381311E+00
    0.39999094184258782159E+00
    0.39998679328731673310E+00
    0.40001633430135918879E+00
    0.39997231316874126694E+00
    0.39996903869687561173E+00
    0.40007969028848039406E+00
    0.18579812858305363998E+00
    0.12630362478401443993E+00
    0.62092936305372901928E-01
    0.25004417032514915376E-01
    0.52544132753989877815E-01
    0.13487095464649986182E-01
    0.73688723403028635883E-01
    0.12321817177331945148E+00
    0.22299508219779359819E+00
    0.40000015788951631679E+00
    0.19727732569768036130E+00
    0.23703060111529791754E+00
    0.13484384688478356917E+00
    0.11322759313625450905E+00
    0.92603970553236225616E+00
    0.86031668001533423418E+00
    0.79659878564170094606E+00
    0.75521795982971662298E+00
    0.78138299111062003988E+00
    0.73505063024993810838E+00
    0.78727685223522025915E+00
    0.85453663766271659163E+00
    0.92227926915350988413E+00
    0.96412072181970109863E+00
    0.93289101159880627456E+00
    0.97715780671207419505E+00
    0.87046515505942734237E+00
    0.84754338103344517563E+00
    0.66627326005488884952E+00
    0.59399710868435962041E+00
    0.52995077291966796729E+00
    0.48503308684941842666E+00
    0.50494959384387327894E+00
    0.45161926411196662290E+00
    0.49781509492600894973E+00
    0.57375868144013819627E+00
    0.64792441096454000959E+00
    0.69490126015015585281E+00
    0.66731051383915995778E+00
    0.71502960804346826773E+00
    0.59976394868567239893E+00
    0.57480684439091178639E+00
    0.92629068430047778460E+00
    0.86393408861493492523E+00
    0.79913112890567239432E+00
    0.76090611516312833817E+00
    0.78750951289836357283E+00
    0.74579187334454566383E+00
    0.79615702102832719422E+00
    0.85909931939315631322E+00
    0.92506474544781991387E+00
    0.96426201834221936249E+00
    0.93532071059024790571E+00
    0.97675029939375856980E+00
    0.87322777671409779199E+00
    0.85142583648529890361E+00
    0.67117345572479814031E+00
    0.60724111725013896201E+00
    0.54151669855742101678E+00
    0.50250417696509241949E+00
    0.52820847040901408587E+00
    0.48400843332538545649E+00
    0.53238427989748959845E+00
    0.59843483070173475458E+00
    0.66646161096650202715E+00
    0.70717305247751705011E+00
    0.67961851574748965987E+00
    0.72193010827054182599E+00
    0.61554182207630170343E+00
    0.59326798352454168661E+00
    0.39998949176723092025E+00
    0.39998178931279709802E+00
    0.34879126552627265356E+00
    0.27371080106723871816E+00
    0.40001861550323419836E+00
    0.27567317926121437388E+00
    0.39996043030098710203E+00
    0.40001290956274809796E+00
    0.39998224420513500688E+00
    0.40911605652802696120E+00
    0.39998153851936224523E+00
    0.44458158397580399557E+00
    0.40001830671876570378E+00
    0.39995866159640197646E+00
    0.18579263816712768276E+00
    0.12630360019607214661E+00
    0.62092923475700077807E-01
    0.25004409316956084652E-01
    0.52538106823274116630E-01
    0.12658258156027467345E-01
    0.62115347217243231659E-01
    0.12199240687834154995E+00
    0.18577931520297380485E+00
    0.22297888997918541287E+00
    0.19555829372726410420E+00
    0.23533189783912319970E+00