# vtk DataFile Version 3.0
LAPLACIEN  2D
ASCII
DATASET UNSTRUCTURED_GRID
 POINTS         481  float
   6.2500000000000000E-002  0.87500000000000000        0.0000000000000000     
  0.12500000000000000       0.87500000000000000        0.0000000000000000     
  0.12500000000000000       0.93750000000000000        0.0000000000000000     
   3.7499999999999999E-002  0.91249999999999998        0.0000000000000000     
   8.1250000000000003E-002  0.91874999999999996        0.0000000000000000     
   8.7499999999999994E-002  0.96250000000000002        0.0000000000000000     
   4.3749999999999997E-002  0.95625000000000004        0.0000000000000000     
  0.18750000000000000       0.87500000000000000        0.0000000000000000     
  0.25000000000000000       0.87500000000000000        0.0000000000000000     
  0.25000000000000000       0.93750000000000000        0.0000000000000000     
  0.16250000000000001       0.91249999999999998        0.0000000000000000     
  0.20624999999999999       0.91874999999999996        0.0000000000000000     
  0.21249999999999999       0.96250000000000002        0.0000000000000000     
  0.16875000000000001       0.95625000000000004        0.0000000000000000     
   6.2500000000000000E-002  0.75000000000000000        0.0000000000000000     
  0.12500000000000000       0.75000000000000000        0.0000000000000000     
  0.12500000000000000       0.81250000000000000        0.0000000000000000     
   3.7499999999999999E-002  0.78749999999999998        0.0000000000000000     
   8.1250000000000003E-002  0.79374999999999996        0.0000000000000000     
   8.7499999999999994E-002  0.83750000000000002        0.0000000000000000     
   4.3749999999999997E-002  0.83125000000000004        0.0000000000000000     
  0.18750000000000000       0.75000000000000000        0.0000000000000000     
  0.25000000000000000       0.75000000000000000        0.0000000000000000     
  0.25000000000000000       0.81250000000000000        0.0000000000000000     
  0.16250000000000001       0.78749999999999998        0.0000000000000000     
  0.20624999999999999       0.79374999999999996        0.0000000000000000     
  0.21249999999999999       0.83750000000000002        0.0000000000000000     
  0.16875000000000001       0.83125000000000004        0.0000000000000000     
  0.31250000000000000       0.87500000000000000        0.0000000000000000     
  0.37500000000000000       0.87500000000000000        0.0000000000000000     
  0.37500000000000000       0.93750000000000000        0.0000000000000000     
  0.28749999999999998       0.91249999999999998        0.0000000000000000     
  0.33124999999999999       0.91874999999999996        0.0000000000000000     
  0.33750000000000002       0.96250000000000002        0.0000000000000000     
  0.29375000000000001       0.95625000000000004        0.0000000000000000     
  0.43750000000000000       0.87500000000000000        0.0000000000000000     
  0.50000000000000000       0.87500000000000000        0.0000000000000000     
  0.50000000000000000       0.93750000000000000        0.0000000000000000     
  0.41249999999999998       0.91249999999999998        0.0000000000000000     
  0.45624999999999999       0.91874999999999996        0.0000000000000000     
  0.46250000000000002       0.96250000000000002        0.0000000000000000     
  0.41875000000000001       0.95625000000000004        0.0000000000000000     
  0.31250000000000000       0.75000000000000000        0.0000000000000000     
  0.37500000000000000       0.75000000000000000        0.0000000000000000     
  0.37500000000000000       0.81250000000000000        0.0000000000000000     
  0.28749999999999998       0.78749999999999998        0.0000000000000000     
  0.33124999999999999       0.79374999999999996        0.0000000000000000     
  0.33750000000000002       0.83750000000000002        0.0000000000000000     
  0.29375000000000001       0.83125000000000004        0.0000000000000000     
  0.43750000000000000       0.75000000000000000        0.0000000000000000     
  0.50000000000000000       0.75000000000000000        0.0000000000000000     
  0.50000000000000000       0.81250000000000000        0.0000000000000000     
  0.41249999999999998       0.78749999999999998        0.0000000000000000     
  0.45624999999999999       0.79374999999999996        0.0000000000000000     
  0.46250000000000002       0.83750000000000002        0.0000000000000000     
  0.41875000000000001       0.83125000000000004        0.0000000000000000     
   6.2500000000000000E-002  0.62500000000000000        0.0000000000000000     
  0.12500000000000000       0.62500000000000000        0.0000000000000000     
  0.12500000000000000       0.68750000000000000        0.0000000000000000     
   3.7499999999999999E-002  0.66249999999999998        0.0000000000000000     
   8.1250000000000003E-002  0.66874999999999996        0.0000000000000000     
   8.7499999999999994E-002  0.71250000000000002        0.0000000000000000     
   4.3749999999999997E-002  0.70625000000000004        0.0000000000000000     
  0.18750000000000000       0.62500000000000000        0.0000000000000000     
  0.25000000000000000       0.62500000000000000        0.0000000000000000     
  0.25000000000000000       0.68750000000000000        0.0000000000000000     
  0.16250000000000001       0.66249999999999998        0.0000000000000000     
  0.20624999999999999       0.66874999999999996        0.0000000000000000     
  0.21249999999999999       0.71250000000000002        0.0000000000000000     
  0.16875000000000001       0.70625000000000004        0.0000000000000000     
   6.2500000000000000E-002  0.50000000000000000        0.0000000000000000     
  0.12500000000000000       0.50000000000000000        0.0000000000000000     
  0.12500000000000000       0.56250000000000000        0.0000000000000000     
   3.7499999999999999E-002  0.53749999999999998        0.0000000000000000     
   8.1250000000000003E-002  0.54374999999999996        0.0000000000000000     
   8.7499999999999994E-002  0.58750000000000002        0.0000000000000000     
   4.3749999999999997E-002  0.58125000000000004        0.0000000000000000     
  0.18750000000000000       0.50000000000000000        0.0000000000000000     
  0.25000000000000000       0.50000000000000000        0.0000000000000000     
  0.25000000000000000       0.56250000000000000        0.0000000000000000     
  0.16250000000000001       0.53749999999999998        0.0000000000000000     
  0.20624999999999999       0.54374999999999996        0.0000000000000000     
  0.21249999999999999       0.58750000000000002        0.0000000000000000     
  0.16875000000000001       0.58125000000000004        0.0000000000000000     
  0.31250000000000000       0.62500000000000000        0.0000000000000000     
  0.37500000000000000       0.62500000000000000        0.0000000000000000     
  0.37500000000000000       0.68750000000000000        0.0000000000000000     
  0.28749999999999998       0.66249999999999998        0.0000000000000000     
  0.33124999999999999       0.66874999999999996        0.0000000000000000     
  0.33750000000000002       0.71250000000000002        0.0000000000000000     
  0.29375000000000001       0.70625000000000004        0.0000000000000000     
  0.43750000000000000       0.62500000000000000        0.0000000000000000     
  0.50000000000000000       0.62500000000000000        0.0000000000000000     
  0.50000000000000000       0.68750000000000000        0.0000000000000000     
  0.41249999999999998       0.66249999999999998        0.0000000000000000     
  0.45624999999999999       0.66874999999999996        0.0000000000000000     
  0.46250000000000002       0.71250000000000002        0.0000000000000000     
  0.41875000000000001       0.70625000000000004        0.0000000000000000     
  0.31250000000000000       0.50000000000000000        0.0000000000000000     
  0.37500000000000000       0.50000000000000000        0.0000000000000000     
  0.37500000000000000       0.56250000000000000        0.0000000000000000     
  0.28749999999999998       0.53749999999999998        0.0000000000000000     
  0.33124999999999999       0.54374999999999996        0.0000000000000000     
  0.33750000000000002       0.58750000000000002        0.0000000000000000     
  0.29375000000000001       0.58125000000000004        0.0000000000000000     
  0.43750000000000000       0.50000000000000000        0.0000000000000000     
  0.50000000000000000       0.50000000000000000        0.0000000000000000     
  0.50000000000000000       0.56250000000000000        0.0000000000000000     
  0.41249999999999998       0.53749999999999998        0.0000000000000000     
  0.45624999999999999       0.54374999999999996        0.0000000000000000     
  0.46250000000000002       0.58750000000000002        0.0000000000000000     
  0.41875000000000001       0.58125000000000004        0.0000000000000000     
  0.56250000000000000       0.87500000000000000        0.0000000000000000     
  0.62500000000000000       0.87500000000000000        0.0000000000000000     
  0.62500000000000000       0.93750000000000000        0.0000000000000000     
  0.53749999999999998       0.91249999999999998        0.0000000000000000     
  0.58125000000000004       0.91874999999999996        0.0000000000000000     
  0.58750000000000002       0.96250000000000002        0.0000000000000000     
  0.54374999999999996       0.95625000000000004        0.0000000000000000     
  0.68750000000000000       0.87500000000000000        0.0000000000000000     
  0.75000000000000000       0.87500000000000000        0.0000000000000000     
  0.75000000000000000       0.93750000000000000        0.0000000000000000     
  0.66249999999999998       0.91249999999999998        0.0000000000000000     
  0.70625000000000004       0.91874999999999996        0.0000000000000000     
  0.71250000000000002       0.96250000000000002        0.0000000000000000     
[...]
 CELL_DATA         896
 SCALARS Cells_density float
 LOOKUP_TABLE default
    0.92322257983144762061E+00
    0.86104823163634680583E+00
    0.79308763649651725647E+00
    0.75497262733327341611E+00
    0.78347723844289984818E+00
    0.74344461962864027971E+00
    0.79617779161950930078E+00
    0.85666083548915872292E+00
    0.92531452695477767190E+00
    0.96295492337908727976E+00
    0.93404506855369850982E+00
    0.97585437560348964325E+00
    0.87112125967508236002E+00
    0.85000540385486722528E+00
    0.65582222822238500637E+00
    0.59077403195926248003E+00
    0.51562293388768642988E+00
    0.47854716013275150344E+00
    0.51318016160889112776E+00
    0.47391252545569095833E+00
    0.52875003287068478297E+00
    0.59208836809647247268E+00
    0.66521445588681860084E+00
    0.70462864333999941646E+00
    0.67262489274487102797E+00
    0.71335161088504495108E+00
    0.60496929397589793709E+00
    0.58387728290321272429E+00
    0.91902226936247000122E+00
    0.85452217227726345872E+00
    0.78056109214752256165E+00
    0.74106645684011485109E+00
    0.77309046548592674775E+00
    0.73338079049174165203E+00
    0.79290355790393085567E+00
    0.85164175148156773254E+00
    0.92473189076189332702E+00
    0.96289108464505301921E+00
    0.93128289368208005961E+00
    0.97586706987824844983E+00
    0.86599262192493642321E+00
    0.84581981832840269497E+00
    0.62270294922480262656E+00
    0.55086074141020324735E+00
    0.46106388006282783554E+00
    0.42512465334629517821E+00
    0.47465831807943176246E+00
    0.44065367615775530297E+00
    0.51078810059737944638E+00
    0.56978820248598271991E+00
    0.65549819360965788650E+00
    0.69308393528366285530E+00
    0.65268564587961064305E+00
    0.69322039946730651394E+00
    0.57460253988640952461E+00
    0.55609379037598516415E+00
    0.39995939650862027959E+00
    0.39996900599838758339E+00
    0.39779251391921544023E+00
    0.27896590791792602593E+00
    0.34861425296645570659E+00
    0.26382971042441749621E+00
    0.36275205358287487822E+00
    0.39996687748565129539E+00
    0.39998267022969963280E+00
    0.43122199184696513585E+00
    0.40089179579562578271E+00
    0.43491653045182437909E+00
    0.39997264979914443073E+00
    0.39997581876304899584E+00
    0.18621230426582915940E+00
    0.12724694837253558433E+00
    0.62629367500737581631E-01
    0.25621288022726732697E-01
    0.53378201402846173207E-01
    0.13353176821636230862E-01
    0.62661383380155838418E-01
    0.12291857888345199268E+00
    0.18613667336010700226E+00
    0.22336777295281953770E+00
    0.19615742629924329266E+00
    0.23607851585721228993E+00
    0.13547748251134028585E+00
    0.11394741565926302940E+00
    0.39995527164115118879E+00
    0.39996640795888205311E+00
    0.39996512623198793301E+00
    0.37891144179182822960E+00
    0.39995999255498193570E+00
    0.26846206028375152464E+00
    0.36279814484589389956E+00
    0.39996315415365463197E+00
    0.39996046055018885657E+00
    0.40102457833576904411E+00
    0.39996755266270350715E+00
    0.39996219077892225524E+00
    0.39997626996207086281E+00
    0.39997494913236059100E+00
    0.18648270408544245780E+00
    0.12725034759946093899E+00
    0.62629300644683777444E-01
    0.25621277743025031720E-01
    0.53378332104963191473E-01
    0.13353254665616182129E-01
    0.62702630718257629239E-01
    0.12292066893231874680E+00
    0.18617123243110275665E+00
    0.22364142501186984324E+00
    0.19634421328396234330E+00
    0.24469593347506257697E+00
    0.13547997563501634755E+00
    0.11394728913648211055E+00
    0.91423315745900324281E+00
    0.84143965932625963688E+00
    0.75943966752068969850E+00
    0.71290982816203674055E+00
    0.74858491313020414371E+00
    0.70664102844554310678E+00
    0.78002826240521982992E+00
    0.83958236012477249766E+00
    0.92214742131030391636E+00
    0.96166233479906515491E+00
    0.92716114746736455476E+00
    0.97462483212713557634E+00
    0.85546767146345670252E+00
    0.83620873989533817117E+00
    0.56572471123457235276E+00
    0.47528476422009596769E+00
    0.39990846296160287299E+00
    0.39996236947621000013E+00
    0.39994215515285436169E+00
    0.39995513848571478954E+00
    0.45044770300126640850E+00
    0.50762356772369576774E+00
    0.62170247927882749117E+00
    0.66204677621890517525E+00
    0.60532635526824507544E+00
    0.65198993848145236907E+00
    0.50679952579138320967E+00
    0.48988272577653257933E+00
    0.91331174353146715728E+00
    0.82944565814357884559E+00
    0.74585468394522236313E+00
    0.68745716683197466423E+00
    0.72107442508422092686E+00
    0.66804853560502308607E+00
    0.75854819333496970035E+00
    0.82419658477855062273E+00
    0.91784513076445040092E+00
    0.95964017817593527671E+00
    0.92334444381005043034E+00
    0.97304392080683810295E+00
    0.84494573177632037453E+00
    0.82508989790732878422E+00
    0.53328738948786635898E+00
    0.42129703922081312983E+00
    0.39993702068798303584E+00
    0.39994859324658149635E+00
    0.39995099590351856911E+00
    0.39996858948980734683E+00
    0.39992080526685747088E+00
    0.43068205783734392345E+00
    0.56581417127903510522E+00
    0.61793600280154692417E+00
    0.55276463367897155088E+00
    0.61701265880987854473E+00
    0.44165894121099608105E+00
    0.42007551513628549333E+00
    0.39997208401930905985E+00
    0.39992915214042662475E+00
    0.39999808827664584676E+00
    0.39998762435893314704E+00
    0.39997219228098473964E+00
    0.39997068727914036890E+00
    0.39994541387832976964E+00
    0.39995832501195022202E+00
    0.39995943721955623529E+00
    0.39996667228130550198E+00
    0.39995989266857817634E+00
    0.39995109996037114808E+00
    0.39997441767808200597E+00
    0.39996953120099043577E+00
    0.40883270187429415765E+00
    0.18606195919111748194E+00
    0.75080362780883647122E-01
    0.33096040396202265621E-01
    0.55745820230925641203E-01
    0.13405569772933388292E-01
    0.62703515085514471838E-01
    0.12298464530939902384E+00
    0.18994053391098314476E+00
    0.32883158273701745822E+00
    0.21466525372564315699E+00
    0.40153292982481891826E+00
    0.13896327313168393980E+00
    0.11429158184783066998E+00
    0.39993823208346124254E+00
    0.40116176418725180142E+00
    0.40759643899319153437E+00
    0.41433112756990780889E+00
    0.40742901298464895277E+00
    0.40849246204051670173E+00
    0.40114185732091917069E+00
    0.39995527388745288899E+00
    0.39996783191514795330E+00
    0.39994687172876153269E+00
    0.39993669623470889940E+00
    0.39998869986633422968E+00
    0.40002662688043683081E+00
    0.40100085605798507782E+00
    0.42743795798384920381E+00
    0.67630953756641332131E+00
    0.67192319632337160762E+00
    0.52029040986534880187E+00
    0.46162643618586574057E+00
    0.11838355923752266752E+00
    0.81321897602297299468E-01
    0.36764049199689485814E+00
    0.41245729484462062553E+00
    0.41247743515431994910E+00
    0.42012762073960674414E+00
    0.41902784542511678501E+00
    0.42332231495172056857E+00
    0.42248900002817296739E+00
    0.60477763031442992282E-04
   -0.46482178593496538345E-05
    0.11096670685947407809E-03
    0.11041231259673213580E-03
   -0.58105693570502693081E-05
    0.62410825373079107932E-04
   -0.14622336836622494636E-04
   -0.64213750577427789552E-05
   -0.20458330489739365131E-04
    0.15831896375092372234E-03
    0.30960999588541572851E-05
    0.32688587687594453449E-03
    0.35082027881771398522E-03
    0.34609431969929050233E-03
    0.61408985048804534115E-04
   -0.64332440693182880520E-05
    0.11117629889416432288E-03
    0.11100321628679871361E-03
   -0.68093167377344142115E-05
    0.62012484457556822821E-04
   -0.15243670897415268959E-04
   -0.72216827224857442111E-05
   -0.20729035236367935436E-04
    0.10952592180349131877E-03
   -0.38581115079218258337E-05
    0.61404675361802002129E-04
    0.35278280987542176908E-03
    0.35126979198133888218E-03
    0.60718992274046468846E-04
   -0.46334415259610403431E-05
    0.11090003801752921402E-03
    0.11045671656291164171E-03
   -0.57585637109168751361E-05
    0.62438625399743888041E-04
    0.61710351711317652876E-04
   -0.43983803492908684382E-05
    0.10876849858033436631E-03
    0.16130397038682927832E-03
    0.31786450984725607969E-05
    0.32694803453500433316E-03
    0.35038733917748754671E-03
    0.34611999861451869754E-03
    0.61531239795857274556E-04
   -0.64815653360631509175E-05
    0.11116303949801461994E-03
    0.11102848171589779725E-03
   -0.68112428172778673565E-05
    0.62026241010328778710E-04
    0.61794832855291837847E-04
   -0.62736248586550958349E-05
    0.11046278757043315926E-03
    0.11067875261423735654E-03
   -0.39716133252699284005E-05
    0.61463907642607141244E-04
    0.35263821528039323737E-03
    0.35137178763766923218E-03
    0.61703033419277086152E-04
   -0.70255677529286496893E-05
    0.11124527353489118559E-03
    0.11119522379300711076E-03
   -0.71452424590702704583E-05
    0.61873542606294634847E-04
   -0.15449672257810068555E-04
   -0.75078836693088532941E-05
   -0.20814675096805458274E-04
    0.11053996206178911361E-03
   -0.61888879304849663790E-05
    0.61698018990853612680E-04
    0.35344187319242544943E-03
    0.35298396680256478213E-03
    0.61800922340301029539E-04
   -0.72390126962458419501E-05
    0.11099818888256721713E-03
   -0.20848253900951330651E-04
   -0.76778060152511934475E-05
   -0.15555013659468432764E-04
   -0.15554785041060343448E-04
   -0.76094139000195448242E-05
   -0.20841891687385342714E-04
    0.11088367473526238851E-03
   -0.69950734550976392963E-05
    0.61795750606597182192E-04
    0.35365778289485057077E-03
    0.35359391595479841867E-03
    0.61737637068986860435E-04
   -0.70474396187850623209E-05
    0.11124421884169635895E-03
    0.11120376220287707955E-03
   -0.71499819447261112472E-05
    0.61889185939553647219E-04
    0.61821841609895533589E-04
   -0.69590116821166919333E-05
    0.11102281684591460700E-03
    0.11108727310829710159E-03
   -0.62538014913716972857E-05
    0.61720955458288034347E-04
    0.35341622236172582630E-03
    0.35303238175902860877E-03
    0.61808650344515180951E-04
   -0.72435938550136006310E-05
    0.11100195110336863273E-03
   -0.20848922780454175283E-04
   -0.76781520575980701307E-05
   -0.15536239093717092843E-04
    0.61805901591334801767E-04
   -0.71959793890535010295E-05
    0.11121037070814223041E-03
    0.11122145173974246686E-03
   -0.70130520499514109611E-05
    0.61801872566168109891E-04
    0.35365656497183812872E-03
    0.35360631262171585663E-03
    0.96989597210798625393E-02
    0.49517950888613741431E-02
    0.10079904477958414807E-02
    0.12718815755694847479E-03
   -0.52624571117536322884E-05
    0.62368006487782800943E-04
    0.61718427251627422749E-04
   -0.26900642273557875299E-05
    0.10879802115903524186E-03
    0.17836344926079958232E-03
    0.12694110435701279945E-02
    0.67350712762455269139E-02
    0.11897456640689047652E-02
    0.39749201710402473457E-03
    0.61678925413837616199E-04
   -0.66675661974933725547E-05
    0.11117132089215690501E-03
    0.11108192408095088127E-03
   -0.68777913471499575314E-05
    0.61997111270482597187E-04
    0.61799072812181532022E-04
   -0.61241876022390965217E-05
    0.11053087616771722305E-03
    0.11064280449451409914E-03
   -0.45821509419515523245E-05
    0.61688628954541547818E-04
    0.35258369358155065409E-03
    0.35176599147655513052E-03
    0.17276075823277323162E-01
    0.53718176563869448822E-02
    0.76504668737587292957E-03
    0.84385521266300777231E-03
    0.35594405621557525903E-02
    0.94481138316964612209E-03
    0.29400763313595797664E-02
    0.83705556025875371695E-02
    0.11827552589745837092E-01
    0.15890517528917368073E-01
    0.22735353731992081344E-01
    0.32572464812921214650E+00
    0.83834270380361460007E-02
    0.71187236121148227824E-02
    0.66014984786548133993E-04
   -0.68018153941760900797E-05
    0.11121200669477717055E-03
    0.11111884184041736535E-03
   -0.70133257306034213984E-05
    0.61949293012081760291E-04
    0.61804318119431357289E-04
   -0.64976083963737115898E-05
    0.11091711520108804415E-03
    0.14953496732835199032E-03
    0.64192172266415553606E-06
    0.29508395911025255649E-03
    0.35303001720814202900E-03
    0.35228328083990347172E-03
    0.61768158222717380545E-04
   -0.70962111405149241330E-05
    0.11124866608822856244E-03
    0.11121770415637749648E-03
   -0.71706821731680151649E-05
    0.61881530156568045767E-04
    0.61823504063394249205E-04
   -0.69502267199748112643E-05
    0.11105177643672833822E-03
    0.11109543018846608671E-03
   -0.64365691292054813598E-05
    0.61756869665442453029E-04
    0.35343270277860710550E-03
    0.35315066738118128893E-03
    0.61814421862652207409E-04
   -0.72523857911761803431E-05
    0.11100582126422524419E-03
   -0.20849100150527288925E-04
   -0.76782425859898429386E-05
   -0.15536826568895568647E-04
    0.61806710320764200739E-04
   -0.71957623617216347385E-05
    0.11121813909711149217E-03
    0.11122588464730864778E-03
   -0.70542750547099557917E-05
    0.61810007444430400069E-04
    0.35366494444046307159E-03
    0.35362968991280640738E-03
    0.61751574104876687786E-04
   -0.71393659689319378318E-05
    0.11125941551235157649E-03
    0.11122744488868262659E-03
   -0.72026143237312687938E-05
    0.61871417578542197064E-04
    0.61825430829801506709E-04
   -0.70370045832589065554E-05
    0.11110296585201606331E-03
    0.11114343745062062500E-03
   -0.66399481478878582456E-05
    0.61764386017450819549E-04
    0.35354329200059308406E-03
    0.35328322066267077873E-03
    0.61810320151418159020E-04
   -0.72589593047785724107E-05
    0.11100712355341529089E-03
   -0.20850181679941160335E-04
   -0.76776736306807650840E-05
   -0.15537484231850957222E-04
    0.61809441144257805476E-04
   -0.72154749514778469377E-05
    0.11122961194548269207E-03
    0.11123788534119820001E-03
   -0.70961820721271245092E-05
    0.61811940626450774831E-04
    0.35369142718161836539E-03
    0.35365406598358850587E-03
    0.91798670697095230420E+00
    0.83276701621793181030E+00
    0.75759628952207347385E+00
    0.69661670800150077287E+00
    0.72208564371673378268E+00
    0.65722631573131073957E+00
    0.74575234679524760040E+00
    0.82104044517595964336E+00
    0.91404495333153856773E+00
    0.95915397308602823312E+00
    0.92308072171855426458E+00
    0.97342946318986167675E+00
    0.84632286045741900171E+00
    0.82351215556585888322E+00
    0.56722746880886787402E+00
    0.44195391483937757071E+00
    0.39990534823582551960E+00
    0.39997260626360608970E+00
    0.39995569581040280038E+00
    0.39996992137935405420E+00
    0.39993375639918438136E+00
    0.41229250901971747911E+00
    0.53678096778903650055E+00
    0.60412071500528230494E+00
    0.55452128540660583500E+00
    0.63261334104284072666E+00
    0.44675873133603283271E+00
    0.41736192013709111359E+00
    0.92226233075814489926E+00
    0.84617366539242955259E+00
    0.77908106121445519499E+00
    0.72735490608099884202E+00
    0.75063624158633368566E+00
    0.68965349880610926636E+00
    0.75823672215168391730E+00
    0.83519000249957597859E+00
    0.91568528246723579489E+00
    0.96107505005905091711E+00
    0.92643665315150414141E+00
    0.97525304993646599883E+00
    0.85801320045887208288E+00
    0.83359597245823735534E+00
    0.62385342238035423890E+00
    0.51793995840067763581E+00
    0.44794849847582279834E+00
    0.39995490534356675782E+00
    0.39993759706927084485E+00
    0.39996339710857126137E+00
    0.39991918240941759510E+00
    0.46851076348887077394E+00
    0.57303589540507626765E+00
    0.63963194075733742494E+00
    0.60780853087648334387E+00
    0.67681375659343900875E+00
    0.51689300550078276508E+00
    0.48356560810420873286E+00
    0.39995609759869904520E+00
    0.39997307470210086144E+00
    0.40042940040226637777E+00
    0.40561930398862622305E+00
    0.40788941344459306304E+00
    0.41621959237613642690E+00
    0.40781433089996599328E+00
    0.40106183327105227043E+00
    0.39997458732021673455E+00
    0.39994391459757860918E+00
    0.39997708802025533359E+00
    0.39994413252045124541E+00
    0.40001069093231494955E+00
    0.40126230941659762896E+00
    0.41118963216983051012E+00
    0.22100723735692193173E+00
    0.79196077253974983545E-01
    0.10437666229918932115E+00
    0.49587934122141036353E+00
    0.44458770072426179176E+00
    0.66731892284492888567E+00
    0.70732611512866594428E+00
    0.43830781509423211162E+00
    0.42043787987765435243E+00
    0.41951505791258292266E+00
    0.41088564404669936092E+00
    0.42157560774650876256E+00
    0.42292912820637174054E+00
    0.39996486822701188268E+00
    0.39995231719359386480E+00
    0.39996647795229978151E+00
    0.39994759567617804707E+00
    0.39996442311535285175E+00
    0.39997639638356580205E+00
    0.39998621788288551970E+00
    0.39995296961060705643E+00
    0.39996109679470659426E+00
    0.39995529671587837228E+00
    0.39997449462833994938E+00
    0.39995413413183938944E+00
    0.39996018299143554220E+00
    0.39998339095854229530E+00
    0.19140111312451965619E+00
    0.12734090583443380407E+00
    0.62630327516740927352E-01
    0.25653812926530322747E-01
    0.55423293559825628773E-01
    0.20374468567898408600E-01
    0.75840169376034674564E-01
    0.15966356991409677568E+00
    0.40645752112778804621E+00
    0.40084400247658469318E+00
    0.21407230586276967954E+00
    0.39060548657915478143E+00
    0.13615964467970542717E+00
    0.11637344060715799909E+00
    0.92473504233353553960E+00
    0.85700043196558861602E+00
    0.79252365409785607842E+00
    0.74904353712955817901E+00
    0.77438242638639864790E+00
    0.72424803035887941327E+00
    0.77946089033720900030E+00
    0.84948532965706813336E+00
    0.92026558529269564257E+00
    0.96260230890231168743E+00
    0.93090368049102401038E+00
    0.97595395847750110452E+00
    0.86752504835487143087E+00
    0.84419730339165566235E+00
    0.65644566287308225849E+00
    0.57668595099403463511E+00
    0.50961115540178503203E+00
    0.45893660332880464869E+00
    0.47540777902372582941E+00
    0.41253501388614643997E+00
    0.45857428059460941805E+00
    0.54536762637127456088E+00
    0.62781703969788615893E+00
    0.68081941208016050204E+00
    0.65331311589307317078E+00
    0.70655123301395050817E+00
    0.58023422799070190070E+00
    0.55182899654571182513E+00
    0.92515261388762071171E+00
    0.86162715693965530317E+00
    0.79643453423042975814E+00
    0.75736909106273242465E+00
    0.78393605177823322272E+00
    0.74084505175722892290E+00
    0.79255408174178498815E+00
    0.85631118152494345441E+00
    0.92389694634387697914E+00
    0.96301235746632196655E+00
    0.93390484494835634965E+00
    0.97567846503274424652E+00
    0.87155501339549135142E+00
    0.84968514613253187662E+00
    0.66491640424079334615E+00
    0.59780269153526466308E+00
    0.52930986022054482554E+00
    0.48797183760520296270E+00
    0.51366897752724094417E+00
    0.46344366859041763451E+00
    0.51435273947573922904E+00
    0.58581469130376606635E+00
    0.65803979764571240985E+00
    0.70096494821188248814E+00
    0.67287348724566753422E+00
    0.71738133874200193940E+00
    0.60645212215908383957E+00
    0.58296173753670554873E+00
    0.39995799977175622297E+00
    0.39997012057403097396E+00
    0.38390842219480691977E+00
    0.28196447399995094862E+00
    0.39997016467929763506E+00
    0.37198300012303481266E+00
    0.39995283574469814303E+00
    0.39997423767233986069E+00
    0.39995892675426525376E+00
    0.39996071323647214291E+00
    0.39996775710494619771E+00
    0.41580547685677993197E+00
    0.39997497411732307881E+00
    0.39996555524131283121E+00
    0.18621752557471496492E+00
    0.12724706027514545714E+00
    0.62629389448736361157E-01
    0.25621278760218510473E-01
    0.53378248925808446934E-01
    0.13353299340863811900E-01
    0.62702745526061962056E-01
    0.12292497677395702871E+00
    0.18648967033261770743E+00
    0.23082647896333011173E+00
    0.19632474896776871964E+00
    0.23633678130837645903E+00