# vtk DataFile Version 3.0
LAPLACIEN  2D
ASCII
DATASET UNSTRUCTURED_GRID
 POINTS         481  float
   6.2500000000000000E-002  0.87500000000000000        0.0000000000000000     
  0.12500000000000000       0.87500000000000000        0.0000000000000000     
  0.12500000000000000       0.93750000000000000        0.0000000000000000     
   3.7499999999999999E-002  0.91249999999999998        0.0000000000000000     
   8.1250000000000003E-002  0.91874999999999996        0.0000000000000000     
   8.7499999999999994E-002  0.96250000000000002        0.0000000000000000     
   4.3749999999999997E-002  0.95625000000000004        0.0000000000000000     
  0.18750000000000000       0.87500000000000000        0.0000000000000000     
  0.25000000000000000       0.87500000000000000        0.0000000000000000     
  0.25000000000000000       0.93750000000000000        0.0000000000000000     
  0.16250000000000001       0.91249999999999998        0.0000000000000000     
  0.20624999999999999       0.91874999999999996        0.0000000000000000     
  0.21249999999999999       0.96250000000000002        0.0000000000000000     
  0.16875000000000001       0.95625000000000004        0.0000000000000000     
   6.2500000000000000E-002  0.75000000000000000        0.0000000000000000     
  0.12500000000000000       0.75000000000000000        0.0000000000000000     
  0.12500000000000000       0.81250000000000000        0.0000000000000000     
   3.7499999999999999E-002  0.78749999999999998        0.0000000000000000     
   8.1250000000000003E-002  0.79374999999999996        0.0000000000000000     
   8.7499999999999994E-002  0.83750000000000002        0.0000000000000000     
   4.3749999999999997E-002  0.83125000000000004        0.0000000000000000     
  0.18750000000000000       0.75000000000000000        0.0000000000000000     
  0.25000000000000000       0.75000000000000000        0.0000000000000000     
  0.25000000000000000       0.81250000000000000        0.0000000000000000     
  0.16250000000000001       0.78749999999999998        0.0000000000000000     
  0.20624999999999999       0.79374999999999996        0.0000000000000000     
  0.21249999999999999       0.83750000000000002        0.0000000000000000     
  0.16875000000000001       0.83125000000000004        0.0000000000000000     
  0.31250000000000000       0.87500000000000000        0.0000000000000000     
  0.37500000000000000       0.87500000000000000        0.0000000000000000     
  0.37500000000000000       0.93750000000000000        0.0000000000000000     
  0.28749999999999998       0.91249999999999998        0.0000000000000000     
  0.33124999999999999       0.91874999999999996        0.0000000000000000     
  0.33750000000000002       0.96250000000000002        0.0000000000000000     
  0.29375000000000001       0.95625000000000004        0.0000000000000000     
  0.43750000000000000       0.87500000000000000        0.0000000000000000     
  0.50000000000000000       0.87500000000000000        0.0000000000000000     
  0.50000000000000000       0.93750000000000000        0.0000000000000000     
  0.41249999999999998       0.91249999999999998        0.0000000000000000     
  0.45624999999999999       0.91874999999999996        0.0000000000000000     
  0.46250000000000002       0.96250000000000002        0.0000000000000000     
  0.41875000000000001       0.95625000000000004        0.0000000000000000     
  0.31250000000000000       0.75000000000000000        0.0000000000000000     
  0.37500000000000000       0.75000000000000000        0.0000000000000000     
  0.37500000000000000       0.81250000000000000        0.0000000000000000     
  0.28749999999999998       0.78749999999999998        0.0000000000000000     
  0.33124999999999999       0.79374999999999996        0.0000000000000000     
  0.33750000000000002       0.83750000000000002        0.0000000000000000     
  0.29375000000000001       0.83125000000000004        0.0000000000000000     
  0.43750000000000000       0.75000000000000000        0.0000000000000000     
  0.50000000000000000       0.75000000000000000        0.0000000000000000     
  0.50000000000000000       0.81250000000000000        0.0000000000000000     
  0.41249999999999998       0.78749999999999998        0.0000000000000000     
  0.45624999999999999       0.79374999999999996        0.0000000000000000     
  0.46250000000000002       0.83750000000000002        0.0000000000000000     
  0.41875000000000001       0.83125000000000004        0.0000000000000000     
   6.2500000000000000E-002  0.62500000000000000        0.0000000000000000     
  0.12500000000000000       0.62500000000000000        0.0000000000000000     
  0.12500000000000000       0.68750000000000000        0.0000000000000000     
   3.7499999999999999E-002  0.66249999999999998        0.0000000000000000     
   8.1250000000000003E-002  0.66874999999999996        0.0000000000000000     
   8.7499999999999994E-002  0.71250000000000002        0.0000000000000000     
   4.3749999999999997E-002  0.70625000000000004        0.0000000000000000     
  0.18750000000000000       0.62500000000000000        0.0000000000000000     
  0.25000000000000000       0.62500000000000000        0.0000000000000000     
  0.25000000000000000       0.68750000000000000        0.0000000000000000     
  0.16250000000000001       0.66249999999999998        0.0000000000000000     
  0.20624999999999999       0.66874999999999996        0.0000000000000000     
  0.21249999999999999       0.71250000000000002        0.0000000000000000     
  0.16875000000000001       0.70625000000000004        0.0000000000000000     
   6.2500000000000000E-002  0.50000000000000000        0.0000000000000000     
  0.12500000000000000       0.50000000000000000        0.0000000000000000     
  0.12500000000000000       0.56250000000000000        0.0000000000000000     
   3.7499999999999999E-002  0.53749999999999998        0.0000000000000000     
   8.1250000000000003E-002  0.54374999999999996        0.0000000000000000     
   8.7499999999999994E-002  0.58750000000000002        0.0000000000000000     
   4.3749999999999997E-002  0.58125000000000004        0.0000000000000000     
  0.18750000000000000       0.50000000000000000        0.0000000000000000     
  0.25000000000000000       0.50000000000000000        0.0000000000000000     
  0.25000000000000000       0.56250000000000000        0.0000000000000000     
  0.16250000000000001       0.53749999999999998        0.0000000000000000     
  0.20624999999999999       0.54374999999999996        0.0000000000000000     
  0.21249999999999999       0.58750000000000002        0.0000000000000000     
  0.16875000000000001       0.58125000000000004        0.0000000000000000     
  0.31250000000000000       0.62500000000000000        0.0000000000000000     
  0.37500000000000000       0.62500000000000000        0.0000000000000000     
  0.37500000000000000       0.68750000000000000        0.0000000000000000     
  0.28749999999999998       0.66249999999999998        0.0000000000000000     
  0.33124999999999999       0.66874999999999996        0.0000000000000000     
  0.33750000000000002       0.71250000000000002        0.0000000000000000     
  0.29375000000000001       0.70625000000000004        0.0000000000000000     
  0.43750000000000000       0.62500000000000000        0.0000000000000000     
  0.50000000000000000       0.62500000000000000        0.0000000000000000     
  0.50000000000000000       0.68750000000000000        0.0000000000000000     
  0.41249999999999998       0.66249999999999998        0.0000000000000000     
  0.45624999999999999       0.66874999999999996        0.0000000000000000     
  0.46250000000000002       0.71250000000000002        0.0000000000000000     
  0.41875000000000001       0.70625000000000004        0.0000000000000000     
  0.31250000000000000       0.50000000000000000        0.0000000000000000     
  0.37500000000000000       0.50000000000000000        0.0000000000000000     
  0.37500000000000000       0.56250000000000000        0.0000000000000000     
  0.28749999999999998       0.53749999999999998        0.0000000000000000     
  0.33124999999999999       0.54374999999999996        0.0000000000000000     
  0.33750000000000002       0.58750000000000002        0.0000000000000000     
  0.29375000000000001       0.58125000000000004        0.0000000000000000     
  0.43750000000000000       0.50000000000000000        0.0000000000000000     
  0.50000000000000000       0.50000000000000000        0.0000000000000000     
  0.50000000000000000       0.56250000000000000        0.0000000000000000     
  0.41249999999999998       0.53749999999999998        0.0000000000000000     
  0.45624999999999999       0.54374999999999996        0.0000000000000000     
  0.46250000000000002       0.58750000000000002        0.0000000000000000     
  0.41875000000000001       0.58125000000000004        0.0000000000000000     
  0.56250000000000000       0.87500000000000000        0.0000000000000000     
  0.62500000000000000       0.87500000000000000        0.0000000000000000     
  0.62500000000000000       0.93750000000000000        0.0000000000000000     
  0.53749999999999998       0.91249999999999998        0.0000000000000000     
  0.58125000000000004       0.91874999999999996        0.0000000000000000     
  0.58750000000000002       0.96250000000000002        0.0000000000000000     
  0.54374999999999996       0.95625000000000004        0.0000000000000000     
  0.68750000000000000       0.87500000000000000        0.0000000000000000     
  0.75000000000000000       0.87500000000000000        0.0000000000000000     
  0.75000000000000000       0.93750000000000000        0.0000000000000000     
  0.66249999999999998       0.91249999999999998        0.0000000000000000     
  0.70625000000000004       0.91874999999999996        0.0000000000000000     
  0.71250000000000002       0.96250000000000002        0.0000000000000000     
[...]
 CELL_DATA         896
 SCALARS Endothelial_cells float
 LOOKUP_TABLE default
    0.92289738830145717774E+00
    0.86043319277464613837E+00
    0.79257397734119205968E+00
    0.75425304648358382220E+00
    0.78290234371632627663E+00
    0.74288122586835958483E+00
    0.79560378180905511059E+00
    0.85612601649769137779E+00
    0.92499016873977513153E+00
    0.96252211599027270861E+00
    0.93359866237880551054E+00
    0.97541402453602810141E+00
    0.87083641898401609183E+00
    0.84961297222399367879E+00
    0.65462288033286997191E+00
    0.58914173042632089761E+00
    0.51334494171036526566E+00
    0.47616633036025640680E+00
    0.51162581258336492507E+00
    0.46916171537192163932E+00
    0.52740572121398732186E+00
    0.59107310286928416154E+00
    0.66436556587317774358E+00
    0.70402858200470741501E+00
    0.67164077375018182980E+00
    0.71251361626503328939E+00
    0.60404497463089201759E+00
    0.58271790253049260411E+00
    0.91855268955616442561E+00
    0.85349961822594322403E+00
    0.77930605841937639067E+00
    0.73929303480083297107E+00
    0.77196619722865222890E+00
    0.73228561212130660607E+00
    0.79213031647772669253E+00
    0.85098553455752601327E+00
    0.92436361717774617741E+00
    0.96241683476589046098E+00
    0.93074879862179660250E+00
    0.97536390977584030981E+00
    0.86552143566265349328E+00
    0.84508771443145080937E+00
    0.61878506100956820468E+00
    0.54581592788336930067E+00
    0.45372047901427664529E+00
    0.41646239595410966539E+00
    0.46980394943777864514E+00
    0.43477619123410754520E+00
    0.50784710410816669146E+00
    0.56730754250376591585E+00
    0.65387949201433348545E+00
    0.69165155970618530379E+00
    0.65016008198002583907E+00
    0.69089172718394276096E+00
    0.57140054827358277567E+00
    0.55237452192995595279E+00
    0.40000025501018782181E+00
    0.40000043543563906789E+00
    0.39999747717108469214E+00
    0.28236192706334700686E+00
    0.35353411870417428275E+00
    0.26567942798072974320E+00
    0.36618978446633526636E+00
    0.39999827604448384699E+00
    0.40000041905444416734E+00
    0.42818280709276340668E+00
    0.40000050542010873178E+00
    0.43135577539511099632E+00
    0.39999929133360628830E+00
    0.40000054191512141033E+00
    0.18640239132701619251E+00
    0.12762041871831694695E+00
    0.62761932763998745655E-01
    0.25754376776987584347E-01
    0.53717565768854676211E-01
    0.13558283594845458447E-01
    0.62901957909099623367E-01
    0.12328967993690900795E+00
    0.18631525211853169899E+00
    0.22365081193610369947E+00
    0.19641547620125068829E+00
    0.23657094441167958454E+00
    0.13553721552564954034E+00
    0.11401503796908638022E+00
    0.39999684305442989585E+00
    0.39999218742149389438E+00
    0.40000516758886500712E+00
    0.38214652394873305230E+00
    0.40000597007508487124E+00
    0.27082328073357231357E+00
    0.36786003238632486445E+00
    0.40000108451618293648E+00
    0.39999969925440753693E+00
    0.40000064780952016008E+00
    0.39999990789634720656E+00
    0.40000181126162209777E+00
    0.40000079560699680625E+00
    0.39999510365057722172E+00
    0.18698432842051126990E+00
    0.12762993801434990848E+00
    0.62761995926665606338E-01
    0.25754377101012960322E-01
    0.53717567464023896484E-01
    0.13558227905016409856E-01
    0.62897837231265366076E-01
    0.12329000624638296324E+00
    0.18633348787427608806E+00
    0.22407207058282158085E+00
    0.19679083223849250239E+00
    0.24900491092455678821E+00
    0.13554434065748760530E+00
    0.11401522952830571433E+00
    0.91340230170844383117E+00
    0.83945832338541737094E+00
    0.75627438548820402620E+00
    0.70827048298620642885E+00
    0.74568614135099287044E+00
    0.70347077023630144588E+00
    0.77817573727146371887E+00
    0.83834186831477019997E+00
    0.92156067619529069557E+00
    0.96109703143935509839E+00
    0.92633806424023579229E+00
    0.97401995259686224848E+00
    0.85439974846253441410E+00
    0.83452285740050580198E+00
    0.55546973310581138072E+00
    0.46342913958274140063E+00
    0.39999920122877191675E+00
    0.40000530325808425491E+00
    0.40000092045299917576E+00
    0.39999677961916985103E+00
    0.44215703170055231652E+00
    0.49982587096704644836E+00
    0.61667128731051490398E+00
    0.65770604026209189552E+00
    0.59801412611070337011E+00
    0.64562292322390002486E+00
    0.49699040612352729518E+00
    0.47898964740999272482E+00
    0.91217608566939367698E+00
    0.82657905500133255217E+00
    0.74099505367134765876E+00
    0.67981630093190659192E+00
    0.71546327343906535035E+00
    0.66097151871097414855E+00
    0.75456599925077483260E+00
    0.82176042287650097329E+00
    0.91688546643611401610E+00
    0.95893762329631604402E+00
    0.92213475097808061953E+00
    0.97236531893193856035E+00
    0.84304003371742397555E+00
    0.82211153875615250453E+00
    0.51870994999726116603E+00
    0.40546783542204928308E+00
    0.40000355785203312031E+00
    0.39999291703209088888E+00
    0.39999196851050872192E+00
    0.40000020661861956928E+00
    0.40000147161337157309E+00
    0.41680424220883111053E+00
    0.55427293292104562461E+00
    0.60835066750794730694E+00
    0.53958376713474331954E+00
    0.60662544437854981627E+00
    0.42537111716911596426E+00
    0.40223502495300583748E+00
    0.40001386695781970815E+00
    0.39995812600097963019E+00
    0.40003868642736606365E+00
    0.40000819251001024091E+00
    0.39999873696323035022E+00
    0.39997156139483602821E+00
    0.40000911070485184462E+00
    0.39999918171788545473E+00
    0.40000071853128571497E+00
    0.40000621747467401956E+00
    0.39999327028119091576E+00
    0.39998726522449079557E+00
    0.40000555787494884719E+00
    0.39999827264819826089E+00
    0.40003233163503421066E+00
    0.18638414887240106754E+00
    0.63841240937099905106E-01
    0.25756199083535661482E-01
    0.53719307720270399742E-01
    0.13557858284711440944E-01
    0.62898894346691075485E-01
    0.12343475013965254927E+00
    0.19255605765798347595E+00
    0.34255025424486745811E+00
    0.21969728378035863203E+00
    0.39991614382206169820E+00
    0.13810107934823787068E+00
    0.11412007603048782145E+00
    0.39996783855386514039E+00
    0.39999856947033585186E+00
    0.39996970801299330800E+00
    0.39996163326717432129E+00
    0.40004480100852418678E+00
    0.40003282027293612932E+00
    0.39993275525485388888E+00
    0.40002282403572220204E+00
    0.39998914805555735308E+00
    0.40000786489271800139E+00
    0.39998251877070356564E+00
    0.40002701097703058375E+00
    0.40002189314748409776E+00
    0.39994918094638337580E+00
    0.44107754501460294527E+00
    0.72277860396753090821E+00
    0.67271017242103270384E+00
    0.53467612303910827531E+00
    0.46937522298816319877E+00
    0.12363335289616161905E+00
    0.69807683479682289263E-01
    0.39749341397549969868E+00
    0.39993834491531626840E+00
    0.39992675243427178167E+00
    0.40000106913688859844E+00
    0.40002998049481086618E+00
    0.40005343841411317163E+00
    0.40000788625956074096E+00
    0.23247196788254738121E-04
    0.23267366683575318060E-04
    0.23226683836559024936E-04
    0.23226683704398618863E-04
    0.23267366510881674956E-04
    0.23237536920573751277E-04
    0.23305022252684546083E-04
    0.23267367084113698734E-04
    0.23295004257999826080E-04
    0.89581710496912153509E-04
    0.23279744863973620187E-04
    0.36088476518138522297E-03
    0.23194601730440294452E-04
    0.23194601170044638249E-04
    0.23237536492435333953E-04
    0.23267366499941576980E-04
    0.23226683816240771292E-04
    0.23226683715304191776E-04
    0.23267366452308597876E-04
    0.23237536915921361828E-04
    0.23305022320630567885E-04
    0.23267367020091414759E-04
    0.23294271005276377174E-04
    0.23226684015217487607E-04
    0.23267366506556995777E-04
    0.23237536489943000492E-04
    0.23194601847778172825E-04
    0.23194601627884838462E-04
    0.23247196805299798959E-04
    0.23267366663952034620E-04
    0.23226683833559091735E-04
    0.23226683681955345901E-04
    0.23267366482400530917E-04
    0.23237536585455628247E-04
    0.23237536391701202088E-04
    0.23267366688978436198E-04
    0.23227416543922733267E-04
    0.89581418545961433945E-04
    0.23279744833336092895E-04
    0.36088476733409693411E-03
    0.23194601638168170808E-04
    0.23194601137808393867E-04
    0.23237536535460630007E-04
    0.23267366515202549262E-04
    0.23226683794354510584E-04
    0.23226683674123716541E-04
    0.23267366436442359567E-04
    0.23237536491528280251E-04
    0.23237536459998979732E-04
    0.23267366531672224007E-04
    0.23226683864127240252E-04
    0.23226683665880012427E-04
    0.23267366639603394925E-04
    0.23237536509682530733E-04
    0.23194601851448881581E-04
    0.23194601618405858768E-04
    0.23237536543672014731E-04
    0.23267366428731391743E-04
    0.23226683756023247507E-04
    0.23226683685392883428E-04
    0.23267366461847601713E-04
    0.23237536797451891483E-04
    0.23305022160740125934E-04
    0.23267367054812071150E-04
    0.23294270948993331594E-04
    0.23226684005840995511E-04
    0.23267366533404660494E-04
    0.23237536489389013839E-04
    0.23194601860594997656E-04
    0.23194601821061804992E-04
    0.23237536535233066135E-04
    0.23267366551748798822E-04
    0.23226684065956407780E-04
    0.23294271473489234440E-04
    0.23267366906725992160E-04
    0.23305022554748024887E-04
    0.23305022401328731694E-04
    0.23267367081801613885E-04
    0.23294271006467363096E-04
    0.23226684048266768421E-04
    0.23267366494316227889E-04
    0.23237536487157261594E-04
    0.23194601845034321401E-04
    0.23194601796768307141E-04
    0.23237536541481411346E-04
    0.23267366387193394065E-04
    0.23226683766266081513E-04
    0.23226683694468749979E-04
    0.23267366475715923081E-04
    0.23237536444253165791E-04
    0.23237536467422810162E-04
    0.23267366500661961561E-04
    0.23226683939059129016E-04
    0.23226683687209298150E-04
    0.23267366493653197603E-04
    0.23237536504752693948E-04
    0.23194601910409472846E-04
    0.23194601817611229934E-04
    0.23237536559368846451E-04
    0.23267366497958066375E-04
    0.23226684099345684231E-04
    0.23294271467482622267E-04
    0.23267366924086620205E-04
    0.23305022292865315765E-04
    0.23237536721652986570E-04
    0.23267366463200364152E-04
    0.23226683915438375226E-04
    0.23226683632720651211E-04
    0.23267366475370896068E-04
    0.23237536528412194414E-04
    0.23194601884096875455E-04
    0.23194601886790257268E-04
    0.23248139124974400723E-04
    0.23267651282367814847E-04
    0.23226741025618468685E-04
    0.23226685026734726120E-04
    0.23267366637038250512E-04
    0.23237536613150854459E-04
    0.23237536424825130222E-04
    0.23267366810666164181E-04
    0.23227416456278509655E-04
    0.89578625439186825301E-04
    0.23279660488654798706E-04
    0.35929193023379046856E-03
    0.23194666749744640653E-04
    0.23194605901775643256E-04
    0.23237536579286439958E-04
    0.23267366529651183066E-04
    0.23226683802344470732E-04
    0.23226683649393806987E-04
    0.23267366379477415195E-04
    0.23237536469284724106E-04
    0.23237536469911331975E-04
    0.23267366540819871517E-04
    0.23226683875479257126E-04
    0.23226683692210089191E-04
    0.23267366602862971531E-04
    0.23237536424084603197E-04
    0.23194601728029611579E-04
    0.23194601698825934884E-04
    0.10722047681819387582E-01
    0.30549591821824560733E-04
    0.23226975249390865075E-04
    0.23226792915961497524E-04
    0.23267702771270962458E-04
    0.23237605514888786979E-04
    0.23237754529750089395E-04
    0.23268117756761212071E-04
    0.23362095777529110716E-04
    0.18042516594886258072E-02
    0.13038740439490211637E-01
    0.34160090885897309576E+00
    0.33412153880166975211E-04
    0.23195685890997885239E-04
    0.23237536893586471814E-04
    0.23267366446727436800E-04
    0.23226683771731463350E-04
    0.23226683721803848275E-04
    0.23267366375228643721E-04
    0.23237536452965800896E-04
    0.23237536445688703677E-04
    0.23267366513189301024E-04
    0.23226683956930548421E-04
    0.23226686446993744206E-04
    0.23267366760547278902E-04
    0.23237562832245400624E-04
    0.23194601824471492075E-04
    0.23194601636206622073E-04
    0.23237536544881767515E-04
    0.23267366408907517349E-04
    0.23226683782179353868E-04
    0.23226683676016777580E-04
    0.23267366516722495676E-04
    0.23237536462983778148E-04
    0.23237536464980966641E-04
    0.23267366481761949390E-04
    0.23226683943399945866E-04
    0.23226683700837275613E-04
    0.23267366468267440603E-04
    0.23237536565668867448E-04
    0.23194601875942008157E-04
    0.23194601787395162520E-04
    0.23237536559419712473E-04
    0.23267366527133055758E-04
    0.23226684064675937909E-04
    0.23294271458541616915E-04
    0.23267366945976391017E-04
    0.23305022327477955125E-04
    0.23237536725051177722E-04
    0.23267366456092663358E-04
    0.23226683880667086594E-04
    0.23226683651660372286E-04
    0.23267366431921311046E-04
    0.23237536508058080783E-04
    0.23194601859641014941E-04
    0.23194601856766930507E-04
    0.23237536534853920635E-04
    0.23267366444605236408E-04
    0.23226683773826223262E-04
    0.23226683736359296322E-04
    0.23267366442787212324E-04
    0.23237536440792551698E-04
    0.23237536436515241991E-04
    0.23267366454295835426E-04
    0.23226684007587197978E-04
    0.23226683771998238071E-04
    0.23267366528204538883E-04
    0.23237536539446001339E-04
    0.23194601787631515205E-04
    0.23194601825450665550E-04
    0.23237536556711253473E-04
    0.23267366541938673292E-04
    0.23226684072645633640E-04
    0.23294271488250741886E-04
    0.23267366927134536128E-04
    0.23305022310865396086E-04
    0.23237536728394138938E-04
    0.23267366463286273621E-04
    0.23226683899587356405E-04
    0.23226683672982502275E-04
    0.23267366454879237839E-04
    0.23237536498004067361E-04
    0.23194601886640112208E-04
    0.23194601843218323419E-04
    0.91703273579087962730E+00
    0.83045159383775091211E+00
    0.75382102677480078423E+00
    0.69031697053284035714E+00
    0.71646443566516915258E+00
    0.64887414913920427040E+00
    0.74065208181647979035E+00
    0.81807361732179562086E+00
    0.91293794087119328751E+00
    0.95838898691109752903E+00
    0.92190262588116855813E+00
    0.97280387123799805238E+00
    0.84440372093914384255E+00
    0.82053190788712937476E+00
    0.55631659817129663903E+00
    0.42810416088998959339E+00
    0.39999440159074745038E+00
    0.40000944718197167793E+00
    0.39999856538871031431E+00
    0.40000987904029550180E+00
    0.39999198510510919347E+00
    0.40000444872386481387E+00
    0.52222088434047542194E+00
    0.59282173363204881955E+00
    0.54166247840750947340E+00
    0.62407703593853425250E+00
    0.43082457260002515742E+00
    0.40000027862372494747E+00
    0.92167327342219729225E+00
    0.84498216324400188260E+00
    0.77734812224173366335E+00
    0.72455868204139317612E+00
    0.74767279523728713553E+00
    0.68477347290703072247E+00
    0.75489390494382446750E+00
    0.83320917095123425700E+00
    0.91491475200959171410E+00
    0.96041252213160055451E+00
    0.92566677146012177335E+00
    0.97473039447611886654E+00
    0.85689449629967584521E+00
    0.83201864749172527169E+00
    0.61924465016693042152E+00
    0.51046736622442079323E+00
    0.43955110766996435823E+00
    0.40000211310841798928E+00
    0.39999609537298502770E+00
    0.40000395730717874798E+00
    0.40000206135936045015E+00
    0.45712023404438417717E+00
    0.56336541043159749087E+00
    0.63287013261251356955E+00
    0.60103562877221905492E+00
    0.67302460328626567687E+00
    0.50789993136849576061E+00
    0.47266014926940363994E+00
    0.39999010809207863337E+00
    0.40002516647162372765E+00
    0.39995461829327844105E+00
    0.40004454166865061060E+00
    0.39992311858217122200E+00
    0.39996486465551750467E+00
    0.40001423373903144398E+00
    0.39993847255878423042E+00
    0.40000532409956141011E+00
    0.39999826398541016292E+00
    0.40002238957092617344E+00
    0.39997533472892909945E+00
    0.39995746855488573113E+00
    0.40002776996819028321E+00
    0.40002017445258858386E+00
    0.24590699470889040845E+00
    0.64989855056206413675E-01
    0.10837887825533402963E+00
    0.50149190724766412597E+00
    0.46501831620609668239E+00
    0.66543999916542828643E+00
    0.73327877468489033319E+00
    0.46158731292784033196E+00
    0.40002922169736704339E+00
    0.40001853508692625239E+00
    0.39990623828472465773E+00
    0.39995504613481142053E+00
    0.40005905987593459727E+00
    0.40000363828370277819E+00
    0.39999015480313948601E+00
    0.39999129042652792343E+00
    0.40000585059531945653E+00
    0.39997554911333571548E+00
    0.40001421627827454808E+00
    0.40000806007607325743E+00
    0.39996881763878500138E+00
    0.40000948782636180923E+00
    0.39999500920789443636E+00
    0.40000484619130260988E+00
    0.39999749880113105727E+00
    0.39999860641593076860E+00
    0.40000055098593867431E+00
    0.19430305082864535171E+00
    0.12781913982116768769E+00
    0.62763420700321523316E-01
    0.25754205515220916778E-01
    0.53724331261650659641E-01
    0.13551748239454394426E-01
    0.63403040041846867036E-01
    0.16575547640113372228E+00
    0.39992019389613103764E+00
    0.40001880172177700645E+00
    0.22715158766976883964E+00
    0.39997254839827384165E+00
    0.13635389810930112486E+00
    0.11478869762217103201E+00
    0.92434898355499850453E+00
    0.85634936850380027895E+00
    0.79181323990819951764E+00
    0.74805200618892575548E+00
    0.77320283253337918072E+00
    0.72244084817018283662E+00
    0.77810588411727921176E+00
    0.84847002995401721304E+00
    0.91983800496115220025E+00
    0.96207373964841613745E+00
    0.93039258818679526630E+00
    0.97550232427106819966E+00
    0.86698159215864900595E+00
    0.84357581262308301007E+00
    0.65493812506096482640E+00
    0.57426395715864142488E+00
    0.50671852743854395307E+00
    0.45502319611822261702E+00
    0.47063074663640808160E+00
    0.40531913433073701869E+00
    0.45113268501201841953E+00
    0.54049587563108913990E+00
    0.62422503739904677822E+00
    0.67834092547227309300E+00
    0.65100170538605184323E+00
    0.70526361522474800836E+00
    0.57728793530305655413E+00
    0.54801709921308716655E+00
    0.92479570235771646480E+00
    0.86108192112213099989E+00
    0.79591621422988168000E+00
    0.75679771779015536648E+00
    0.78334382929210488733E+00
    0.74010965435067876950E+00
    0.79197746675516378367E+00
    0.85570275266784479040E+00
    0.92360076575919636266E+00
    0.96255414238391534543E+00
    0.93346639551125742962E+00
    0.97525964538393172809E+00
    0.87122648894478094128E+00
    0.84934923807249540495E+00
    0.66397666219669482235E+00
    0.59664405669866382720E+00
    0.52777443999531958863E+00
    0.48621117237366479058E+00
    0.51199184745748860248E+00
    0.45853303653988425337E+00
    0.51195732977847085987E+00
    0.58425669615254438582E+00
    0.65692343873218839168E+00
    0.70008338611705356325E+00
    0.67191612342308482120E+00
    0.71676277103542485047E+00
    0.60551244550160987501E+00
    0.58178573591210591687E+00
    0.39999869007672461674E+00
    0.40000195765903995282E+00
    0.38913558162142752872E+00
    0.28502670013635778012E+00
    0.39999469417916405645E+00
    0.37740819163212624421E+00
    0.40000539120365408152E+00
    0.39999580558522873641E+00
    0.39999943997626341563E+00
    0.40000095920968664620E+00
    0.40000118320406868877E+00
    0.41116919185827011107E+00
    0.39999616790250441811E+00
    0.40000336130671571011E+00
    0.18641218458944872061E+00
    0.12762067647594987907E+00
    0.62761934349943065969E-01
    0.25754376778235190532E-01
    0.53717568228930603902E-01
    0.13558228231804071023E-01
    0.62897931555837033324E-01
    0.12330232287303272143E+00
    0.18699468563941656907E+00
    0.23460927045082688447E+00
    0.19675589015549946326E+00
    0.23693409141912841198E+00