# vtk DataFile Version 3.0
LAPLACIEN  2D
ASCII
DATASET UNSTRUCTURED_GRID
 POINTS         481  float
   6.2500000000000000E-002  0.87500000000000000        0.0000000000000000     
  0.12500000000000000       0.87500000000000000        0.0000000000000000     
  0.12500000000000000       0.93750000000000000        0.0000000000000000     
   3.7499999999999999E-002  0.91249999999999998        0.0000000000000000     
   8.1250000000000003E-002  0.91874999999999996        0.0000000000000000     
   8.7499999999999994E-002  0.96250000000000002        0.0000000000000000     
   4.3749999999999997E-002  0.95625000000000004        0.0000000000000000     
  0.18750000000000000       0.87500000000000000        0.0000000000000000     
  0.25000000000000000       0.87500000000000000        0.0000000000000000     
  0.25000000000000000       0.93750000000000000        0.0000000000000000     
  0.16250000000000001       0.91249999999999998        0.0000000000000000     
  0.20624999999999999       0.91874999999999996        0.0000000000000000     
  0.21249999999999999       0.96250000000000002        0.0000000000000000     
  0.16875000000000001       0.95625000000000004        0.0000000000000000     
   6.2500000000000000E-002  0.75000000000000000        0.0000000000000000     
  0.12500000000000000       0.75000000000000000        0.0000000000000000     
  0.12500000000000000       0.81250000000000000        0.0000000000000000     
   3.7499999999999999E-002  0.78749999999999998        0.0000000000000000     
   8.1250000000000003E-002  0.79374999999999996        0.0000000000000000     
   8.7499999999999994E-002  0.83750000000000002        0.0000000000000000     
   4.3749999999999997E-002  0.83125000000000004        0.0000000000000000     
  0.18750000000000000       0.75000000000000000        0.0000000000000000     
  0.25000000000000000       0.75000000000000000        0.0000000000000000     
  0.25000000000000000       0.81250000000000000        0.0000000000000000     
  0.16250000000000001       0.78749999999999998        0.0000000000000000     
  0.20624999999999999       0.79374999999999996        0.0000000000000000     
  0.21249999999999999       0.83750000000000002        0.0000000000000000     
  0.16875000000000001       0.83125000000000004        0.0000000000000000     
  0.31250000000000000       0.87500000000000000        0.0000000000000000     
  0.37500000000000000       0.87500000000000000        0.0000000000000000     
  0.37500000000000000       0.93750000000000000        0.0000000000000000     
  0.28749999999999998       0.91249999999999998        0.0000000000000000     
  0.33124999999999999       0.91874999999999996        0.0000000000000000     
  0.33750000000000002       0.96250000000000002        0.0000000000000000     
  0.29375000000000001       0.95625000000000004        0.0000000000000000     
  0.43750000000000000       0.87500000000000000        0.0000000000000000     
  0.50000000000000000       0.87500000000000000        0.0000000000000000     
  0.50000000000000000       0.93750000000000000        0.0000000000000000     
  0.41249999999999998       0.91249999999999998        0.0000000000000000     
  0.45624999999999999       0.91874999999999996        0.0000000000000000     
  0.46250000000000002       0.96250000000000002        0.0000000000000000     
  0.41875000000000001       0.95625000000000004        0.0000000000000000     
  0.31250000000000000       0.75000000000000000        0.0000000000000000     
  0.37500000000000000       0.75000000000000000        0.0000000000000000     
  0.37500000000000000       0.81250000000000000        0.0000000000000000     
  0.28749999999999998       0.78749999999999998        0.0000000000000000     
  0.33124999999999999       0.79374999999999996        0.0000000000000000     
  0.33750000000000002       0.83750000000000002        0.0000000000000000     
  0.29375000000000001       0.83125000000000004        0.0000000000000000     
  0.43750000000000000       0.75000000000000000        0.0000000000000000     
  0.50000000000000000       0.75000000000000000        0.0000000000000000     
  0.50000000000000000       0.81250000000000000        0.0000000000000000     
  0.41249999999999998       0.78749999999999998        0.0000000000000000     
  0.45624999999999999       0.79374999999999996        0.0000000000000000     
  0.46250000000000002       0.83750000000000002        0.0000000000000000     
  0.41875000000000001       0.83125000000000004        0.0000000000000000     
   6.2500000000000000E-002  0.62500000000000000        0.0000000000000000     
  0.12500000000000000       0.62500000000000000        0.0000000000000000     
  0.12500000000000000       0.68750000000000000        0.0000000000000000     
   3.7499999999999999E-002  0.66249999999999998        0.0000000000000000     
   8.1250000000000003E-002  0.66874999999999996        0.0000000000000000     
   8.7499999999999994E-002  0.71250000000000002        0.0000000000000000     
   4.3749999999999997E-002  0.70625000000000004        0.0000000000000000     
  0.18750000000000000       0.62500000000000000        0.0000000000000000     
  0.25000000000000000       0.62500000000000000        0.0000000000000000     
  0.25000000000000000       0.68750000000000000        0.0000000000000000     
  0.16250000000000001       0.66249999999999998        0.0000000000000000     
  0.20624999999999999       0.66874999999999996        0.0000000000000000     
  0.21249999999999999       0.71250000000000002        0.0000000000000000     
  0.16875000000000001       0.70625000000000004        0.0000000000000000     
   6.2500000000000000E-002  0.50000000000000000        0.0000000000000000     
  0.12500000000000000       0.50000000000000000        0.0000000000000000     
  0.12500000000000000       0.56250000000000000        0.0000000000000000     
   3.7499999999999999E-002  0.53749999999999998        0.0000000000000000     
   8.1250000000000003E-002  0.54374999999999996        0.0000000000000000     
   8.7499999999999994E-002  0.58750000000000002        0.0000000000000000     
   4.3749999999999997E-002  0.58125000000000004        0.0000000000000000     
  0.18750000000000000       0.50000000000000000        0.0000000000000000     
  0.25000000000000000       0.50000000000000000        0.0000000000000000     
  0.25000000000000000       0.56250000000000000        0.0000000000000000     
  0.16250000000000001       0.53749999999999998        0.0000000000000000     
  0.20624999999999999       0.54374999999999996        0.0000000000000000     
  0.21249999999999999       0.58750000000000002        0.0000000000000000     
  0.16875000000000001       0.58125000000000004        0.0000000000000000     
  0.31250000000000000       0.62500000000000000        0.0000000000000000     
  0.37500000000000000       0.62500000000000000        0.0000000000000000     
  0.37500000000000000       0.68750000000000000        0.0000000000000000     
  0.28749999999999998       0.66249999999999998        0.0000000000000000     
  0.33124999999999999       0.66874999999999996        0.0000000000000000     
  0.33750000000000002       0.71250000000000002        0.0000000000000000     
  0.29375000000000001       0.70625000000000004        0.0000000000000000     
  0.43750000000000000       0.62500000000000000        0.0000000000000000     
  0.50000000000000000       0.62500000000000000        0.0000000000000000     
  0.50000000000000000       0.68750000000000000        0.0000000000000000     
  0.41249999999999998       0.66249999999999998        0.0000000000000000     
  0.45624999999999999       0.66874999999999996        0.0000000000000000     
  0.46250000000000002       0.71250000000000002        0.0000000000000000     
  0.41875000000000001       0.70625000000000004        0.0000000000000000     
  0.31250000000000000       0.50000000000000000        0.0000000000000000     
  0.37500000000000000       0.50000000000000000        0.0000000000000000     
  0.37500000000000000       0.56250000000000000        0.0000000000000000     
  0.28749999999999998       0.53749999999999998        0.0000000000000000     
  0.33124999999999999       0.54374999999999996        0.0000000000000000     
  0.33750000000000002       0.58750000000000002        0.0000000000000000     
  0.29375000000000001       0.58125000000000004        0.0000000000000000     
  0.43750000000000000       0.50000000000000000        0.0000000000000000     
  0.50000000000000000       0.50000000000000000        0.0000000000000000     
  0.50000000000000000       0.56250000000000000        0.0000000000000000     
  0.41249999999999998       0.53749999999999998        0.0000000000000000     
  0.45624999999999999       0.54374999999999996        0.0000000000000000     
  0.46250000000000002       0.58750000000000002        0.0000000000000000     
  0.41875000000000001       0.58125000000000004        0.0000000000000000     
  0.56250000000000000       0.87500000000000000        0.0000000000000000     
  0.62500000000000000       0.87500000000000000        0.0000000000000000     
  0.62500000000000000       0.93750000000000000        0.0000000000000000     
  0.53749999999999998       0.91249999999999998        0.0000000000000000     
  0.58125000000000004       0.91874999999999996        0.0000000000000000     
  0.58750000000000002       0.96250000000000002        0.0000000000000000     
  0.54374999999999996       0.95625000000000004        0.0000000000000000     
  0.68750000000000000       0.87500000000000000        0.0000000000000000     
  0.75000000000000000       0.87500000000000000        0.0000000000000000     
  0.75000000000000000       0.93750000000000000        0.0000000000000000     
  0.66249999999999998       0.91249999999999998        0.0000000000000000     
  0.70625000000000004       0.91874999999999996        0.0000000000000000     
  0.71250000000000002       0.96250000000000002        0.0000000000000000     
[...]
 CELL_DATA         896
 SCALARS Endothelial_cells float
 LOOKUP_TABLE default
    0.92660390864960140433E+00
    0.86678568929162280732E+00
    0.80135828091227701009E+00
    0.76447715193453802396E+00
    0.79186269807209264115E+00
    0.75225335779935775804E+00
    0.80244687673779535597E+00
    0.86219208812659076102E+00
    0.92746250692642606683E+00
    0.96485251669763527627E+00
    0.93687803403673208802E+00
    0.97753281417825110822E+00
    0.87535806495388235327E+00
    0.85407553816261316815E+00
    0.67524137238454973176E+00
    0.61547077764418767210E+00
    0.54974110117828767219E+00
    0.51316907194930649894E+00
    0.54137373407665512204E+00
    0.50200742930144259812E+00
    0.55209900621086882566E+00
    0.61189508575304540905E+00
    0.67752758650292255194E+00
    0.71483195595657722521E+00
    0.68675300596136912290E+00
    0.72636156260758610870E+00
    0.62466623106198249094E+00
    0.60360853908351519426E+00
    0.92522069662658223965E+00
    0.86527073523663355914E+00
    0.79835477079181338400E+00
    0.76166083699477549196E+00
    0.78955386566960250594E+00
    0.74975873084265431956E+00
    0.80182372892186215552E+00
    0.86060994406482826946E+00
    0.92731496096179377719E+00
    0.96504723330910735513E+00
    0.93592187124140346910E+00
    0.97772240453820447037E+00
    0.87389990279359797132E+00
    0.85317775719379707056E+00
    0.66913254880664252422E+00
    0.60868078970571481978E+00
    0.54024073003505490576E+00
    0.50446213494304315006E+00
    0.53473272605823329862E+00
    0.49688908705046408443E+00
    0.54936847615463257899E+00
    0.60764904457122170811E+00
    0.67591285726551642021E+00
    0.71248672267792290125E+00
    0.68307808814187354063E+00
    0.72257056333717895047E+00
    0.61911552482477338888E+00
    0.59927995249544108169E+00
    0.42447865264626893911E+00
    0.37853663388923591837E+00
    0.30939914008313623706E+00
    0.27227545834962951776E+00
    0.29972434781352169653E+00
    0.25991274455038571034E+00
    0.30943627260986361627E+00
    0.38725191509651080146E+00
    0.42738987920296811485E+00
    0.46463302403092537896E+00
    0.43638714679076923142E+00
    0.47539237885147989093E+00
    0.39999443854064786752E+00
    0.36076588726460256940E+00
    0.18566192827958699629E+00
    0.12599059138151361137E+00
    0.61917909008915833491E-01
    0.24799292332068206823E-01
    0.52266453224027988045E-01
    0.12432700220615258355E-01
    0.61925103827838057224E-01
    0.12168474289707091607E+00
    0.18565792480616619131E+00
    0.22278049345826753114E+00
    0.19536528163525521129E+00
    0.23516749310507914505E+00
    0.13462364882072097583E+00
    0.11297526743154263917E+00
    0.41199943623422102812E+00
    0.40006042236297845172E+00
    0.33681009969774683421E+00
    0.27231803183291347636E+00
    0.29977109684937103262E+00
    0.25991308157895770536E+00
    0.30981686121730506178E+00
    0.39998121160497202009E+00
    0.42280604291077716894E+00
    0.45925190994151821045E+00
    0.42849244453347407058E+00
    0.46527075581305743501E+00
    0.39997596473284102725E+00
    0.38841543808175216235E+00
    0.18566192831239219929E+00
    0.12599059138152374215E+00
    0.61917909008910358704E-01
    0.24799292332063856137E-01
    0.52266453224009294665E-01
    0.12432700181040768836E-01
    0.61925090350598642475E-01
    0.12168474286752004043E+00
    0.18565793541968328428E+00
    0.22278049388163123634E+00
    0.19536528167137878764E+00
    0.23516756053037721208E+00
    0.13462364882072141992E+00
    0.11297526743150586304E+00
    0.92412917266227168067E+00
    0.86224623377071518693E+00
    0.79414810294694893056E+00
    0.75648016404721962758E+00
    0.78415027223550015645E+00
    0.74451889292104000972E+00
    0.79924222467569761008E+00
    0.85743072720234225770E+00
    0.92672581340997917110E+00
    0.96479337054345815083E+00
    0.93485397524590529983E+00
    0.97746829708990168317E+00
    0.87120613714152850271E+00
    0.85122004775618842487E+00
    0.65946466298496753122E+00
    0.59418455327303432156E+00
    0.52172996004690253002E+00
    0.48486877133204908663E+00
    0.51806737896176102698E+00
    0.48186993351711093769E+00
    0.53886360156345458616E+00
    0.59600238984538200793E+00
    0.67050210771837925883E+00
    0.70688180090819274781E+00
    0.67502110793652447818E+00
    0.71510782613131507190E+00
    0.60649855679645636730E+00
    0.58835785230549741964E+00
    0.92444945047050186560E+00
    0.85939563421528453180E+00
    0.79194107093487609017E+00
    0.75209653052124958439E+00
    0.77920459830909127863E+00
    0.73752215461670178609E+00
    0.79496993133142179744E+00
    0.85421915921267044247E+00
    0.92594533741357532008E+00
    0.96407315126279369277E+00
    0.93434858200702453068E+00
    0.97675428412275222545E+00
    0.86895356412051949491E+00
    0.84905253595935792355E+00
    0.65454026464752113057E+00
    0.58095752780484644084E+00
    0.50844682973868415843E+00
    0.46614059552598702263E+00
    0.49750986953382969613E+00
    0.45815121551205101325E+00
    0.51972166658005714002E+00
    0.57913234334942120807E+00
    0.66129596985841021528E+00
    0.69950368056319711663E+00
    0.66589338003206355321E+00
    0.70930475091520750475E+00
    0.59285314733195793035E+00
    0.57484025450890019471E+00
    0.40006854299220878657E+00
    0.40011970008404873500E+00
    0.39998535553424402478E+00
    0.30316858457011591765E+00
    0.39993266330649246409E+00
    0.26009778284538909165E+00
    0.32402381262843144016E+00
    0.39996711727087858046E+00
    0.40690041236051133211E+00
    0.44331548654075381144E+00
    0.40820738949112234106E+00
    0.44366756840106713611E+00
    0.39993952403245847105E+00
    0.40007520280922820310E+00
    0.18566199726462243036E+00
    0.12599059192102524118E+00
    0.61917908980304324496E-01
    0.24799292051706101764E-01
    0.52266453224022554891E-01
    0.12432700181035372111E-01
    0.61925090350595540789E-01
    0.12168474286770973591E+00
    0.18565793572846414627E+00
    0.22278084192931935092E+00
    0.19536531865771950001E+00
    0.23522095862855826875E+00
    0.13462364884105010310E+00
    0.11297526743155729412E+00
    0.39998003342228782842E+00
    0.40019864727661219606E+00
    0.39978806991219290046E+00
    0.40025082180418025679E+00
    0.40042400324365456932E+00
    0.40009072942733892031E+00
    0.39978676342831115376E+00
    0.40014454252033271331E+00
    0.39992428290778170297E+00
    0.41792495432085363660E+00
    0.40003103696954828150E+00
    0.42359354726775555466E+00
    0.39994325266824404252E+00
    0.39993713246658840754E+00
    0.40060999670628472114E+00
    0.17384919734990184059E+00
    0.61914859979595532335E-01
    0.24787557162714253522E-01
    0.52264428899338070955E-01
    0.12430230819516885354E-01
    0.61925047212831436927E-01
    0.12168546419482580145E+00
    0.18571537158449269445E+00
    0.30569710058256821528E+00
    0.27862256153504072476E+00
    0.39913733484752778047E+00
    0.13471148066591673298E+00
    0.11297694132980275195E+00
    0.11836030028030410948E-05
    0.11850813980548146357E-05
    0.11830635138602833404E-05
    0.11830635010740376691E-05
    0.11850813872881076924E-05
    0.11836018613165106542E-05
    0.11869484417537795765E-05
    0.11850813984440544388E-05
    0.11864155593448902061E-05
    0.41762803225690228856E-05
    0.11850827136290690982E-05
    0.17231568829842984779E-04
    0.11814715223417554202E-05
    0.11814715122782041960E-05
    0.11836018561972686200E-05
    0.11850813985340319959E-05
    0.11830635067252155471E-05
    0.11830635054539715592E-05
    0.11850813894241064626E-05
    0.11836018621841690654E-05
    0.11869484270659254568E-05
    0.11850814092665088555E-05
    0.11864153859862764751E-05
    0.11830635121510985430E-05
    0.11850814004764041166E-05
    0.11836018518460349589E-05
    0.11814715258638831628E-05
    0.11814715110103735391E-05
    0.11836030038602049168E-05
    0.11850813983512001460E-05
    0.11830635138803245634E-05
    0.11830635007989853188E-05
    0.11850813886769952393E-05
    0.11836018476325006913E-05
    0.11836018470826314659E-05
    0.11850814022972068923E-05
    0.11830636047541996760E-05
    0.41762744198904694283E-05
    0.11850827176633805116E-05
    0.17231568828672510607E-04
    0.11814715225036975318E-05
    0.11814715017806347719E-05
    0.11836018577770557938E-05
    0.11850813986177692496E-05
    0.11830635062642072777E-05
    0.11830635048808614438E-05
    0.11850813917394019907E-05
    0.11836018592704976996E-05
    0.11836018484504569033E-05
    0.11850814094804081799E-05
    0.11830635283923435371E-05
    0.11830635048359905087E-05
    0.11850813981793602427E-05
    0.11836018512335348469E-05
    0.11814715213206601669E-05
    0.11814715081410418070E-05
    0.11836018463943687036E-05
    0.11850814028821077064E-05
    0.11830635085024560536E-05
    0.11830635071784908293E-05
    0.11850813943971667037E-05
    0.11836018598441518219E-05
    0.11869484429480583391E-05
    0.11850813963249704930E-05
    0.11864153896101271572E-05
    0.11830635124291565897E-05
    0.11850813949469825661E-05
    0.11836018524588120508E-05
    0.11814715291806320972E-05
    0.11814715106604470762E-05
    0.11836018506391269350E-05
    0.11850814081923624465E-05
    0.11830635047939440049E-05
    0.11864156114448309652E-05
    0.11850813849968357127E-05
    0.11869484753320875234E-05
    0.11869484543296385691E-05
    0.11850814074975152736E-05
    0.11864153865965715487E-05
    0.11830635106904658232E-05
    0.11850813992321131406E-05
    0.11836018530383107004E-05
    0.11814715262271770762E-05
    0.11814715195397776305E-05
    0.11836018466948225132E-05
    0.11850814040130809206E-05
    0.11830635079075073113E-05
    0.11830635073528881368E-05
    0.11850813947294213065E-05
    0.11836018483162678262E-05
    0.11836018528493774604E-05
    0.11850814089837967863E-05
    0.11830635198655627068E-05
    0.11830635154132494278E-05
    0.11850813949685590363E-05
    0.11836018525843728267E-05
    0.11814715272283685375E-05
    0.11814715104987874501E-05
    0.11836018511650541389E-05
    0.11850814084999743197E-05
    0.11830635037134255788E-05
    0.11864156114288360185E-05
    0.11850813855282624897E-05
    0.11869484655894982587E-05
    0.11836018460444255118E-05
    0.11850814040144232561E-05
    0.11830635217813907207E-05
    0.11830635143599349470E-05
    0.11850813994332059621E-05
    0.11836018531768793614E-05
    0.11814715262844644555E-05
    0.11814715177346890100E-05
    0.11836030465586963896E-05
    0.11850813969586328762E-05
    0.11830635202105859077E-05
    0.11830635019112905622E-05
    0.11850813892788650879E-05
    0.11836018480610426114E-05
    0.11836018479216137885E-05
    0.11850814007402267158E-05
    0.11830636018498096737E-05
    0.41762744196518441535E-05
    0.11850827204920375098E-05
    0.17231568761017288768E-04
    0.11814715279722409186E-05
    0.11814715019374057473E-05
    0.11836018611571007475E-05
    0.11850813951115919844E-05
    0.11830635062229970072E-05
    0.11830635046439361641E-05
    0.11850813914296873582E-05
    0.11836018602175936136E-05
    0.11836018486177569218E-05
    0.11850814073698081161E-05
    0.11830635286788634429E-05
    0.11830635053695674789E-05
    0.11850813997081367631E-05
    0.11836018523800204107E-05
    0.11814715243262282548E-05
    0.11814715099318401346E-05
    0.11850614630804685122E-05
    0.11855607086072316833E-05
    0.11831913626728172883E-05
    0.11830705750961374321E-05
    0.11850837768287828885E-05
    0.11836018396009717666E-05
    0.11836018363003831620E-05
    0.11850838260621659484E-05
    0.11830733442550954326E-05
    0.40904637927536789045E-05
    0.11856116195753285312E-05
    0.13166967092937218185E-04
    0.11818666536555384016E-05
    0.11815929681290405472E-05
    0.11836018568520663810E-05
    0.11850813885091963184E-05
    0.11830635042342959959E-05
    0.11830635071372282545E-05
    0.11850813846679510305E-05
    0.11836018609570521060E-05
    0.11836018477541462692E-05
    0.11850814060108731365E-05
    0.11830635198446147349E-05
    0.11830635019496920714E-05
    0.11850813925119002738E-05
    0.11836018725495530689E-05
    0.11814715175026805448E-05
    0.11814715140299646809E-05
    0.11836018468247145921E-05
    0.11850814037108599886E-05
    0.11830635080637819254E-05
    0.11830635078519548672E-05
    0.11850813934538083227E-05
    0.11836018475798154537E-05
    0.11836018524325461943E-05
    0.11850814088944678447E-05
    0.11830635208715981378E-05
    0.11830635153848933058E-05
    0.11850813938149251496E-05
    0.11836018521816959047E-05
    0.11814715270768614483E-05
    0.11814715108982769871E-05
    0.11836018504312705555E-05
    0.11850814088094755000E-05
    0.11830635040385422349E-05
    0.11864156117397788488E-05
    0.11850813853265403228E-05
    0.11869484654887720652E-05
    0.11836018461233499242E-05
    0.11850814041894715085E-05
    0.11830635221100306104E-05
    0.11830635142759016553E-05
    0.11850813984481032563E-05
    0.11836018523583024860E-05
    0.11814715266591833611E-05
    0.11814715190172328409E-05
    0.11836018469556658858E-05
    0.11850814031392770736E-05
    0.11830635080546890267E-05
    0.11830635082034561761E-05
    0.11850813940830237829E-05
    0.11836018489641938207E-05
    0.11836018521838217457E-05
    0.11850814083882682499E-05
    0.11830635200475676407E-05
    0.11830635152861932151E-05
    0.11850813940424739864E-05
    0.11836018527250887162E-05
    0.11814715292356917799E-05
    0.11814715109528513199E-05
    0.11836018506345550747E-05
    0.11850814082143675154E-05
    0.11830635033806894377E-05
    0.11864156115872845427E-05
    0.11850813851622362598E-05
    0.11869484654727313788E-05
    0.11836018465679683179E-05
    0.11850814067992778513E-05
    0.11830635211942321403E-05
    0.11830635150764744219E-05
    0.11850813995718915136E-05
    0.11836018518241164991E-05
    0.11814715264528660404E-05
    0.11814715171428526902E-05
    0.92602935346149695128E+00
    0.85957226374314765760E+00
    0.79446255426151646262E+00
    0.75353718939608582694E+00
    0.77955775318845388355E+00
    0.73568791430796598441E+00
    0.79213531059932462686E+00
    0.85405483845043694835E+00
    0.92467152416480247190E+00
    0.96398518827902746064E+00
    0.93415575894896674125E+00
    0.97683414286889713729E+00
    0.86949955215992114077E+00
    0.84856370865294150629E+00
    0.66108140478622745562E+00
    0.58611670983043751004E+00
    0.51898931001954429210E+00
    0.47373998900646663301E+00
    0.49780124761249600063E+00
    0.45085479816255680241E+00
    0.50859852473119038230E+00
    0.57429152766740587666E+00
    0.65584264543955317350E+00
    0.69725900199185408823E+00
    0.66604874278921932795E+00
    0.71182386839493727582E+00
    0.59436233146630890189E+00
    0.57361072898141451937E+00
    0.92676247134060674160E+00
    0.86230413394794536153E+00
    0.79874952662057485675E+00
    0.75864890954680419544E+00
    0.78519599010788942994E+00
    0.74152307377132276045E+00
    0.79394713964396712580E+00
    0.85751118778972945655E+00
    0.92463077877056309983E+00
    0.96468449553091650817E+00
    0.93447161872688544459E+00
    0.97761117903954908304E+00
    0.87232041353201617007E+00
    0.85011421617373217341E+00
    0.67077375404170858086E+00
    0.60176185681859062360E+00
    0.53823284141654803570E+00
    0.49587244443742506395E+00
    0.51856490502733121328E+00
    0.47096109759273918627E+00
    0.52124095217400778779E+00
    0.58888654407661811252E+00
    0.66130785702611216692E+00
    0.70315156578934878695E+00
    0.67506961829114953133E+00
    0.71942456900301110512E+00
    0.60905193699972692833E+00
    0.58638823817044327669E+00
    0.39993405094758144314E+00
    0.40020104318853688685E+00
    0.39983895314192774428E+00
    0.40009666275031113836E+00
    0.39986665749907490675E+00
    0.40025198627071539859E+00
    0.40009892827164039719E+00
    0.39999912507439960851E+00
    0.40005570545021768014E+00
    0.40987007971423422559E+00
    0.40008140944046383103E+00
    0.43211178600166438857E+00
    0.39993780662360411959E+00
    0.40016534448449025962E+00
    0.18569175905542664728E+00
    0.12599044254687000177E+00
    0.61918191128372108978E-01
    0.24797881135694341964E-01
    0.52262136808475467831E-01
    0.12419823449816054170E-01
    0.61918386697491140103E-01
    0.13098069510476917365E+00
    0.40034419233484253020E+00
    0.39919767247341264582E+00
    0.20676541759416650068E+00
    0.30526701901913139148E+00
    0.13463517807896663303E+00
    0.11297751972774965068E+00
    0.40830605295284905232E+00
    0.39994392615262236435E+00
    0.34478975492102964528E+00
    0.27253722504801025650E+00
    0.40015860121380775194E+00
    0.28725908922233223119E+00
    0.40013482966645602668E+00
    0.39995358100782757438E+00
    0.40004828821231619429E+00
    0.43072689967366595276E+00
    0.40996407796632272635E+00
    0.45656548286519965663E+00
    0.40006587916945518524E+00
    0.39993022344706891102E+00
    0.18566192883614285325E+00
    0.12599059138185175755E+00
    0.61917909008919101710E-01
    0.24799292332070777684E-01
    0.52266453224021396096E-01
    0.12432699902923642285E-01
    0.61925090600376715699E-01
    0.12168474329560281799E+00
    0.18565797620756996356E+00
    0.22281719798739907379E+00
    0.19536530744738614396E+00
    0.23516818736033753834E+00
    0.13462364883397154314E+00
    0.11297526743159566620E+00
    0.92734146184542864955E+00
    0.86522143962849051846E+00
    0.80162177151028235489E+00
    0.76292003235228034175E+00
    0.79017675953936383770E+00
    0.74820646500578946725E+00
    0.79809724303615692254E+00
    0.86082662692768352475E+00
    0.92568922688271804144E+00
    0.96499330592883103552E+00
    0.93572910351536042750E+00
    0.97767536432866009033E+00
    0.87464791895424853774E+00
    0.85234918917824997742E+00
    0.67612315279409573865E+00
    0.61247185331778630779E+00
    0.54904139290330200573E+00
    0.50983318082789952363E+00
    0.53510701502966484533E+00
    0.49154614899117593518E+00
    0.53972034954384584537E+00
    0.60410679895392727090E+00
    0.67037122043096908364E+00
    0.71046182662441659250E+00
    0.68278321475356884562E+00
    0.72499557161803995786E+00
    0.62055529333303993678E+00
    0.59809521773715312865E+00
    0.92745233064508558751E+00
    0.86671157705991108688E+00
    0.80247966826550531927E+00
    0.76500384838847990121E+00
    0.79214418992620538873E+00
    0.75172275798037857530E+00
    0.80125340378684628551E+00
    0.86238828996729011145E+00
    0.92685711495845291008E+00
    0.96498050698342008324E+00
    0.93680632687589415752E+00
    0.97733614288339154541E+00
    0.87565484559418271804E+00
    0.85387503312194679150E+00
    0.67751349329643928421E+00
    0.61651233141612094002E+00
    0.55219205792127623589E+00
    0.51463606411518980632E+00
    0.54151345662557770488E+00
    0.50064642168128792310E+00
    0.54955312413170120944E+00
    0.61104974847251447567E+00
    0.67587337660526602967E+00
    0.71416684723323953232E+00
    0.68670056016036296054E+00
    0.72729288822187820873E+00
    0.62505231643710845724E+00
    0.60326455514323895635E+00
    0.42337259342803496009E+00
    0.39999954573751395071E+00
    0.31365899192495239056E+00
    0.27228357696600341553E+00
    0.30336447790585496787E+00
    0.25992409599063925896E+00
    0.32530083690769284743E+00
    0.40002382509424144752E+00
    0.41303826753569389263E+00
    0.45290996746831713171E+00
    0.42923114598394368491E+00
    0.47195435603523144819E+00
    0.40002703600031197517E+00
    0.39994979061869490033E+00
    0.18566192828740926690E+00
    0.12599059138151305626E+00
    0.61917909008911177493E-01
    0.24799292332068491318E-01
    0.52266453224018065427E-01
    0.12432700181036419884E-01
    0.61925090350604145017E-01
    0.12168474286754227265E+00
    0.18565793542403730143E+00
    0.22278050282163328055E+00
    0.19536528164762531623E+00
    0.23516750705147063116E+00