# vtk DataFile Version 3.0
LAPLACIEN  2D
ASCII
DATASET UNSTRUCTURED_GRID
 POINTS         481  float
   6.2500000000000000E-002  0.87500000000000000        0.0000000000000000     
  0.12500000000000000       0.87500000000000000        0.0000000000000000     
  0.12500000000000000       0.93750000000000000        0.0000000000000000     
   3.7499999999999999E-002  0.91249999999999998        0.0000000000000000     
   8.1250000000000003E-002  0.91874999999999996        0.0000000000000000     
   8.7499999999999994E-002  0.96250000000000002        0.0000000000000000     
   4.3749999999999997E-002  0.95625000000000004        0.0000000000000000     
  0.18750000000000000       0.87500000000000000        0.0000000000000000     
  0.25000000000000000       0.87500000000000000        0.0000000000000000     
  0.25000000000000000       0.93750000000000000        0.0000000000000000     
  0.16250000000000001       0.91249999999999998        0.0000000000000000     
  0.20624999999999999       0.91874999999999996        0.0000000000000000     
  0.21249999999999999       0.96250000000000002        0.0000000000000000     
  0.16875000000000001       0.95625000000000004        0.0000000000000000     
   6.2500000000000000E-002  0.75000000000000000        0.0000000000000000     
  0.12500000000000000       0.75000000000000000        0.0000000000000000     
  0.12500000000000000       0.81250000000000000        0.0000000000000000     
   3.7499999999999999E-002  0.78749999999999998        0.0000000000000000     
   8.1250000000000003E-002  0.79374999999999996        0.0000000000000000     
   8.7499999999999994E-002  0.83750000000000002        0.0000000000000000     
   4.3749999999999997E-002  0.83125000000000004        0.0000000000000000     
  0.18750000000000000       0.75000000000000000        0.0000000000000000     
  0.25000000000000000       0.75000000000000000        0.0000000000000000     
  0.25000000000000000       0.81250000000000000        0.0000000000000000     
  0.16250000000000001       0.78749999999999998        0.0000000000000000     
  0.20624999999999999       0.79374999999999996        0.0000000000000000     
  0.21249999999999999       0.83750000000000002        0.0000000000000000     
  0.16875000000000001       0.83125000000000004        0.0000000000000000     
  0.31250000000000000       0.87500000000000000        0.0000000000000000     
  0.37500000000000000       0.87500000000000000        0.0000000000000000     
  0.37500000000000000       0.93750000000000000        0.0000000000000000     
  0.28749999999999998       0.91249999999999998        0.0000000000000000     
  0.33124999999999999       0.91874999999999996        0.0000000000000000     
  0.33750000000000002       0.96250000000000002        0.0000000000000000     
  0.29375000000000001       0.95625000000000004        0.0000000000000000     
  0.43750000000000000       0.87500000000000000        0.0000000000000000     
  0.50000000000000000       0.87500000000000000        0.0000000000000000     
  0.50000000000000000       0.93750000000000000        0.0000000000000000     
  0.41249999999999998       0.91249999999999998        0.0000000000000000     
  0.45624999999999999       0.91874999999999996        0.0000000000000000     
  0.46250000000000002       0.96250000000000002        0.0000000000000000     
  0.41875000000000001       0.95625000000000004        0.0000000000000000     
  0.31250000000000000       0.75000000000000000        0.0000000000000000     
  0.37500000000000000       0.75000000000000000        0.0000000000000000     
  0.37500000000000000       0.81250000000000000        0.0000000000000000     
  0.28749999999999998       0.78749999999999998        0.0000000000000000     
  0.33124999999999999       0.79374999999999996        0.0000000000000000     
  0.33750000000000002       0.83750000000000002        0.0000000000000000     
  0.29375000000000001       0.83125000000000004        0.0000000000000000     
  0.43750000000000000       0.75000000000000000        0.0000000000000000     
  0.50000000000000000       0.75000000000000000        0.0000000000000000     
  0.50000000000000000       0.81250000000000000        0.0000000000000000     
  0.41249999999999998       0.78749999999999998        0.0000000000000000     
  0.45624999999999999       0.79374999999999996        0.0000000000000000     
  0.46250000000000002       0.83750000000000002        0.0000000000000000     
  0.41875000000000001       0.83125000000000004        0.0000000000000000     
   6.2500000000000000E-002  0.62500000000000000        0.0000000000000000     
  0.12500000000000000       0.62500000000000000        0.0000000000000000     
  0.12500000000000000       0.68750000000000000        0.0000000000000000     
   3.7499999999999999E-002  0.66249999999999998        0.0000000000000000     
   8.1250000000000003E-002  0.66874999999999996        0.0000000000000000     
   8.7499999999999994E-002  0.71250000000000002        0.0000000000000000     
   4.3749999999999997E-002  0.70625000000000004        0.0000000000000000     
  0.18750000000000000       0.62500000000000000        0.0000000000000000     
  0.25000000000000000       0.62500000000000000        0.0000000000000000     
  0.25000000000000000       0.68750000000000000        0.0000000000000000     
  0.16250000000000001       0.66249999999999998        0.0000000000000000     
  0.20624999999999999       0.66874999999999996        0.0000000000000000     
  0.21249999999999999       0.71250000000000002        0.0000000000000000     
  0.16875000000000001       0.70625000000000004        0.0000000000000000     
   6.2500000000000000E-002  0.50000000000000000        0.0000000000000000     
  0.12500000000000000       0.50000000000000000        0.0000000000000000     
  0.12500000000000000       0.56250000000000000        0.0000000000000000     
   3.7499999999999999E-002  0.53749999999999998        0.0000000000000000     
   8.1250000000000003E-002  0.54374999999999996        0.0000000000000000     
   8.7499999999999994E-002  0.58750000000000002        0.0000000000000000     
   4.3749999999999997E-002  0.58125000000000004        0.0000000000000000     
  0.18750000000000000       0.50000000000000000        0.0000000000000000     
  0.25000000000000000       0.50000000000000000        0.0000000000000000     
  0.25000000000000000       0.56250000000000000        0.0000000000000000     
  0.16250000000000001       0.53749999999999998        0.0000000000000000     
  0.20624999999999999       0.54374999999999996        0.0000000000000000     
  0.21249999999999999       0.58750000000000002        0.0000000000000000     
  0.16875000000000001       0.58125000000000004        0.0000000000000000     
  0.31250000000000000       0.62500000000000000        0.0000000000000000     
  0.37500000000000000       0.62500000000000000        0.0000000000000000     
  0.37500000000000000       0.68750000000000000        0.0000000000000000     
  0.28749999999999998       0.66249999999999998        0.0000000000000000     
  0.33124999999999999       0.66874999999999996        0.0000000000000000     
  0.33750000000000002       0.71250000000000002        0.0000000000000000     
  0.29375000000000001       0.70625000000000004        0.0000000000000000     
  0.43750000000000000       0.62500000000000000        0.0000000000000000     
  0.50000000000000000       0.62500000000000000        0.0000000000000000     
  0.50000000000000000       0.68750000000000000        0.0000000000000000     
  0.41249999999999998       0.66249999999999998        0.0000000000000000     
  0.45624999999999999       0.66874999999999996        0.0000000000000000     
  0.46250000000000002       0.71250000000000002        0.0000000000000000     
  0.41875000000000001       0.70625000000000004        0.0000000000000000     
  0.31250000000000000       0.50000000000000000        0.0000000000000000     
  0.37500000000000000       0.50000000000000000        0.0000000000000000     
  0.37500000000000000       0.56250000000000000        0.0000000000000000     
  0.28749999999999998       0.53749999999999998        0.0000000000000000     
  0.33124999999999999       0.54374999999999996        0.0000000000000000     
  0.33750000000000002       0.58750000000000002        0.0000000000000000     
  0.29375000000000001       0.58125000000000004        0.0000000000000000     
  0.43750000000000000       0.50000000000000000        0.0000000000000000     
  0.50000000000000000       0.50000000000000000        0.0000000000000000     
  0.50000000000000000       0.56250000000000000        0.0000000000000000     
  0.41249999999999998       0.53749999999999998        0.0000000000000000     
  0.45624999999999999       0.54374999999999996        0.0000000000000000     
  0.46250000000000002       0.58750000000000002        0.0000000000000000     
  0.41875000000000001       0.58125000000000004        0.0000000000000000     
  0.56250000000000000       0.87500000000000000        0.0000000000000000     
  0.62500000000000000       0.87500000000000000        0.0000000000000000     
  0.62500000000000000       0.93750000000000000        0.0000000000000000     
  0.53749999999999998       0.91249999999999998        0.0000000000000000     
  0.58125000000000004       0.91874999999999996        0.0000000000000000     
  0.58750000000000002       0.96250000000000002        0.0000000000000000     
  0.54374999999999996       0.95625000000000004        0.0000000000000000     
  0.68750000000000000       0.87500000000000000        0.0000000000000000     
  0.75000000000000000       0.87500000000000000        0.0000000000000000     
  0.75000000000000000       0.93750000000000000        0.0000000000000000     
  0.66249999999999998       0.91249999999999998        0.0000000000000000     
  0.70625000000000004       0.91874999999999996        0.0000000000000000     
  0.71250000000000002       0.96250000000000002        0.0000000000000000     
[...]
 CELL_DATA         896
 SCALARS Endothelial_cells float
 LOOKUP_TABLE default
    0.92540090110414829905E+00
    0.86519028584995516518E+00
    0.79871712769247349417E+00
    0.76187001279269417342E+00
    0.78929955903905435477E+00
    0.74974628458626357830E+00
    0.80065020288393073944E+00
    0.86049202120416024009E+00
    0.92686199039708994096E+00
    0.96448009597965145279E+00
    0.93610408561572389097E+00
    0.97730761359653273157E+00
    0.87387493229375479142E+00
    0.85288696025132404444E+00
    0.67006568668865251759E+00
    0.60966627471377476954E+00
    0.54201367845034531534E+00
    0.50583416010305914945E+00
    0.53508991409796957672E+00
    0.49615473874601301318E+00
    0.54703063977320998124E+00
    0.60708196052115004360E+00
    0.67445153500155874404E+00
    0.71203580542236932782E+00
    0.68321320949043962134E+00
    0.72278800120141983854E+00
    0.61966824894294825210E+00
    0.59909730794274207444E+00
    0.92294837082224434610E+00
    0.86221855242242340100E+00
    0.79290900807707054287E+00
    0.75618987800230696994E+00
    0.78459590412738688947E+00
    0.74508527455743955858E+00
    0.79938158077663823420E+00
    0.85760969164705569412E+00
    0.92660227987412735473E+00
    0.96468111550566515433E+00
    0.93442853894160493589E+00
    0.97756075415734666745E+00
    0.87113189712976923929E+00
    0.85113487960869249616E+00
    0.65716083348903209238E+00
    0.59487432065222334288E+00
    0.52126527168311675986E+00
    0.48655237799797412812E+00
    0.52062346773568879410E+00
    0.48496294718982846383E+00
    0.54087746119374724429E+00
    0.59819711531863595244E+00
    0.67103876556417163535E+00
    0.70737112811809288448E+00
    0.67558162979707736540E+00
    0.71479959613685839503E+00
    0.60790587888157054941E+00
    0.58952016887582858740E+00
    0.41461572044498079537E+00
    0.40000893691298849975E+00
    0.31720191538919839669E+00
    0.27232545214638326225E+00
    0.29980408078951814588E+00
    0.25997396735662070544E+00
    0.31388102422037383876E+00
    0.39999505559955106371E+00
    0.42109137304986560268E+00
    0.45837893541385049678E+00
    0.42912622224047636266E+00
    0.46721632983740885026E+00
    0.39999552954678863070E+00
    0.37022987459578049485E+00
    0.18571483271340377685E+00
    0.12611615585115490412E+00
    0.61979352533642798062E-01
    0.24869737036601502478E-01
    0.52375155285547363160E-01
    0.12515229096262871916E-01
    0.61996768935155432967E-01
    0.12180822431455209931E+00
    0.18570510285217012303E+00
    0.22282428940746118462E+00
    0.19544418804875096640E+00
    0.23522793800423330568E+00
    0.13468902624107437216E+00
    0.11305162017960472542E+00
    0.39998047815754472767E+00
    0.40002820072702544030E+00
    0.39997906911916902839E+00
    0.27307536830146011964E+00
    0.34746783965206090583E+00
    0.26010194855461482577E+00
    0.31609818224966168554E+00
    0.39998486725640847173E+00
    0.41085159506048063438E+00
    0.44655162160207390043E+00
    0.41195565515676890733E+00
    0.44541490513100129300E+00
    0.39999244147752366363E+00
    0.40001482346620742536E+00
    0.18571484129816243080E+00
    0.12611615586318947191E+00
    0.61979352533664003322E-01
    0.24869737036623720816E-01
    0.52375155285505028968E-01
    0.12515228774935058600E-01
    0.61996700230429871437E-01
    0.12180822411415388740E+00
    0.18570517344585094066E+00
    0.22282472993687033047E+00
    0.19544419808121421545E+00
    0.23523253493443932460E+00
    0.13468902625611406387E+00
    0.11305162017886039028E+00
    0.92078489199438096069E+00
    0.85630637236215334518E+00
    0.78431482799979745923E+00
    0.74541302850043489325E+00
    0.77394461938114367250E+00
    0.73417110439393173937E+00
    0.79415523187009007255E+00
    0.85156234000829733599E+00
    0.92549726922308583887E+00
    0.96412707755671345211E+00
    0.93243331091227432683E+00
    0.97700951983955630631E+00
    0.86598911896755170758E+00
    0.84727058067988636481E+00
    0.63586977949124590115E+00
    0.56348712088556895949E+00
    0.48237282201394876546E+00
    0.44596954547431300053E+00
    0.48541724766975929972E+00
    0.45302726249152325266E+00
    0.51776881603544167021E+00
    0.57322276956528961378E+00
    0.65910542433891228242E+00
    0.69554112697558267975E+00
    0.65798294319737660185E+00
    0.69899625418855670933E+00
    0.58073118272773027737E+00
    0.56527614232966960639E+00
    0.92108841486109382934E+00
    0.85076364997204856344E+00
    0.77955640873766973709E+00
    0.73600790315058739477E+00
    0.76337542017690684926E+00
    0.71925004503652956167E+00
    0.78551955206011248034E+00
    0.84498853705490328814E+00
    0.92374760774406905472E+00
    0.96295853619702076465E+00
    0.93113743087951916788E+00
    0.97590594532349239643E+00
    0.86142636255310733873E+00
    0.84294513163854867255E+00
    0.62424543656310271800E+00
    0.53548324522468926379E+00
    0.45608108042592032660E+00
    0.41235201428950163383E+00
    0.44639158727087202561E+00
    0.41015584068370919413E+00
    0.47779975381562850290E+00
    0.53701230042903558282E+00
    0.63859673861897991998E+00
    0.67938237533220002806E+00
    0.63764952377810479867E+00
    0.68601734504616140864E+00
    0.55112994643117096949E+00
    0.53540076678796133525E+00
    0.39996484563720058336E+00
    0.40006306529915447445E+00
    0.39996186011758100287E+00
    0.40004125548494484654E+00
    0.39984848701514130731E+00
    0.26092821404102028993E+00
    0.36495072503333808589E+00
    0.39995783181718175259E+00
    0.40002431660063664243E+00
    0.41304641057869323495E+00
    0.39998481130522628435E+00
    0.40345714077344152493E+00
    0.40005551813577971965E+00
    0.40004110983876661756E+00
    0.18612191143638984192E+00
    0.12611674945258136149E+00
    0.61979338201099402894E-01
    0.24869684109648237946E-01
    0.52375155329094834344E-01
    0.12515228774712365209E-01
    0.61996700230124518471E-01
    0.12180822415359424116E+00
    0.18570519362293974597E+00
    0.22283108387140368456E+00
    0.19556724646914194765E+00
    0.31280047205691829948E+00
    0.13468914067253898170E+00
    0.11305162033116521181E+00
    0.40007255689776183294E+00
    0.39988848199156418195E+00
    0.40017739469794139096E+00
    0.39972366809253245812E+00
    0.39984554636247859882E+00
    0.39976403896236423208E+00
    0.40014400176773889939E+00
    0.39980708259089886569E+00
    0.40009774515423496277E+00
    0.39998685577892528764E+00
    0.40009246491395628054E+00
    0.39994254912478471864E+00
    0.39991239917454030062E+00
    0.40009180604303090645E+00
    0.39988295025183140385E+00
    0.40022410610256053953E+00
    0.40007219284396000614E+00
    0.59046355086539763224E-01
    0.52416810914634140439E-01
    0.12509944885997607150E-01
    0.61994946965126293548E-01
    0.12202533782366543902E+00
    0.25133071855307881348E+00
    0.40023048410803774289E+00
    0.39932864035089216115E+00
    0.40018160739925490166E+00
    0.40040679463275458128E+00
    0.19756371686742357774E+00
    0.28722163445518121063E-05
    0.28758742267872296285E-05
    0.28708635171417420888E-05
    0.28708634773582981986E-05
    0.28758742035334524390E-05
    0.28722003364580069719E-05
    0.28805114412826350846E-05
    0.28758742287957573518E-05
    0.28791886126874685461E-05
    0.10187348869548852777E-04
    0.28758946408046634087E-05
    0.41946243826692012724E-04
    0.28669103323699351022E-05
    0.28669103227537263296E-05
    0.28722003231931635449E-05
    0.28758742379954025207E-05
    0.28708634917935607407E-05
    0.28708634847225512963E-05
    0.28758742141119427322E-05
    0.28722003356226609617E-05
    0.28805114202427737438E-05
    0.28758742264955097874E-05
    0.28791871272792653824E-05
    0.28708634929487921315E-05
    0.28758742136652213675E-05
    0.28722003140934229475E-05
    0.28669103383113702072E-05
    0.28669103175516298619E-05
    0.28722163563550430081E-05
    0.28758742274059380686E-05
    0.28708635157885849327E-05
    0.28708634760455843247E-05
    0.28758742000887795067E-05
    0.28722003216027706715E-05
    0.28722003136749564843E-05
    0.28758742423660268835E-05
    0.28708646406995767564E-05
    0.10187334063296972573E-04
    0.28758946611699815916E-05
    0.41946243825114573102E-04
    0.28669103266271783513E-05
    0.28669103005073296594E-05
    0.28722003320188703492E-05
    0.28758742366037206121E-05
    0.28708634882197686470E-05
    0.28708634807697598161E-05
    0.28758742128225311581E-05
    0.28722003301947904030E-05
    0.28722003229045692554E-05
    0.28758742420555579681E-05
    0.28708634909852723510E-05
    0.28708634768269158908E-05
    0.28758742079338038466E-05
    0.28722003071453836289E-05
    0.28669103285250230087E-05
    0.28669103179393676638E-05
    0.28722003100689686683E-05
    0.28758742352813759735E-05
    0.28708634848848491618E-05
    0.28708634853000193963E-05
    0.28758742233043186644E-05
    0.28722003259276937952E-05
    0.28805114411518692912E-05
    0.28758742282329543568E-05
    0.28791871242023500153E-05
    0.28708634873865567363E-05
    0.28758741938636281749E-05
    0.28722003213666924247E-05
    0.28669103432092154050E-05
    0.28669103240043277011E-05
    0.28722003232447957088E-05
    0.28758742401515947681E-05
    0.28708634550768026007E-05
    0.28791874009452607447E-05
    0.28758742051231359223E-05
    0.28805115454272680317E-05
    0.28805114452809931257E-05
    0.28758742391559117738E-05
    0.28791871210416597017E-05
    0.28708634850768279087E-05
    0.28758742091033539059E-05
    0.28722003218919888008E-05
    0.28669103413174837843E-05
    0.28669103219183849782E-05
    0.28722003129402739872E-05
    0.28758742366692758800E-05
    0.28708634832213077936E-05
    0.28708634835775787450E-05
    0.28758742236588375282E-05
    0.28722003127296389161E-05
    0.28722003243656650905E-05
    0.28758742306550107646E-05
    0.28708634926613633593E-05
    0.28708634808961244263E-05
    0.28758741920482459865E-05
    0.28722003189129298796E-05
    0.28669103411614408337E-05
    0.28669103207180821172E-05
    0.28722003223617426855E-05
    0.28758742412834696490E-05
    0.28708634538585566172E-05
    0.28791873998011809661E-05
    0.28758742059394961125E-05
    0.28805115305141183946E-05
    0.28722003135090083304E-05
    0.28758742357050737122E-05
    0.28708635011616134237E-05
    0.28708634745563293027E-05
    0.28758742105016486007E-05
    0.28722003215650434005E-05
    0.28669103444269468159E-05
    0.28669103204939466114E-05
    0.28722255308323863405E-05
    0.28758742910565486450E-05
    0.28708635033660022694E-05
    0.28708634885737369394E-05
    0.28758741916898125600E-05
    0.28722003217415078920E-05
    0.28722003182496713182E-05
    0.28758742456636536256E-05
    0.28708646276420124560E-05
    0.10187334086486818680E-04
    0.28758946364138390042E-05
    0.41946134133594532238E-04
    0.28669103352628999006E-05
    0.28669103083313560526E-05
    0.28722003286688851125E-05
    0.28758742203194385092E-05
    0.28708634924977881682E-05
    0.28708634839855686812E-05
    0.28758742089325268422E-05
    0.28722003313215839332E-05
    0.28722003245369914802E-05
    0.28758742460581871728E-05
    0.28708634915613466582E-05
    0.28708634801287045293E-05
    0.28758742041641891704E-05
    0.28722003207127101446E-05
    0.28669103415469420451E-05
    0.28669103166949187162E-05
    0.28739106247457211604E-05
    0.28764828858804712366E-05
    0.28710787531107167689E-05
    0.28708982133863716318E-05
    0.28759051565152991965E-05
    0.28722007379733207194E-05
    0.28722008204037715139E-05
    0.28759085660855039671E-05
    0.28709876777532437406E-05
    0.99037253614403831527E-05
    0.28765772139798908547E-05
    0.40468992357084641550E-04
    0.28674924205212451237E-05
    0.28671797033126102249E-05
    0.28722003352070231651E-05
    0.28758742317626732086E-05
    0.28708634845560834877E-05
    0.28708634851543398937E-05
    0.28758742076674382427E-05
    0.28722003316914336698E-05
    0.28722003162031520497E-05
    0.28758742336696586221E-05
    0.28708634852534435956E-05
    0.28708634830613994081E-05
    0.28758742140297847715E-05
    0.28722016803602434928E-05
    0.28669103320205365526E-05
    0.28669103297475867426E-05
    0.28722003096114438219E-05
    0.28758742357504001393E-05
    0.28708634796163635222E-05
    0.28708634829540489935E-05
    0.28758742213175715464E-05
    0.28722003149162375288E-05
    0.28722003242436855699E-05
    0.28758742350962802163E-05
    0.28708634953557192604E-05
    0.28708634873398644686E-05
    0.28758741962266180107E-05
    0.28722003208085468404E-05
    0.28669103442757433880E-05
    0.28669103161001652149E-05
    0.28722003224801761027E-05
    0.28758742418703160977E-05
    0.28708634501995885844E-05
    0.28791874004637309845E-05
    0.28758742064520603128E-05
    0.28805115309730018819E-05
    0.28722003135761187508E-05
    0.28758742390595223890E-05
    0.28708635019685376668E-05
    0.28708634748275179122E-05
    0.28758742048929153319E-05
    0.28722003208756551432E-05
    0.28669103407276473093E-05
    0.28669103199503119720E-05
    0.28722003159557269495E-05
    0.28758742411423560775E-05
    0.28708634861969480898E-05
    0.28708634853375128862E-05
    0.28758742233176878089E-05
    0.28722003157706006991E-05
    0.28722003215841740632E-05
    0.28758742331632027999E-05
    0.28708634945209305979E-05
    0.28708634906705055904E-05
    0.28758742056833914657E-05
    0.28722003256692831012E-05
    0.28669103500137097441E-05
    0.28669103240799757901E-05
    0.28722003210184352520E-05
    0.28758742401344287984E-05
    0.28708634482355216206E-05
    0.28791874012856968387E-05
    0.28758742062722030309E-05
    0.28805115313495241206E-05
    0.28722003124548228880E-05
    0.28758742330878681131E-05
    0.28708635018693958485E-05
    0.28708634773493797887E-05
    0.28758742066617657653E-05
    0.28722003194084369540E-05
    0.28669103425310719335E-05
    0.28669103182178898846E-05
    0.92387053802649776735E+00
    0.85142011987491994507E+00
    0.78460427732276549762E+00
    0.73911720853927953545E+00
    0.76402584346673074744E+00
    0.71526182078898747907E+00
    0.77992113117896866292E+00
    0.84436204400084302613E+00
    0.92150384956126274449E+00
    0.96277979673120961390E+00
    0.93084664733059374608E+00
    0.97605207805092575324E+00
    0.86236360254016919402E+00
    0.84200577185427294413E+00
    0.63842337588093711620E+00
    0.54654798601046328255E+00
    0.47642033327810179300E+00
    0.42551863727014915817E+00
    0.44684522310410823565E+00
    0.40001266852310435329E+00
    0.45642064485980043953E+00
    0.52672104363114291559E+00
    0.62661582719560671162E+00
    0.67434952242888313023E+00
    0.63814881276935808696E+00
    0.69174927878256275982E+00
    0.55420944931881066520E+00
    0.53301363426183634431E+00
    0.92555533341671991643E+00
    0.85704042294267224200E+00
    0.79332393633671594024E+00
    0.75025296960747489550E+00
    0.77559450264294482746E+00
    0.72778174168467268945E+00
    0.78395253666505504420E+00
    0.85103992439972631079E+00
    0.92166129568443799780E+00
    0.96395756259347109562E+00
    0.93178506947887418388E+00
    0.97725778995214274136E+00
    0.86789216111330980130E+00
    0.84532515350209436189E+00
    0.65969543156522258975E+00
    0.58053727320067283202E+00
    0.51654155330651208011E+00
    0.46845947490829648041E+00
    0.48623275902992130204E+00
    0.43196443817341084737E+00
    0.48138196005963534985E+00
    0.55713314387836732067E+00
    0.63949501754582538382E+00
    0.68734479838837558852E+00
    0.65841462053605759319E+00
    0.70833993960979124704E+00
    0.58582953111090063647E+00
    0.56137608264296545713E+00
    0.40011110291660700877E+00
    0.39986842715851855790E+00
    0.40017844503545130230E+00
    0.39973320669672873784E+00
    0.39980022641069989930E+00
    0.39980965212993685443E+00
    0.40012947089249106813E+00
    0.39987304010516216968E+00
    0.40006175646993219486E+00
    0.39997227806441298936E+00
    0.40014990040189618581E+00
    0.39994163032095270127E+00
    0.39982602965739250100E+00
    0.40025486176107916148E+00
    0.23993169255925317351E+00
    0.12650331150687244008E+00
    0.61979514051539570663E-01
    0.24866322529666810143E-01
    0.52367573015802845737E-01
    0.63582137795078749742E-01
    0.40000771991943295802E+00
    0.40012953285938962500E+00
    0.39968102851579939694E+00
    0.40038215238501817517E+00
    0.39942490786474310616E+00
    0.40020302070868940536E+00
    0.31742417257540095354E+00
    0.11653089253237626510E+00
    0.39997515284430629201E+00
    0.40006502411751049264E+00
    0.39999051866065665761E+00
    0.27539179282335646270E+00
    0.40013709508982570062E+00
    0.39991659950616303965E+00
    0.39991831450631082356E+00
    0.40009472079045049764E+00
    0.39996236075461816251E+00
    0.40001023278343195155E+00
    0.39997586999314044265E+00
    0.42733053553820649073E+00
    0.40002784381315287243E+00
    0.39995398542377930129E+00
    0.18571486086250663106E+00
    0.12611615592971839317E+00
    0.61979352533787820945E-01
    0.24869737036573975886E-01
    0.52375155318327683285E-01
    0.12515164909449469355E-01
    0.61996693322365147016E-01
    0.12180871165267728728E+00
    0.18599390379379615590E+00
    0.27222563965038237832E+00
    0.19551310542840066864E+00
    0.23523974082536958097E+00
    0.13468908149539943198E+00
    0.11305162046905324613E+00
    0.92663759487746566457E+00
    0.86250457140388236965E+00
    0.79902111311867440868E+00
    0.75895028575191281206E+00
    0.78569820811580781683E+00
    0.74162938757037955018E+00
    0.79243767421812105756E+00
    0.85756975150280467801E+00
    0.92374173441092344294E+00
    0.96460017666317721119E+00
    0.93409951016241832278E+00
    0.97748549250950556022E+00
    0.87240091466699676293E+00
    0.84974377013746182907E+00
    0.67141121727563524146E+00
    0.60364676012667017879E+00
    0.54029114724080473664E+00
    0.49857902264588660479E+00
    0.52123706041407136258E+00
    0.47318985901543764161E+00
    0.52018215634608888642E+00
    0.58992542677869652668E+00
    0.65959473307484595139E+00
    0.70292056665203750399E+00
    0.67523354738640450901E+00
    0.72001669914619237378E+00
    0.61073326212298439941E+00
    0.58723989476401339260E+00
    0.92682544728943927481E+00
    0.86520533265972843218E+00
    0.80070677676899493225E+00
    0.76288903823645881630E+00
    0.78970284897013087733E+00
    0.74869208536013664990E+00
    0.79851594554118177083E+00
    0.86065991791198226402E+00
    0.92582579530475328511E+00
    0.96463955659795641573E+00
    0.93598130060127893159E+00
    0.97705019541497728497E+00
    0.87432255140981640640E+00
    0.85252843302432468331E+00
    0.67438246652172473272E+00
    0.61203272342415659946E+00
    0.54720180607417079344E+00
    0.50907753528091392869E+00
    0.53534206945251605614E+00
    0.49311383321162471915E+00
    0.54159209036176880758E+00
    0.60507182252149305235E+00
    0.67121829416804035251E+00
    0.71066204138730004747E+00
    0.68318654504553877338E+00
    0.72455456927768358000E+00
    0.62044201429409107096E+00
    0.59849858350544082874E+00
    0.41205733762221108396E+00
    0.39999120701288182200E+00
    0.32737016313226391384E+00
    0.27256116662242430015E+00
    0.34989860278655426917E+00
    0.26056046984364189534E+00
    0.39996537139053028875E+00
    0.40002664182104014090E+00
    0.40001888768465887480E+00
    0.43296918531086919790E+00
    0.41351812743667759609E+00
    0.45969862233854452693E+00
    0.40001824665560498095E+00
    0.39999075641122866509E+00
    0.18571483509699263093E+00
    0.12611615585431340536E+00
    0.61979352533640189038E-01
    0.24869737036606744812E-01
    0.52375155285509990277E-01
    0.12515228774932080080E-01
    0.61996700230425257072E-01
    0.12180822412145828060E+00
    0.18570517852981760498E+00
    0.22282696753011435598E+00
    0.19544419583147731867E+00
    0.23522930328032473635E+00