# vtk DataFile Version 3.0
LAPLACIEN  2D
ASCII
DATASET UNSTRUCTURED_GRID
 POINTS         481  float
   6.2500000000000000E-002  0.87500000000000000        0.0000000000000000     
  0.12500000000000000       0.87500000000000000        0.0000000000000000     
  0.12500000000000000       0.93750000000000000        0.0000000000000000     
   3.7499999999999999E-002  0.91249999999999998        0.0000000000000000     
   8.1250000000000003E-002  0.91874999999999996        0.0000000000000000     
   8.7499999999999994E-002  0.96250000000000002        0.0000000000000000     
   4.3749999999999997E-002  0.95625000000000004        0.0000000000000000     
  0.18750000000000000       0.87500000000000000        0.0000000000000000     
  0.25000000000000000       0.87500000000000000        0.0000000000000000     
  0.25000000000000000       0.93750000000000000        0.0000000000000000     
  0.16250000000000001       0.91249999999999998        0.0000000000000000     
  0.20624999999999999       0.91874999999999996        0.0000000000000000     
  0.21249999999999999       0.96250000000000002        0.0000000000000000     
  0.16875000000000001       0.95625000000000004        0.0000000000000000     
   6.2500000000000000E-002  0.75000000000000000        0.0000000000000000     
  0.12500000000000000       0.75000000000000000        0.0000000000000000     
  0.12500000000000000       0.81250000000000000        0.0000000000000000     
   3.7499999999999999E-002  0.78749999999999998        0.0000000000000000     
   8.1250000000000003E-002  0.79374999999999996        0.0000000000000000     
   8.7499999999999994E-002  0.83750000000000002        0.0000000000000000     
   4.3749999999999997E-002  0.83125000000000004        0.0000000000000000     
  0.18750000000000000       0.75000000000000000        0.0000000000000000     
  0.25000000000000000       0.75000000000000000        0.0000000000000000     
  0.25000000000000000       0.81250000000000000        0.0000000000000000     
  0.16250000000000001       0.78749999999999998        0.0000000000000000     
  0.20624999999999999       0.79374999999999996        0.0000000000000000     
  0.21249999999999999       0.83750000000000002        0.0000000000000000     
  0.16875000000000001       0.83125000000000004        0.0000000000000000     
  0.31250000000000000       0.87500000000000000        0.0000000000000000     
  0.37500000000000000       0.87500000000000000        0.0000000000000000     
  0.37500000000000000       0.93750000000000000        0.0000000000000000     
  0.28749999999999998       0.91249999999999998        0.0000000000000000     
  0.33124999999999999       0.91874999999999996        0.0000000000000000     
  0.33750000000000002       0.96250000000000002        0.0000000000000000     
  0.29375000000000001       0.95625000000000004        0.0000000000000000     
  0.43750000000000000       0.87500000000000000        0.0000000000000000     
  0.50000000000000000       0.87500000000000000        0.0000000000000000     
  0.50000000000000000       0.93750000000000000        0.0000000000000000     
  0.41249999999999998       0.91249999999999998        0.0000000000000000     
  0.45624999999999999       0.91874999999999996        0.0000000000000000     
  0.46250000000000002       0.96250000000000002        0.0000000000000000     
  0.41875000000000001       0.95625000000000004        0.0000000000000000     
  0.31250000000000000       0.75000000000000000        0.0000000000000000     
  0.37500000000000000       0.75000000000000000        0.0000000000000000     
  0.37500000000000000       0.81250000000000000        0.0000000000000000     
  0.28749999999999998       0.78749999999999998        0.0000000000000000     
  0.33124999999999999       0.79374999999999996        0.0000000000000000     
  0.33750000000000002       0.83750000000000002        0.0000000000000000     
  0.29375000000000001       0.83125000000000004        0.0000000000000000     
  0.43750000000000000       0.75000000000000000        0.0000000000000000     
  0.50000000000000000       0.75000000000000000        0.0000000000000000     
  0.50000000000000000       0.81250000000000000        0.0000000000000000     
  0.41249999999999998       0.78749999999999998        0.0000000000000000     
  0.45624999999999999       0.79374999999999996        0.0000000000000000     
  0.46250000000000002       0.83750000000000002        0.0000000000000000     
  0.41875000000000001       0.83125000000000004        0.0000000000000000     
   6.2500000000000000E-002  0.62500000000000000        0.0000000000000000     
  0.12500000000000000       0.62500000000000000        0.0000000000000000     
  0.12500000000000000       0.68750000000000000        0.0000000000000000     
   3.7499999999999999E-002  0.66249999999999998        0.0000000000000000     
   8.1250000000000003E-002  0.66874999999999996        0.0000000000000000     
   8.7499999999999994E-002  0.71250000000000002        0.0000000000000000     
   4.3749999999999997E-002  0.70625000000000004        0.0000000000000000     
  0.18750000000000000       0.62500000000000000        0.0000000000000000     
  0.25000000000000000       0.62500000000000000        0.0000000000000000     
  0.25000000000000000       0.68750000000000000        0.0000000000000000     
  0.16250000000000001       0.66249999999999998        0.0000000000000000     
  0.20624999999999999       0.66874999999999996        0.0000000000000000     
  0.21249999999999999       0.71250000000000002        0.0000000000000000     
  0.16875000000000001       0.70625000000000004        0.0000000000000000     
   6.2500000000000000E-002  0.50000000000000000        0.0000000000000000     
  0.12500000000000000       0.50000000000000000        0.0000000000000000     
  0.12500000000000000       0.56250000000000000        0.0000000000000000     
   3.7499999999999999E-002  0.53749999999999998        0.0000000000000000     
   8.1250000000000003E-002  0.54374999999999996        0.0000000000000000     
   8.7499999999999994E-002  0.58750000000000002        0.0000000000000000     
   4.3749999999999997E-002  0.58125000000000004        0.0000000000000000     
  0.18750000000000000       0.50000000000000000        0.0000000000000000     
  0.25000000000000000       0.50000000000000000        0.0000000000000000     
  0.25000000000000000       0.56250000000000000        0.0000000000000000     
  0.16250000000000001       0.53749999999999998        0.0000000000000000     
  0.20624999999999999       0.54374999999999996        0.0000000000000000     
  0.21249999999999999       0.58750000000000002        0.0000000000000000     
  0.16875000000000001       0.58125000000000004        0.0000000000000000     
  0.31250000000000000       0.62500000000000000        0.0000000000000000     
  0.37500000000000000       0.62500000000000000        0.0000000000000000     
  0.37500000000000000       0.68750000000000000        0.0000000000000000     
  0.28749999999999998       0.66249999999999998        0.0000000000000000     
  0.33124999999999999       0.66874999999999996        0.0000000000000000     
  0.33750000000000002       0.71250000000000002        0.0000000000000000     
  0.29375000000000001       0.70625000000000004        0.0000000000000000     
  0.43750000000000000       0.62500000000000000        0.0000000000000000     
  0.50000000000000000       0.62500000000000000        0.0000000000000000     
  0.50000000000000000       0.68750000000000000        0.0000000000000000     
  0.41249999999999998       0.66249999999999998        0.0000000000000000     
  0.45624999999999999       0.66874999999999996        0.0000000000000000     
  0.46250000000000002       0.71250000000000002        0.0000000000000000     
  0.41875000000000001       0.70625000000000004        0.0000000000000000     
  0.31250000000000000       0.50000000000000000        0.0000000000000000     
  0.37500000000000000       0.50000000000000000        0.0000000000000000     
  0.37500000000000000       0.56250000000000000        0.0000000000000000     
  0.28749999999999998       0.53749999999999998        0.0000000000000000     
  0.33124999999999999       0.54374999999999996        0.0000000000000000     
  0.33750000000000002       0.58750000000000002        0.0000000000000000     
  0.29375000000000001       0.58125000000000004        0.0000000000000000     
  0.43750000000000000       0.50000000000000000        0.0000000000000000     
  0.50000000000000000       0.50000000000000000        0.0000000000000000     
  0.50000000000000000       0.56250000000000000        0.0000000000000000     
  0.41249999999999998       0.53749999999999998        0.0000000000000000     
  0.45624999999999999       0.54374999999999996        0.0000000000000000     
  0.46250000000000002       0.58750000000000002        0.0000000000000000     
  0.41875000000000001       0.58125000000000004        0.0000000000000000     
  0.56250000000000000       0.87500000000000000        0.0000000000000000     
  0.62500000000000000       0.87500000000000000        0.0000000000000000     
  0.62500000000000000       0.93750000000000000        0.0000000000000000     
  0.53749999999999998       0.91249999999999998        0.0000000000000000     
  0.58125000000000004       0.91874999999999996        0.0000000000000000     
  0.58750000000000002       0.96250000000000002        0.0000000000000000     
  0.54374999999999996       0.95625000000000004        0.0000000000000000     
  0.68750000000000000       0.87500000000000000        0.0000000000000000     
  0.75000000000000000       0.87500000000000000        0.0000000000000000     
  0.75000000000000000       0.93750000000000000        0.0000000000000000     
  0.66249999999999998       0.91249999999999998        0.0000000000000000     
  0.70625000000000004       0.91874999999999996        0.0000000000000000     
  0.71250000000000002       0.96250000000000002        0.0000000000000000     
[...]
 CELL_DATA         896
 SCALARS Endothelial_cells float
 LOOKUP_TABLE default
    0.92280885855622662994E+00
    0.86026113176308216524E+00
    0.79242838582525065849E+00
    0.75405034990656105709E+00
    0.78274949968314344595E+00
    0.74273245764946804748E+00
    0.79545093313951698022E+00
    0.85597920614083733426E+00
    0.92490340647846103206E+00
    0.96240079579237691743E+00
    0.93347445647165783189E+00
    0.97529016275991020635E+00
    0.87075767760772859738E+00
    0.84950023559990628375E+00
    0.65429021712282686707E+00
    0.58871602057289718068E+00
    0.51272919686629769842E+00
    0.47553246415434596850E+00
    0.51123589335642150022E+00
    0.46767719403159863090E+00
    0.52707882062013211577E+00
    0.59083931066980255320E+00
    0.66415556156991728542E+00
    0.70387025707919104178E+00
    0.67138470640750258500E+00
    0.71228423205323687650E+00
    0.60380941824391010098E+00
    0.58241826019386389035E+00
    0.91841891708488465618E+00
    0.85320112049124807729E+00
    0.77892763060697034483E+00
    0.73876248696787383263E+00
    0.77164284399372395917E+00
    0.73197129177208575257E+00
    0.79190839686854008761E+00
    0.85080095051893112057E+00
    0.92426115313343926161E+00
    0.96228255897744374714E+00
    0.93059630063885301343E+00
    0.97521977552713778881E+00
    0.86538381013778808981E+00
    0.84487021369738135590E+00
    0.61760584078033553546E+00
    0.54433458596848738331E+00
    0.45154136471109734829E+00
    0.41391626638223422141E+00
    0.46839208219640016129E+00
    0.43308130748959028367E+00
    0.50702776195019505501E+00
    0.56662045135097760529E+00
    0.65341725173271292260E+00
    0.69123539429928626543E+00
    0.64942625481556848221E+00
    0.69019877255826955764E+00
    0.57045512206947546208E+00
    0.55128885858005372000E+00
    0.40000100524148385350E+00
    0.39999899754531231810E+00
    0.39999996824486699909E+00
    0.28342007308876770999E+00
    0.35438949938578373500E+00
    0.26624421640107215348E+00
    0.36694077651976969578E+00
    0.39999909400686617378E+00
    0.40000036177143655225E+00
    0.42730195581103774805E+00
    0.40000038100789769846E+00
    0.43035263074529334082E+00
    0.39999943528466219700E+00
    0.40000104908094119560E+00
    0.18645531912850119016E+00
    0.12772445381262101383E+00
    0.62819286396744902778E-01
    0.25818398397263020438E-01
    0.53813116838945511400E-01
    0.13634221997074175148E-01
    0.62967784470468982083E-01
    0.12339224399336426452E+00
    0.18636154451930034281E+00
    0.22374313605310203190E+00
    0.19648709393418872793E+00
    0.23673826090983005055E+00
    0.13560029460534225865E+00
    0.11408505826652912130E+00
    0.39999613946239809259E+00
    0.39999799531486651682E+00
    0.40000157690491017215E+00
    0.38242147082682115267E+00
    0.40000433950003061456E+00
    0.27153615088760291174E+00
    0.36924069928549269060E+00
    0.40000351974727932358E+00
    0.39999858326655479690E+00
    0.40000117471004542624E+00
    0.39999775242133522868E+00
    0.40000083680779985329E+00
    0.40000230127613750630E+00
    0.39999702026454081460E+00
    0.18715935385884588382E+00
    0.12773699085385473162E+00
    0.62819377218174585198E-01
    0.25818398894692871220E-01
    0.53813119363864202194E-01
    0.13634156609387621667E-01
    0.62963145448614019073E-01
    0.12339266301619968014E+00
    0.18638314008469983318E+00
    0.22421257085553808475E+00
    0.19693394556841378740E+00
    0.25029405736325860410E+00
    0.13560950336319338438E+00
    0.11408532600095075416E+00
    0.91315351201676131510E+00
    0.83885633477738041908E+00
    0.75528943811663762364E+00
    0.70684201723012840546E+00
    0.74480655128992445668E+00
    0.70250881460312353255E+00
    0.77761733489574624834E+00
    0.83797371954054600263E+00
    0.92139002547409198929E+00
    0.96093381433742208753E+00
    0.92609604735434158940E+00
    0.97384361352671122702E+00
    0.85407207917945826559E+00
    0.83400654012209851640E+00
    0.55236582283268187421E+00
    0.46011469791294817844E+00
    0.39999787509428397225E+00
    0.39999611731972112283E+00
    0.40000172515801385442E+00
    0.39999802688970559350E+00
    0.43975149992539819266E+00
    0.49753784311567134102E+00
    0.61515584064929296204E+00
    0.65638593236440134771E+00
    0.59582395036242130626E+00
    0.64367886543955055156E+00
    0.49410964240495952593E+00
    0.47587927829751630604E+00
    0.91182940793339195551E+00
    0.82568862849817059590E+00
    0.73945924812980623475E+00
    0.67741196980276985329E+00
    0.71371161686497741616E+00
    0.65876559883714813637E+00
    0.75332949563509421509E+00
    0.82100922695268374607E+00
    0.91659603120693811107E+00
    0.95873010712966399982E+00
    0.92176860109420577505E+00
    0.97216467982852028396E+00
    0.84244044407507867600E+00
    0.82117926060332335769E+00
    0.51421621574415521394E+00
    0.40083800390578744333E+00
    0.40000177767047678801E+00
    0.39999714212142067904E+00
    0.39999669613768218390E+00
    0.39999118784580084407E+00
    0.40000261762730165982E+00
    0.41283056970121079221E+00
    0.55076099150421009565E+00
    0.60537599306308653713E+00
    0.53554045890366519522E+00
    0.60338192477043428585E+00
    0.42051053431301499419E+00
    0.40000395329748805739E+00
    0.39998215576558382445E+00
    0.39998390714473325280E+00
    0.40000349612574148672E+00
    0.39998600574457621182E+00
    0.39995973479649271631E+00
    0.40000515206899261988E+00
    0.39998806391175828479E+00
    0.39998729396867116481E+00
    0.40000392836308401590E+00
    0.40000517751066128058E+00
    0.39998851851514255484E+00
    0.40000994396551653454E+00
    0.40001208297717777418E+00
    0.40001185238413283773E+00
    0.40002670450415261927E+00
    0.18878567225852138645E+00
    0.64069281040521175452E-01
    0.25822184060329864130E-01
    0.53815234477288358128E-01
    0.13633707169618834720E-01
    0.62964580896688174261E-01
    0.12357208385746248913E+00
    0.19340405728144474673E+00
    0.34598288959662432118E+00
    0.22130322718049050268E+00
    0.39998909549900990568E+00
    0.13851819922553681996E+00
    0.11421527379655860290E+00
    0.39997323117174776730E+00
    0.40001041679473253732E+00
    0.39994545955375382373E+00
    0.40005019885335896257E+00
    0.40000168324131674114E+00
    0.40002323996354804958E+00
    0.39994232002100177370E+00
    0.40003308131282044879E+00
    0.39999205747120059051E+00
    0.40002126242585195337E+00
    0.39997035858787000073E+00
    0.40001179736326625269E+00
    0.40001584721399585654E+00
    0.39991871820969743245E+00
    0.45415082578004539737E+00
    0.73695966435991622223E+00
    0.67644007796013339018E+00
    0.54056141075322050593E+00
    0.48364136592114714830E+00
    0.13328316973469681028E+00
    0.73422487756717363938E-01
    0.40002663304721342019E+00
    0.39996180403262943104E+00
    0.39993151288557465817E+00
    0.40000446461745858828E+00
    0.39997610982142922653E+00
    0.40052680512693333847E+00
    0.39996647596926815371E+00
    0.24701658824087796546E-04
    0.24721647343468430478E-04
    0.24678493082578778690E-04
    0.24678492902275455962E-04
    0.24721647092496688175E-04
    0.24690005402640576970E-04
    0.24761590640981797739E-04
    0.24721647772652513363E-04
    0.24751073645587746925E-04
    0.95655356176405241845E-04
    0.24736583523472710548E-04
    0.38461243029406220507E-03
    0.24644463003331702180E-04
    0.24644462346417068542E-04
    0.24690004885482988109E-04
    0.24721647090256235207E-04
    0.24678493036365254011E-04
    0.24678492932843194515E-04
    0.24721647039383439783E-04
    0.24690005412883377095E-04
    0.24761590708290796554E-04
    0.24721647726748880770E-04
    0.24750186495838607127E-04
    0.24678493279359999159E-04
    0.24721647084242941638E-04
    0.24690004889738366439E-04
    0.24644463128519526155E-04
    0.24644462904135863463E-04
    0.24701658857881253402E-04
    0.24721647296123866092E-04
    0.24678493051825170615E-04
    0.24678492879449117432E-04
    0.24721647056970398419E-04
    0.24690005022812043436E-04
    0.24690004791556253365E-04
    0.24721647299070988483E-04
    0.24679379824055547635E-04
    0.95655014136590435590E-04
    0.24736583486029737700E-04
    0.38461243368479347722E-03
    0.24644462895723623510E-04
    0.24644462319550674233E-04
    0.24690004934524793068E-04
    0.24721647100471066304E-04
    0.24678493014599790366E-04
    0.24678492900736485188E-04
    0.24721647031268972569E-04
    0.24690004909784387082E-04
    0.24690004864189914739E-04
    0.24721647136978562413E-04
    0.24678493105094852439E-04
    0.24678492889469334239E-04
    0.24721647243762281514E-04
    0.24690004927057309947E-04
    0.24644463153576800390E-04
    0.24644462881802023770E-04
    0.24690004946973571919E-04
    0.24721647026927637335E-04
    0.24678492982458017263E-04
    0.24678492887736694464E-04
    0.24721646991650724244E-04
    0.24690005267857431632E-04
    0.24761590739238402279E-04
    0.24721647743921111747E-04
    0.24750186429854601622E-04
    0.24678493284622225225E-04
    0.24721647130522192686E-04
    0.24690004889445787707E-04
    0.24644463157364714789E-04
    0.24644463127643602608E-04
    0.24690004931336693192E-04
    0.24721647175819871461E-04
    0.24678493376258281336E-04
    0.24750186502554019858E-04
    0.24721647591026043857E-04
    0.24761591312974647831E-04
    0.24761591133787216472E-04
    0.24721647784353948269E-04
    0.24750186479488140410E-04
    0.24678493339316121799E-04
    0.24721647084494849237E-04
    0.24690004874848438634E-04
    0.24644463148653485759E-04
    0.24644463101419682789E-04
    0.24690004944974709689E-04
    0.24721646980801397707E-04
    0.24678492992752154361E-04
    0.24678492904248856382E-04
    0.24721647024594583337E-04
    0.24690004846095579979E-04
    0.24690004846944767778E-04
    0.24721647094015099765E-04
    0.24678493174427812765E-04
    0.24678492892423158355E-04
    0.24721647094294573203E-04
    0.24690004910184366204E-04
    0.24644463216109742946E-04
    0.24644463113272001368E-04
    0.24690004966900902918E-04
    0.24721647113822707738E-04
    0.24678493406846565520E-04
    0.24750186492854801433E-04
    0.24721647604758165714E-04
    0.24761590988795192985E-04
    0.24690005142289543974E-04
    0.24721647051996532862E-04
    0.24678493164267378124E-04
    0.24678492840448871122E-04
    0.24721647064873049799E-04
    0.24690004929844793733E-04
    0.24644463184001376822E-04
    0.24644463184951439469E-04
    0.24702643437146484551E-04
    0.24721964734900428191E-04
    0.24678564780866730762E-04
    0.24678494993361850849E-04
    0.24721647249749574560E-04
    0.24690005036024547850E-04
    0.24690004827619656876E-04
    0.24721647469397211769E-04
    0.24679379745993787427E-04
    0.95650923736420573719E-04
    0.24736475820277325566E-04
    0.38284162474151679561E-03
    0.24644543848108941918E-04
    0.24644469297378295095E-04
    0.24690004980542043273E-04
    0.24721647116687146161E-04
    0.24678493010820644452E-04
    0.24678492873413509628E-04
    0.24721646968978684624E-04
    0.24690004891147930907E-04
    0.24690004858136441315E-04
    0.24721647140840338086E-04
    0.24678493108326174713E-04
    0.24678492911175976528E-04
    0.24721647178777347983E-04
    0.24690004841873493431E-04
    0.24644463019539223617E-04
    0.24644462973988258273E-04
    0.11860070532534646923E-01
    0.34197939034861924552E-04
    0.24678801188556731474E-04
    0.24678610391365957648E-04
    0.24722008945760021013E-04
    0.24690084478199943781E-04
    0.24690249909498933789E-04
    0.24722449415875656767E-04
    0.24888378619317057201E-04
    0.21662902954628915353E-02
    0.14414738331467528629E-01
    0.36038385253434812583E+00
    0.37933300035514890219E-04
    0.24645653979528214214E-04
    0.24690005379651408214E-04
    0.24721646999799682640E-04
    0.24678493001727684776E-04
    0.24678492930554663958E-04
    0.24721646973446922334E-04
    0.24690004856665216236E-04
    0.24690004831449546840E-04
    0.24721647103012890206E-04
    0.24678493221446869165E-04
    0.24678496542647507212E-04
    0.24721647421571515729E-04
    0.24690033442129567993E-04
    0.24644463119210999983E-04
    0.24644462892674470918E-04
    0.24690004928474108077E-04
    0.24721647008391839167E-04
    0.24678493013080609670E-04
    0.24678492874760051456E-04
    0.24721647050626169078E-04
    0.24690004873930973203E-04
    0.24690004860877565293E-04
    0.24721647066170189278E-04
    0.24678493184159015154E-04
    0.24678492927211089490E-04
    0.24721647064705049284E-04
    0.24690004960030262929E-04
    0.24644463172567417981E-04
    0.24644463091397846456E-04
    0.24690004962049399740E-04
    0.24721647136287796880E-04
    0.24678493385846379202E-04
    0.24750186483967948591E-04
    0.24721647625456564357E-04
    0.24761591029965964610E-04
    0.24690005148718591806E-04
    0.24721647064588622911E-04
    0.24678493131663372366E-04
    0.24678492861249344011E-04
    0.24721647022420327689E-04
    0.24690004904785550993E-04
    0.24644463158313134192E-04
    0.24644463177257202241E-04
    0.24690004933013621916E-04
    0.24721647030707382948E-04
    0.24678493008872814262E-04
    0.24678492924267646610E-04
    0.24721646958956512865E-04
    0.24690004848521648358E-04
    0.24690004830675382443E-04
    0.24721647038432909574E-04
    0.24678493242315714554E-04
    0.24678492985670176263E-04
    0.24721647118805206256E-04
    0.24690004937352294078E-04
    0.24644463099806173116E-04
    0.24644463127624676504E-04
    0.24690004956975543637E-04
    0.24721647155584372936E-04
    0.24678493376318108967E-04
    0.24750186534335692149E-04
    0.24721647611147291190E-04
    0.24761591021926395437E-04
    0.24690005154923084428E-04
    0.24721647053410295225E-04
    0.24678493130338619612E-04
    0.24678492888636124870E-04
    0.24721647050882786180E-04
    0.24690004903747586655E-04
    0.24644463197869515231E-04
    0.24644463162474275025E-04
    0.91674618834882315443E+00
    0.82973756189708292030E+00
    0.75264453671858344563E+00
    0.68835097871519912438E+00
    0.71471110473507215577E+00
    0.64625053826373646260E+00
    0.73904775818142398602E+00
    0.81715085432291878487E+00
    0.91259962915692904861E+00
    0.95816148653722577055E+00
    0.92154654365953014850E+00
    0.97262036944278962292E+00
    0.84380039152817065684E+00
    0.81959665811706416960E+00
    0.55300001149862421101E+00
    0.42410411927044955327E+00
    0.39999611738570650665E+00
    0.40000306774712174329E+00
    0.40001057034874804019E+00
    0.40001484300083589574E+00
    0.39999788009477160733E+00
    0.40000368461207258530E+00
    0.51775809099282688042E+00
    0.58929240851271613710E+00
    0.53771931988743870701E+00
    0.62143256108634181700E+00
    0.42611650744407642000E+00
    0.39999507659550381788E+00
    0.92150268920775313397E+00
    0.84462980003257037698E+00
    0.77682369823506602913E+00
    0.72370606623455235873E+00
    0.74677450032697956228E+00
    0.68327502526921390924E+00
    0.75385879322561444305E+00
    0.83260840808344172004E+00
    0.91468459653902045581E+00
    0.96021906318908345490E+00
    0.92544074729203917862E+00
    0.97458026928987162574E+00
    0.85655553111220927853E+00
    0.83153236313926659484E+00
    0.61785683240679833972E+00
    0.50824607619408856962E+00
    0.43711078450121931827E+00
    0.40000118218704022732E+00
    0.39999813228653974262E+00
    0.40000136260715796199E+00
    0.40000279256065046640E+00
    0.45390222327418144888E+00
    0.56043053037828016727E+00
    0.63079799974326378198E+00
    0.59898787879020853886E+00
    0.67187365201647730739E+00
    0.50521291641952359441E+00
    0.46951503754793333378E+00
    0.39999555145445175874E+00
    0.40000554369357343987E+00
    0.39996063537103343499E+00
    0.40000335172490508739E+00
    0.39992184230959787472E+00
    0.39996165776319669849E+00
    0.40005842912867778383E+00
    0.39991293931237686943E+00
    0.40002333791004629493E+00
    0.39997586448075767018E+00
    0.40002015435226112583E+00
    0.39998818165516308865E+00
    0.39994054170871162768E+00
    0.40001578850708219282E+00
    0.39993824801760086141E+00
    0.25808412456389712153E+00
    0.65583492458955186533E-01
    0.11645159967819747326E+00
    0.50662076046734350054E+00
    0.47136534026308846146E+00
    0.66898341021270502083E+00
    0.74240713657610746257E+00
    0.47337723761159694602E+00
    0.40000884606822129097E+00
    0.40002353475963109419E+00
    0.39993113256048473669E+00
    0.39996726053575543114E+00
    0.40004695048577559868E+00
    0.39999597424162919301E+00
    0.40000652589111695967E+00
    0.39998936025247600057E+00
    0.40000409344666498779E+00
    0.39997996515555989117E+00
    0.40001747174404406193E+00
    0.40002610578863040391E+00
    0.39996919048669227204E+00
    0.40000458388263759879E+00
    0.39999167871313090483E+00
    0.40001271481133926500E+00
    0.39999686378518084506E+00
    0.39997915788589571973E+00
    0.40000835139774021387E+00
    0.19518277754854546080E+00
    0.12796538999861273300E+00
    0.62821248265920073828E-01
    0.25818193686918643193E-01
    0.53822580993324244114E-01
    0.13627922887871650112E-01
    0.63591566509510769056E-01
    0.16980140357007791896E+00
    0.40000891275802691327E+00
    0.39994450278722992742E+00
    0.23403854092229456341E+00
    0.39996709541311070701E+00
    0.13660089311639150855E+00
    0.11504030134707589339E+00
    0.92424145547026115288E+00
    0.85616548164122840969E+00
    0.79160763397226951987E+00
    0.74776236589735656235E+00
    0.77286389055407334059E+00
    0.72190447825867709586E+00
    0.77769992712483138053E+00
    0.84817462962931045034E+00
    0.91971669709885250921E+00
    0.96192273826292273853E+00
    0.93024797538940562358E+00
    0.97537480376509488877E+00
    0.86682389824598260475E+00
    0.84338991912423277864E+00
    0.65451130274051005919E+00
    0.57359087116336715528E+00
    0.50591265742832836061E+00
    0.45391665894609134480E+00
    0.46925701629611132892E+00
    0.40320446949607224862E+00
    0.44892775557255010233E+00
    0.53906711148305008763E+00
    0.62314203259390987810E+00
    0.67760152324666911294E+00
    0.65032977053456331173E+00
    0.70489286814768215006E+00
    0.57642671963027791726E+00
    0.54689519857339607967E+00
    0.92469892196140557328E+00
    0.86092977638401801954E+00
    0.79577665156741872465E+00
    0.75663744295805368534E+00
    0.78318329484824078524E+00
    0.73990509401266180145E+00
    0.79181380622430186378E+00
    0.85553261555549808826E+00
    0.92352034553766271241E+00
    0.96242493089841851805E+00
    0.93334420803309547932E+00
    0.97514236071207782697E+00
    0.87113433910523130344E+00
    0.84925194361040079460E+00
    0.66373601642567381376E+00
    0.59635602329446646408E+00
    0.52740123436446550986E+00
    0.48576100751059364535E+00
    0.51156819923719309973E+00
    0.45709758630421476466E+00
    0.51129703606548759787E+00
    0.58385299876054608248E+00
    0.65661073959781557363E+00
    0.69983657537162669016E+00
    0.67166296281953330460E+00
    0.71659575874014125318E+00
    0.60526898286159569462E+00
    0.58147533870565570879E+00
    0.39999917722324190850E+00
    0.40000259825471773389E+00
    0.39038707727136801040E+00
    0.28595555980504855365E+00
    0.39999912698269729505E+00
    0.37832232502007995256E+00
    0.40000396260731024833E+00
    0.39999459314090801687E+00
    0.40000422092081727721E+00
    0.39999861296676125777E+00
    0.40000126615077563619E+00
    0.40983176226410428233E+00
    0.39999661389328688976E+00
    0.40000224731749983720E+00
    0.18646678351172693566E+00
    0.12772478981696758216E+00
    0.62819288612156409801E-01
    0.25818398403385265510E-01
    0.53813120550956147770E-01
    0.13634157119825431742E-01
    0.62963279237181909997E-01
    0.12340872652263150389E+00
    0.18717649090808907708E+00
    0.23576551172807339030E+00
    0.19689381123055507694E+00
    0.23712877283271632800E+00