# vtk DataFile Version 3.0
LAPLACIEN  2D
ASCII
DATASET UNSTRUCTURED_GRID
 POINTS         481  float
   6.2500000000000000E-002  0.87500000000000000        0.0000000000000000     
  0.12500000000000000       0.87500000000000000        0.0000000000000000     
  0.12500000000000000       0.93750000000000000        0.0000000000000000     
   3.7499999999999999E-002  0.91249999999999998        0.0000000000000000     
   8.1250000000000003E-002  0.91874999999999996        0.0000000000000000     
   8.7499999999999994E-002  0.96250000000000002        0.0000000000000000     
   4.3749999999999997E-002  0.95625000000000004        0.0000000000000000     
  0.18750000000000000       0.87500000000000000        0.0000000000000000     
  0.25000000000000000       0.87500000000000000        0.0000000000000000     
  0.25000000000000000       0.93750000000000000        0.0000000000000000     
  0.16250000000000001       0.91249999999999998        0.0000000000000000     
  0.20624999999999999       0.91874999999999996        0.0000000000000000     
  0.21249999999999999       0.96250000000000002        0.0000000000000000     
  0.16875000000000001       0.95625000000000004        0.0000000000000000     
   6.2500000000000000E-002  0.75000000000000000        0.0000000000000000     
  0.12500000000000000       0.75000000000000000        0.0000000000000000     
  0.12500000000000000       0.81250000000000000        0.0000000000000000     
   3.7499999999999999E-002  0.78749999999999998        0.0000000000000000     
   8.1250000000000003E-002  0.79374999999999996        0.0000000000000000     
   8.7499999999999994E-002  0.83750000000000002        0.0000000000000000     
   4.3749999999999997E-002  0.83125000000000004        0.0000000000000000     
  0.18750000000000000       0.75000000000000000        0.0000000000000000     
  0.25000000000000000       0.75000000000000000        0.0000000000000000     
  0.25000000000000000       0.81250000000000000        0.0000000000000000     
  0.16250000000000001       0.78749999999999998        0.0000000000000000     
  0.20624999999999999       0.79374999999999996        0.0000000000000000     
  0.21249999999999999       0.83750000000000002        0.0000000000000000     
  0.16875000000000001       0.83125000000000004        0.0000000000000000     
  0.31250000000000000       0.87500000000000000        0.0000000000000000     
  0.37500000000000000       0.87500000000000000        0.0000000000000000     
  0.37500000000000000       0.93750000000000000        0.0000000000000000     
  0.28749999999999998       0.91249999999999998        0.0000000000000000     
  0.33124999999999999       0.91874999999999996        0.0000000000000000     
  0.33750000000000002       0.96250000000000002        0.0000000000000000     
  0.29375000000000001       0.95625000000000004        0.0000000000000000     
  0.43750000000000000       0.87500000000000000        0.0000000000000000     
  0.50000000000000000       0.87500000000000000        0.0000000000000000     
  0.50000000000000000       0.93750000000000000        0.0000000000000000     
  0.41249999999999998       0.91249999999999998        0.0000000000000000     
  0.45624999999999999       0.91874999999999996        0.0000000000000000     
  0.46250000000000002       0.96250000000000002        0.0000000000000000     
  0.41875000000000001       0.95625000000000004        0.0000000000000000     
  0.31250000000000000       0.75000000000000000        0.0000000000000000     
  0.37500000000000000       0.75000000000000000        0.0000000000000000     
  0.37500000000000000       0.81250000000000000        0.0000000000000000     
  0.28749999999999998       0.78749999999999998        0.0000000000000000     
  0.33124999999999999       0.79374999999999996        0.0000000000000000     
  0.33750000000000002       0.83750000000000002        0.0000000000000000     
  0.29375000000000001       0.83125000000000004        0.0000000000000000     
  0.43750000000000000       0.75000000000000000        0.0000000000000000     
  0.50000000000000000       0.75000000000000000        0.0000000000000000     
  0.50000000000000000       0.81250000000000000        0.0000000000000000     
  0.41249999999999998       0.78749999999999998        0.0000000000000000     
  0.45624999999999999       0.79374999999999996        0.0000000000000000     
  0.46250000000000002       0.83750000000000002        0.0000000000000000     
  0.41875000000000001       0.83125000000000004        0.0000000000000000     
   6.2500000000000000E-002  0.62500000000000000        0.0000000000000000     
  0.12500000000000000       0.62500000000000000        0.0000000000000000     
  0.12500000000000000       0.68750000000000000        0.0000000000000000     
   3.7499999999999999E-002  0.66249999999999998        0.0000000000000000     
   8.1250000000000003E-002  0.66874999999999996        0.0000000000000000     
   8.7499999999999994E-002  0.71250000000000002        0.0000000000000000     
   4.3749999999999997E-002  0.70625000000000004        0.0000000000000000     
  0.18750000000000000       0.62500000000000000        0.0000000000000000     
  0.25000000000000000       0.62500000000000000        0.0000000000000000     
  0.25000000000000000       0.68750000000000000        0.0000000000000000     
  0.16250000000000001       0.66249999999999998        0.0000000000000000     
  0.20624999999999999       0.66874999999999996        0.0000000000000000     
  0.21249999999999999       0.71250000000000002        0.0000000000000000     
  0.16875000000000001       0.70625000000000004        0.0000000000000000     
   6.2500000000000000E-002  0.50000000000000000        0.0000000000000000     
  0.12500000000000000       0.50000000000000000        0.0000000000000000     
  0.12500000000000000       0.56250000000000000        0.0000000000000000     
   3.7499999999999999E-002  0.53749999999999998        0.0000000000000000     
   8.1250000000000003E-002  0.54374999999999996        0.0000000000000000     
   8.7499999999999994E-002  0.58750000000000002        0.0000000000000000     
   4.3749999999999997E-002  0.58125000000000004        0.0000000000000000     
  0.18750000000000000       0.50000000000000000        0.0000000000000000     
  0.25000000000000000       0.50000000000000000        0.0000000000000000     
  0.25000000000000000       0.56250000000000000        0.0000000000000000     
  0.16250000000000001       0.53749999999999998        0.0000000000000000     
  0.20624999999999999       0.54374999999999996        0.0000000000000000     
  0.21249999999999999       0.58750000000000002        0.0000000000000000     
  0.16875000000000001       0.58125000000000004        0.0000000000000000     
  0.31250000000000000       0.62500000000000000        0.0000000000000000     
  0.37500000000000000       0.62500000000000000        0.0000000000000000     
  0.37500000000000000       0.68750000000000000        0.0000000000000000     
  0.28749999999999998       0.66249999999999998        0.0000000000000000     
  0.33124999999999999       0.66874999999999996        0.0000000000000000     
  0.33750000000000002       0.71250000000000002        0.0000000000000000     
  0.29375000000000001       0.70625000000000004        0.0000000000000000     
  0.43750000000000000       0.62500000000000000        0.0000000000000000     
  0.50000000000000000       0.62500000000000000        0.0000000000000000     
  0.50000000000000000       0.68750000000000000        0.0000000000000000     
  0.41249999999999998       0.66249999999999998        0.0000000000000000     
  0.45624999999999999       0.66874999999999996        0.0000000000000000     
  0.46250000000000002       0.71250000000000002        0.0000000000000000     
  0.41875000000000001       0.70625000000000004        0.0000000000000000     
  0.31250000000000000       0.50000000000000000        0.0000000000000000     
  0.37500000000000000       0.50000000000000000        0.0000000000000000     
  0.37500000000000000       0.56250000000000000        0.0000000000000000     
  0.28749999999999998       0.53749999999999998        0.0000000000000000     
  0.33124999999999999       0.54374999999999996        0.0000000000000000     
  0.33750000000000002       0.58750000000000002        0.0000000000000000     
  0.29375000000000001       0.58125000000000004        0.0000000000000000     
  0.43750000000000000       0.50000000000000000        0.0000000000000000     
  0.50000000000000000       0.50000000000000000        0.0000000000000000     
  0.50000000000000000       0.56250000000000000        0.0000000000000000     
  0.41249999999999998       0.53749999999999998        0.0000000000000000     
  0.45624999999999999       0.54374999999999996        0.0000000000000000     
  0.46250000000000002       0.58750000000000002        0.0000000000000000     
  0.41875000000000001       0.58125000000000004        0.0000000000000000     
  0.56250000000000000       0.87500000000000000        0.0000000000000000     
  0.62500000000000000       0.87500000000000000        0.0000000000000000     
  0.62500000000000000       0.93750000000000000        0.0000000000000000     
  0.53749999999999998       0.91249999999999998        0.0000000000000000     
  0.58125000000000004       0.91874999999999996        0.0000000000000000     
  0.58750000000000002       0.96250000000000002        0.0000000000000000     
  0.54374999999999996       0.95625000000000004        0.0000000000000000     
  0.68750000000000000       0.87500000000000000        0.0000000000000000     
  0.75000000000000000       0.87500000000000000        0.0000000000000000     
  0.75000000000000000       0.93750000000000000        0.0000000000000000     
  0.66249999999999998       0.91249999999999998        0.0000000000000000     
  0.70625000000000004       0.91874999999999996        0.0000000000000000     
  0.71250000000000002       0.96250000000000002        0.0000000000000000     
[...]
 CELL_DATA         896
 SCALARS Endothelial_cells float
 LOOKUP_TABLE default
    0.92354758556237181999E+00
    0.86176668840162162777E+00
    0.79382592837571797073E+00
    0.75603371704830868438E+00
    0.78429222096971362710E+00
    0.74436611268640373584E+00
    0.79689773158620225146E+00
    0.85729291849111122215E+00
    0.92561279205263968795E+00
    0.96334530551768038364E+00
    0.93448240922406411446E+00
    0.97624650584429017997E+00
    0.87148380518813228779E+00
    0.85050251789394271107E+00
    0.65775983956089123517E+00
    0.59352160574384349445E+00
    0.51947074518691871425E+00
    0.48270275136904344793E+00
    0.51638208467929780365E+00
    0.47737380914045229874E+00
    0.53160014483750361869E+00
    0.59424742287793497209E+00
    0.66663652341879631180E+00
    0.70570901284048093149E+00
    0.67423748430090246764E+00
    0.71468633422206739869E+00
    0.60696967607975971237E+00
    0.58623515356107236407E+00
    0.91952521052355740139E+00
    0.85572870232896847131E+00
    0.78217239831737173095E+00
    0.74335982817305878978E+00
    0.77458689419924942055E+00
    0.73496076048065828168E+00
    0.79392553507634222587E+00
    0.85244719825842629746E+00
    0.92509620279608428817E+00
    0.96332890971817619619E+00
    0.93182959171676338350E+00
    0.97632750049825678396E+00
    0.86659339902390963850E+00
    0.84671821168809779934E+00
    0.62771172434293398545E+00
    0.55746835724689303149E+00
    0.47043686611946178289E+00
    0.43617884943375417883E+00
    0.48132158819600773247E+00
    0.44842923130727185832E+00
    0.51533299248577280061E+00
    0.57359148195839204654E+00
    0.65790491353756874737E+00
    0.69514959539017817658E+00
    0.65609669064869480248E+00
    0.69629827616695827430E+00
    0.57918085966451482438E+00
    0.56131640044372532738E+00
    0.39999841179986395101E+00
    0.40000293456464292019E+00
    0.38849064360288582121E+00
    0.27604692243562306553E+00
    0.33730113310303749818E+00
    0.26203778057707838300E+00
    0.35662171567422679130E+00
    0.39999932369745433425E+00
    0.40000076980916510205E+00
    0.43614030578765439206E+00
    0.40506054729075607890E+00
    0.44018472550827181244E+00
    0.39999784158481743734E+00
    0.40000329101747200689E+00
    0.18606401311051617986E+00
    0.12691274624113893510E+00
    0.62382927417856476326E-01
    0.25328683121729100164E-01
    0.53076815336947823221E-01
    0.13054875035828483049E-01
    0.62465269312017443482E-01
    0.12259230537370531533E+00
    0.18601633443933532353E+00
    0.22315771453332128305E+00
    0.19594858813845644763E+00
    0.23572981975587745107E+00
    0.13512327219154768310E+00
    0.11355043205199651102E+00
    0.39999804136356953421E+00
    0.40000348096953158850E+00
    0.39999287294692276173E+00
    0.36566028512690323948E+00
    0.39999100501884077286E+00
    0.26569902847995724438E+00
    0.35510511719614246129E+00
    0.39999292502826461204E+00
    0.40000257260436095086E+00
    0.40777297411268376148E+00
    0.39999836685863277008E+00
    0.40000136144792869386E+00
    0.40000508796299494296E+00
    0.40000571355475372792E+00
    0.18613975751643604961E+00
    0.12691330091931216084E+00
    0.62382929005734284733E-01
    0.25328683130756358272E-01
    0.53076815383260950165E-01
    0.13054861331811757827E-01
    0.62463847334694413971E-01
    0.12259233561689626690E+00
    0.18602006622640657185E+00
    0.22328864400044726168E+00
    0.19600826085283676314E+00
    0.24022824022409025591E+00
    0.13512379685617786906E+00
    0.11355043884247156827E+00
    0.91513280071823643880E+00
    0.84371035020946871796E+00
    0.76311664163049586218E+00
    0.71830781625580464311E+00
    0.75208081952913719004E+00
    0.71057132389995758537E+00
    0.78228110071322265462E+00
    0.84108216565855520308E+00
    0.92276136286579568679E+00
    0.96220101406317504189E+00
    0.92803730723732769103E+00
    0.97519389782341847628E+00
    0.85674787213459946411E+00
    0.83816287043093207210E+00
    0.57758170879313996959E+00
    0.48991418009093851138E+00
    0.39999680601220022336E+00
    0.40000369408067898425E+00
    0.41236415385868152583E+00
    0.39999534467334468824E+00
    0.46113177225383372715E+00
    0.51732618356450366104E+00
    0.62791772758822161915E+00
    0.66733274860099733861E+00
    0.61398659021197432573E+00
    0.65945978292072982008E+00
    0.51859304392515281901E+00
    0.50322789972235792977E+00
    0.91452776768381593975E+00
    0.83266577016429621505E+00
    0.75129390734140177877E+00
    0.69598290124070594231E+00
    0.72745989990280213178E+00
    0.67613493247259703889E+00
    0.76308052108583201978E+00
    0.82699943024440902839E+00
    0.91886605158079959210E+00
    0.96032446085738520924E+00
    0.92463657272935162457E+00
    0.97368886874165450074E+00
    0.84712559333338510736E+00
    0.82840179849195239026E+00
    0.54979050796346695673E+00
    0.44052602448295646864E+00
    0.40000247316049847290E+00
    0.40000140403606349038E+00
    0.39999770162981562738E+00
    0.40000038802102477753E+00
    0.40000275330925799677E+00
    0.44782848535697150627E+00
    0.57908016931178230013E+00
    0.62877985794157997823E+00
    0.56775791171685185965E+00
    0.62871758735661043005E+00
    0.46078260003401994016E+00
    0.44154969883011579990E+00
    0.40001305775580031643E+00
    0.39997898631055406327E+00
    0.40001352382719063128E+00
    0.39999642763314391392E+00
    0.39999386904914419061E+00
    0.39996811321753644730E+00
    0.40000240532615805034E+00
    0.40000556864746045216E+00
    0.39999791626817876589E+00
    0.40000698309471366398E+00
    0.39999919583852372451E+00
    0.39998991074843553983E+00
    0.40000504802910047397E+00
    0.39999507101111109186E+00
    0.39996842684807470958E+00
    0.16493019303797185060E+00
    0.62598971810469916655E-01
    0.25325618765731201798E-01
    0.53077141584169512667E-01
    0.13054824511070820675E-01
    0.62463883919378591913E-01
    0.12260543858646053006E+00
    0.18753799650026523049E+00
    0.30444520165646488108E+00
    0.20922369657636749607E+00
    0.39997936378580178918E+00
    0.13575062829155298827E+00
    0.11356114185540693018E+00
    0.39999979194032347918E+00
    0.40000866641058796525E+00
    0.40000480824419137882E+00
    0.39989458446739994946E+00
    0.40003455606965726554E+00
    0.40006640271212012827E+00
    0.39992717055046628216E+00
    0.40000343503167007375E+00
    0.39999113137653674599E+00
    0.40000632761833893047E+00
    0.40000553810480271588E+00
    0.39998768189111061355E+00
    0.40000183134911704297E+00
    0.39994283818113435247E+00
    0.39997299388795631847E+00
    0.52381923623780290988E+00
    0.58744868870131461414E+00
    0.45191933149211049869E+00
    0.40615181227322427748E+00
    0.79133823598783542552E-01
    0.63608872367578922491E-01
    0.27965983696992829932E+00
    0.40000735220786931556E+00
    0.39991320877413927271E+00
    0.39993410632767473212E+00
    0.40000235783801679768E+00
    0.40001099443770349318E+00
    0.40001706300660716531E+00
    0.13506952638846550090E-04
    0.13522756671381624334E-04
    0.13498718208152355830E-04
    0.13498718222527550183E-04
    0.13522756603066675638E-04
    0.13505131230548377263E-04
    0.13545005025098316630E-04
    0.13522756740947911743E-04
    0.13538788610404546168E-04
    0.50337002661388798703E-04
    0.13525087182430418721E-04
    0.20533690297200467745E-03
    0.13479758034929157991E-04
    0.13479757893521893133E-04
    0.13505131072913839854E-04
    0.13522756620064131530E-04
    0.13498718189309733529E-04
    0.13498718162776626356E-04
    0.13522756645467506816E-04
    0.13505131208416778544E-04
    0.13545004996842468110E-04
    0.13522756709236610949E-04
    0.13538652761986932853E-04
    0.13498718206257570232E-04
    0.13522756600290723359E-04
    0.13505131107211526954E-04
    0.13479758062017224211E-04
    0.13479758013152269566E-04
    0.13506952677467195197E-04
    0.13522756669007019982E-04
    0.13498718212598328432E-04
    0.13498718177158580033E-04
    0.13522756572220078592E-04
    0.13505131118866556313E-04
    0.13505131063149996204E-04
    0.13522756666041596597E-04
    0.13498853654549634873E-04
    0.50336907063749198807E-04
    0.13525087187879053022E-04
    0.20533690253800440250E-03
    0.13479758002250923348E-04
    0.13479757852597005008E-04
    0.13505131174655766438E-04
    0.13522756662855446591E-04
    0.13498718180348023304E-04
    0.13498718166744472577E-04
    0.13522756645904770634E-04
    0.13505131075611187476E-04
    0.13505131134033938230E-04
    0.13522756639250652595E-04
    0.13498718197080361271E-04
    0.13498718125509099442E-04
    0.13522756690098694328E-04
    0.13505131115441934344E-04
    0.13479758044601644057E-04
    0.13479757969901825379E-04
    0.13505131102672041915E-04
    0.13522756571035137097E-04
    0.13498718161277886260E-04
    0.13498718139163167214E-04
    0.13522756615374127042E-04
    0.13505131159309370883E-04
    0.13545005007398224886E-04
    0.13522756694399424497E-04
    0.13538652783599776407E-04
    0.13498718189815241098E-04
    0.13522756605661118921E-04
    0.13505131106923025838E-04
    0.13479758087989930998E-04
    0.13479758019627919457E-04
    0.13505131119539845862E-04
    0.13522756603949844705E-04
    0.13498718202677573622E-04
    0.13538653247320536738E-04
    0.13522756630018511854E-04
    0.13545005383145701164E-04
    0.13545005043289419822E-04
    0.13522756743783717064E-04
    0.13538652818633868869E-04
    0.13498718179890459494E-04
    0.13522756640566294662E-04
    0.13505131072339886941E-04
    0.13479758089925640145E-04
    0.13479758000650493558E-04
    0.13505131128458271010E-04
    0.13522756555216856100E-04
    0.13498718187543410642E-04
    0.13498718164239091420E-04
    0.13522756611704685447E-04
    0.13505131050589939246E-04
    0.13505131142437863708E-04
    0.13522756603382849320E-04
    0.13498718260660412733E-04
    0.13498718117217915744E-04
    0.13522756596517821772E-04
    0.13505131080183872819E-04
    0.13479758096344062796E-04
    0.13479758015571414298E-04
    0.13505131116880845116E-04
    0.13522756580485619215E-04
    0.13498718226970797033E-04
    0.13538653228369670404E-04
    0.13522756632710052218E-04
    0.13545005294959608553E-04
    0.13505131197678962201E-04
    0.13522756586654173923E-04
    0.13498718288304996539E-04
    0.13498718101379636298E-04
    0.13522756627497653712E-04
    0.13505131114335196013E-04
    0.13479758125809235503E-04
    0.13479758056490628997E-04
    0.13507482504271481590E-04
    0.13522840265529324644E-04
    0.13498722946863132551E-04
    0.13498718163242347094E-04
    0.13522756633964360629E-04
    0.13505131132996976779E-04
    0.13505131094266989883E-04
    0.13522756666092479561E-04
    0.13498853624602092150E-04
    0.50336858888383253520E-04
    0.13525078611962652864E-04
    0.20485765621983359312E-03
    0.13479763484206858345E-04
    0.13479758032632146940E-04
    0.13505131155690747877E-04
    0.13522756603717266398E-04
    0.13498718166550210653E-04
    0.13498718144599585606E-04
    0.13522756587354993737E-04
    0.13505131088395530288E-04
    0.13505131133066321673E-04
    0.13522756614676241350E-04
    0.13498718232326198418E-04
    0.13498718172951077699E-04
    0.13522756585833800491E-04
    0.13505131073866926409E-04
    0.13479758017243369245E-04
    0.13479758027926751863E-04
    0.43150095139443079770E-02
    0.14032844735361455952E-04
    0.13498959276145639617E-04
    0.13498784274603847839E-04
    0.13522944762225300712E-04
    0.13505152372198553327E-04
    0.13505197118516251142E-04
    0.13523159281770270971E-04
    0.13500535059107496923E-04
    0.23303347926302797567E-03
    0.52653078586368078085E-02
    0.30708192815679474785E+00
    0.14196602078091094022E-04
    0.13480311024980206532E-04
    0.13505131273062761677E-04
    0.13522756557180712152E-04
    0.13498718150913037157E-04
    0.13498718149300847162E-04
    0.13522756587911089501E-04
    0.13505131070759042247E-04
    0.13505131130706801284E-04
    0.13522756621883543054E-04
    0.13498718257371177123E-04
    0.13498718425848862810E-04
    0.13522756703734522093E-04
    0.13505144752879837060E-04
    0.13479758130474525264E-04
    0.13479757994877083108E-04
    0.13505131100296378772E-04
    0.13522756560955062166E-04
    0.13498718179036772255E-04
    0.13498718128707609353E-04
    0.13522756632042768132E-04
    0.13505131066898338918E-04
    0.13505131142893377698E-04
    0.13522756570669842280E-04
    0.13498718266904807383E-04
    0.13498718138835146929E-04
    0.13522756614613083186E-04
    0.13505131106524779746E-04
    0.13479758103279773551E-04
    0.13479758052310773819E-04
    0.13505131104904573430E-04
    0.13522756609216033191E-04
    0.13498718206789898252E-04
    0.13538653243792034649E-04
    0.13522756643440692498E-04
    0.13545005302368681976E-04
    0.13505131176448437132E-04
    0.13522756584444444534E-04
    0.13498718273392447872E-04
    0.13498718120381073888E-04
    0.13522756611850507251E-04
    0.13505131088285168671E-04
    0.13479758087931387469E-04
    0.13479758039552589078E-04
    0.13505131115892667681E-04
    0.13522756601799585500E-04
    0.13498718185082468222E-04
    0.13498718168254061472E-04
    0.13522756593367921387E-04
    0.13505131063813992107E-04
    0.13505131114018124476E-04
    0.13522756579158886099E-04
    0.13498718324876306417E-04
    0.13498718158071676819E-04
    0.13522756617448924082E-04
    0.13505131105115977607E-04
    0.13479758055185281769E-04
    0.13479758065115314978E-04
    0.13505131105122103349E-04
    0.13522756594339361451E-04
    0.13498718212528314382E-04
    0.13538653256243093713E-04
    0.13522756635005050719E-04
    0.13545005314332861420E-04
    0.13505131208632443297E-04
    0.13522756587472810938E-04
    0.13498718284247693475E-04
    0.13498718139064697940E-04
    0.13522756632256457604E-04
    0.13505131077755378537E-04
    0.13479758096354720165E-04
    0.13479758051360440121E-04
    0.91900336768645440877E+00
    0.83539070677030979883E+00
    0.76192252427924733738E+00
    0.70377702930626384603E+00
    0.72848381662417249771E+00
    0.66663754460320201467E+00
    0.75145386937218350276E+00
    0.82439681919501484053E+00
    0.91522808368689911873E+00
    0.95990409506160723208E+00
    0.92434141630631139197E+00
    0.97401964910183846946E+00
    0.84849579168939248675E+00
    0.82682828856141232787E+00
    0.57985929501822586207E+00
    0.45905832295819021249E+00
    0.39999497311856491155E+00
    0.40001114091332851119E+00
    0.39999770624589486845E+00
    0.40000580115480183219E+00
    0.39999943087527189967E+00
    0.43111937656554344400E+00
    0.55328406362010085218E+00
    0.61677155866436750298E+00
    0.56917383488576822614E+00
    0.64238331527690506473E+00
    0.46552612577554364215E+00
    0.43866596890872672221E+00
    0.92287790141436598645E+00
    0.84760095888369935135E+00
    0.78122186231649926036E+00
    0.73079726693459490239E+00
    0.75420338080390658675E+00
    0.69543532990244760761E+00
    0.76211990797418638355E+00
    0.83749096995120630993E+00
    0.91651779783787512557E+00
    0.96172064985872485199E+00
    0.92725651507519613048E+00
    0.97573532399733087228E+00
    0.85935703384997919052E+00
    0.83543599960434999918E+00
    0.62963059831544121447E+00
    0.52728758744994286278E+00
    0.45890356727603426323E+00
    0.40117158351367215863E+00
    0.41320290739647652645E+00
    0.39999422335898793257E+00
    0.40000165189669978361E+00
    0.48266012326169221991E+00
    0.58431105070683675429E+00
    0.64755572576722120193E+00
    0.61589917901969482017E+00
    0.68150454181727171399E+00
    0.52784853356289929138E+00
    0.49696262563547494162E+00
    0.40001621934170850103E+00
    0.39995963983554383425E+00
    0.40004986009513893164E+00
    0.39991812405844562317E+00
    0.39989498999666028833E+00
    0.39996773723685213886E+00
    0.40000862211477977715E+00
    0.39991065111001755650E+00
    0.40002038413580248699E+00
    0.39998076212159999754E+00
    0.40002276300702011014E+00
    0.39998785285514043553E+00
    0.39996759339223020291E+00
    0.40000166703854339589E+00
    0.39836905421088530943E+00
    0.14528283835948760383E+00
    0.62582834069337983651E-01
    0.64227750557581522739E-01
    0.42834176340950619322E+00
    0.40308913751265396108E+00
    0.58925856352964822715E+00
    0.55491094804370411087E+00
    0.39997399379306136646E+00
    0.40009352542157688992E+00
    0.39988145566743688031E+00
    0.40006174229736385373E+00
    0.40002256117951517922E+00
    0.39996348384237379037E+00
    0.40000877966140468978E+00
    0.39998182366146611821E+00
    0.40001849201661449085E+00
    0.39997529866375164387E+00
    0.40001042871796210765E+00
    0.39997872706604076232E+00
    0.39997614499485290018E+00
    0.40001699887669928124E+00
    0.39998512986352752208E+00
    0.40000804770959558221E+00
    0.40000785351768275433E+00
    0.39999817439799106866E+00
    0.39998505497930025854E+00
    0.40002096985300911181E+00
    0.18857351620623491462E+00
    0.12693899015170520550E+00
    0.62383012637048811111E-01
    0.25328665154765502704E-01
    0.53077051496345194204E-01
    0.13050653260224408594E-01
    0.62492601098534314441E-01
    0.13080572368212217693E+00
    0.39988337476228208445E+00
    0.40003429758271008554E+00
    0.20699937257721678918E+00
    0.36661275597796738612E+00
    0.13530222964928301232E+00
    0.11359944592494393423E+00
    0.92511704386730875260E+00
    0.85778424902004490882E+00
    0.79349017701930502078E+00
    0.75044521982755230116E+00
    0.77594836228999053418E+00
    0.72666141755510582634E+00
    0.78118794053340046002E+00
    0.85070330661384985227E+00
    0.92071946343120214529E+00
    0.96310080833295907965E+00
    0.93142827835286190474E+00
    0.97635895889727697394E+00
    0.86820612507249861345E+00
    0.84497851382700406297E+00
    0.65872364650358972149E+00
    0.58038690508173207405E+00
    0.51415490521466178375E+00
    0.46480412578648921951E+00
    0.48208242980356846852E+00
    0.42193684813417492441E+00
    0.46813747355322238297E+00
    0.55186073786851586043E+00
    0.63248500748765579260E+00
    0.68410509677189135225E+00
    0.65647568715719994970E+00
    0.70842815144859183629E+00
    0.58456131805708388960E+00
    0.55716436611581066085E+00
    0.92548487897124631640E+00
    0.86225453414735186985E+00
    0.79709352776701514198E+00
    0.75823630827792287690E+00
    0.78476398955351789333E+00
    0.74197341832941132722E+00
    0.79335952502794693242E+00
    0.85703517353453961825E+00
    0.92418844043058789861E+00
    0.96343148088687213804E+00
    0.93433340495465178055E+00
    0.97604666750596591474E+00
    0.87196552994006282233E+00
    0.85011935537865279677E+00
    0.66637308548992046919E+00
    0.59990007526489552703E+00
    0.53205369508379563026E+00
    0.49126929098722360578E+00
    0.51674898848086170400E+00
    0.46918615857152490278E+00
    0.51826338232695778885E+00
    0.58850645904037501843E+00
    0.65987665769109815628E+00
    0.70237974890370535874E+00
    0.67442142890436918012E+00
    0.71841623569345858247E+00
    0.60839469552588165691E+00
    0.58523322284608270127E+00
    0.39999786776597212601E+00
    0.40000544284319117239E+00
    0.37709488723098427698E+00
    0.27868980907477303166E+00
    0.40001089051093147164E+00
    0.35711415365487120255E+00
    0.39999895124194367879E+00
    0.40000638106327734977E+00
    0.39999175697027322673E+00
    0.40000370680716867966E+00
    0.39999775528547132364E+00
    0.42229749418147299878E+00
    0.40000080171118185257E+00
    0.39999230222254833489E+00
    0.18606597476214203901E+00
    0.12691276753116170761E+00
    0.62382927488566587704E-01
    0.25328683119856344741E-01
    0.53076815386942963193E-01
    0.13054861331984980374E-01
    0.62463850055925848603E-01
    0.12259312965154521569E+00
    0.18611558488459667426E+00
    0.22695796299520873407E+00
    0.19600095812923842842E+00
    0.23587473299243269520E+00