# vtk DataFile Version 3.0
LAPLACIEN  2D
ASCII
DATASET UNSTRUCTURED_GRID
 POINTS         481  float
   6.2500000000000000E-002  0.87500000000000000        0.0000000000000000     
  0.12500000000000000       0.87500000000000000        0.0000000000000000     
  0.12500000000000000       0.93750000000000000        0.0000000000000000     
   3.7499999999999999E-002  0.91249999999999998        0.0000000000000000     
   8.1250000000000003E-002  0.91874999999999996        0.0000000000000000     
   8.7499999999999994E-002  0.96250000000000002        0.0000000000000000     
   4.3749999999999997E-002  0.95625000000000004        0.0000000000000000     
  0.18750000000000000       0.87500000000000000        0.0000000000000000     
  0.25000000000000000       0.87500000000000000        0.0000000000000000     
  0.25000000000000000       0.93750000000000000        0.0000000000000000     
  0.16250000000000001       0.91249999999999998        0.0000000000000000     
  0.20624999999999999       0.91874999999999996        0.0000000000000000     
  0.21249999999999999       0.96250000000000002        0.0000000000000000     
  0.16875000000000001       0.95625000000000004        0.0000000000000000     
   6.2500000000000000E-002  0.75000000000000000        0.0000000000000000     
  0.12500000000000000       0.75000000000000000        0.0000000000000000     
  0.12500000000000000       0.81250000000000000        0.0000000000000000     
   3.7499999999999999E-002  0.78749999999999998        0.0000000000000000     
   8.1250000000000003E-002  0.79374999999999996        0.0000000000000000     
   8.7499999999999994E-002  0.83750000000000002        0.0000000000000000     
   4.3749999999999997E-002  0.83125000000000004        0.0000000000000000     
  0.18750000000000000       0.75000000000000000        0.0000000000000000     
  0.25000000000000000       0.75000000000000000        0.0000000000000000     
  0.25000000000000000       0.81250000000000000        0.0000000000000000     
  0.16250000000000001       0.78749999999999998        0.0000000000000000     
  0.20624999999999999       0.79374999999999996        0.0000000000000000     
  0.21249999999999999       0.83750000000000002        0.0000000000000000     
  0.16875000000000001       0.83125000000000004        0.0000000000000000     
  0.31250000000000000       0.87500000000000000        0.0000000000000000     
  0.37500000000000000       0.87500000000000000        0.0000000000000000     
  0.37500000000000000       0.93750000000000000        0.0000000000000000     
  0.28749999999999998       0.91249999999999998        0.0000000000000000     
  0.33124999999999999       0.91874999999999996        0.0000000000000000     
  0.33750000000000002       0.96250000000000002        0.0000000000000000     
  0.29375000000000001       0.95625000000000004        0.0000000000000000     
  0.43750000000000000       0.87500000000000000        0.0000000000000000     
  0.50000000000000000       0.87500000000000000        0.0000000000000000     
  0.50000000000000000       0.93750000000000000        0.0000000000000000     
  0.41249999999999998       0.91249999999999998        0.0000000000000000     
  0.45624999999999999       0.91874999999999996        0.0000000000000000     
  0.46250000000000002       0.96250000000000002        0.0000000000000000     
  0.41875000000000001       0.95625000000000004        0.0000000000000000     
  0.31250000000000000       0.75000000000000000        0.0000000000000000     
  0.37500000000000000       0.75000000000000000        0.0000000000000000     
  0.37500000000000000       0.81250000000000000        0.0000000000000000     
  0.28749999999999998       0.78749999999999998        0.0000000000000000     
  0.33124999999999999       0.79374999999999996        0.0000000000000000     
  0.33750000000000002       0.83750000000000002        0.0000000000000000     
  0.29375000000000001       0.83125000000000004        0.0000000000000000     
  0.43750000000000000       0.75000000000000000        0.0000000000000000     
  0.50000000000000000       0.75000000000000000        0.0000000000000000     
  0.50000000000000000       0.81250000000000000        0.0000000000000000     
  0.41249999999999998       0.78749999999999998        0.0000000000000000     
  0.45624999999999999       0.79374999999999996        0.0000000000000000     
  0.46250000000000002       0.83750000000000002        0.0000000000000000     
  0.41875000000000001       0.83125000000000004        0.0000000000000000     
   6.2500000000000000E-002  0.62500000000000000        0.0000000000000000     
  0.12500000000000000       0.62500000000000000        0.0000000000000000     
  0.12500000000000000       0.68750000000000000        0.0000000000000000     
   3.7499999999999999E-002  0.66249999999999998        0.0000000000000000     
   8.1250000000000003E-002  0.66874999999999996        0.0000000000000000     
   8.7499999999999994E-002  0.71250000000000002        0.0000000000000000     
   4.3749999999999997E-002  0.70625000000000004        0.0000000000000000     
  0.18750000000000000       0.62500000000000000        0.0000000000000000     
  0.25000000000000000       0.62500000000000000        0.0000000000000000     
  0.25000000000000000       0.68750000000000000        0.0000000000000000     
  0.16250000000000001       0.66249999999999998        0.0000000000000000     
  0.20624999999999999       0.66874999999999996        0.0000000000000000     
  0.21249999999999999       0.71250000000000002        0.0000000000000000     
  0.16875000000000001       0.70625000000000004        0.0000000000000000     
   6.2500000000000000E-002  0.50000000000000000        0.0000000000000000     
  0.12500000000000000       0.50000000000000000        0.0000000000000000     
  0.12500000000000000       0.56250000000000000        0.0000000000000000     
   3.7499999999999999E-002  0.53749999999999998        0.0000000000000000     
   8.1250000000000003E-002  0.54374999999999996        0.0000000000000000     
   8.7499999999999994E-002  0.58750000000000002        0.0000000000000000     
   4.3749999999999997E-002  0.58125000000000004        0.0000000000000000     
  0.18750000000000000       0.50000000000000000        0.0000000000000000     
  0.25000000000000000       0.50000000000000000        0.0000000000000000     
  0.25000000000000000       0.56250000000000000        0.0000000000000000     
  0.16250000000000001       0.53749999999999998        0.0000000000000000     
  0.20624999999999999       0.54374999999999996        0.0000000000000000     
  0.21249999999999999       0.58750000000000002        0.0000000000000000     
  0.16875000000000001       0.58125000000000004        0.0000000000000000     
  0.31250000000000000       0.62500000000000000        0.0000000000000000     
  0.37500000000000000       0.62500000000000000        0.0000000000000000     
  0.37500000000000000       0.68750000000000000        0.0000000000000000     
  0.28749999999999998       0.66249999999999998        0.0000000000000000     
  0.33124999999999999       0.66874999999999996        0.0000000000000000     
  0.33750000000000002       0.71250000000000002        0.0000000000000000     
  0.29375000000000001       0.70625000000000004        0.0000000000000000     
  0.43750000000000000       0.62500000000000000        0.0000000000000000     
  0.50000000000000000       0.62500000000000000        0.0000000000000000     
  0.50000000000000000       0.68750000000000000        0.0000000000000000     
  0.41249999999999998       0.66249999999999998        0.0000000000000000     
  0.45624999999999999       0.66874999999999996        0.0000000000000000     
  0.46250000000000002       0.71250000000000002        0.0000000000000000     
  0.41875000000000001       0.70625000000000004        0.0000000000000000     
  0.31250000000000000       0.50000000000000000        0.0000000000000000     
  0.37500000000000000       0.50000000000000000        0.0000000000000000     
  0.37500000000000000       0.56250000000000000        0.0000000000000000     
  0.28749999999999998       0.53749999999999998        0.0000000000000000     
  0.33124999999999999       0.54374999999999996        0.0000000000000000     
  0.33750000000000002       0.58750000000000002        0.0000000000000000     
  0.29375000000000001       0.58125000000000004        0.0000000000000000     
  0.43750000000000000       0.50000000000000000        0.0000000000000000     
  0.50000000000000000       0.50000000000000000        0.0000000000000000     
  0.50000000000000000       0.56250000000000000        0.0000000000000000     
  0.41249999999999998       0.53749999999999998        0.0000000000000000     
  0.45624999999999999       0.54374999999999996        0.0000000000000000     
  0.46250000000000002       0.58750000000000002        0.0000000000000000     
  0.41875000000000001       0.58125000000000004        0.0000000000000000     
  0.56250000000000000       0.87500000000000000        0.0000000000000000     
  0.62500000000000000       0.87500000000000000        0.0000000000000000     
  0.62500000000000000       0.93750000000000000        0.0000000000000000     
  0.53749999999999998       0.91249999999999998        0.0000000000000000     
  0.58125000000000004       0.91874999999999996        0.0000000000000000     
  0.58750000000000002       0.96250000000000002        0.0000000000000000     
  0.54374999999999996       0.95625000000000004        0.0000000000000000     
  0.68750000000000000       0.87500000000000000        0.0000000000000000     
  0.75000000000000000       0.87500000000000000        0.0000000000000000     
  0.75000000000000000       0.93750000000000000        0.0000000000000000     
  0.66249999999999998       0.91249999999999998        0.0000000000000000     
  0.70625000000000004       0.91874999999999996        0.0000000000000000     
  0.71250000000000002       0.96250000000000002        0.0000000000000000     
[...]
 CELL_DATA         896
 SCALARS Endothelial_cells float
 LOOKUP_TABLE default
    0.92264339221243163447E+00
    0.85994525328337567682E+00
    0.79216339432407845145E+00
    0.75368686970147991122E+00
    0.78247711166305589092E+00
    0.74247357829945037633E+00
    0.79517496503880225056E+00
    0.85571080393353149418E+00
    0.92474126279234636350E+00
    0.96217208876141446794E+00
    0.93324266806746891678E+00
    0.97505614483849811780E+00
    0.87061284774123026686E+00
    0.84929334532714007011E+00
    0.65369980015386397465E+00
    0.58798400854575050278E+00
    0.51165841401556255708E+00
    0.47444023400835744209E+00
    0.51058017909163300185E+00
    0.46496740496571359325E+00
    0.52654048263616715086E+00
    0.59046998992149501984E+00
    0.66379944127454404423E+00
    0.70359849608746682925E+00
    0.67094322964074237792E+00
    0.71187874163906483815E+00
    0.60342215777416052802E+00
    0.58192399695248553382E+00
    0.91816754606239903147E+00
    0.85264714310690248311E+00
    0.77822269573037483603E+00
    0.73778262145135053984E+00
    0.77104946359484638485E+00
    0.73140005458540391370E+00
    0.79150314879165006854E+00
    0.85046095461846160646E+00
    0.92406938534053451040E+00
    0.96202920654120771538E+00
    0.93031066800110473469E+00
    0.97494746454940561797E+00
    0.86512678016847766038E+00
    0.84446684814110584139E+00
    0.61542300005341976643E+00
    0.54162129703322525742E+00
    0.44753382712571343482E+00
    0.40925797942248154371E+00
    0.46581362323268632464E+00
    0.42999656568958072311E+00
    0.50557270416403210511E+00
    0.56539503595006290748E+00
    0.65258727741852173843E+00
    0.69047909392417783359E+00
    0.64808641110767362115E+00
    0.68892226357787578195E+00
    0.56872775628615690469E+00
    0.54932085584288292690E+00
    0.40000054272984797432E+00
    0.40000173154387375085E+00
    0.39999699328533949716E+00
    0.28525932835246720076E+00
    0.35557709947826321439E+00
    0.26730208319437315234E+00
    0.36809082941999360372E+00
    0.39999956202393099902E+00
    0.40000018817451854503E+00
    0.42568315101875647821E+00
    0.40000027294919177079E+00
    0.42853669952730427672E+00
    0.39999910214408446185E+00
    0.40000128562848502600E+00
    0.18655728518824291062E+00
    0.12791954547650707941E+00
    0.62927967979852603153E-01
    0.25939449625124191834E-01
    0.53993211690963077709E-01
    0.13777964064818610732E-01
    0.63092345446620845539E-01
    0.12358459388611815755E+00
    0.18645025437669260349E+00
    0.22392998227028104719E+00
    0.19662422591824824103E+00
    0.23708147810596713612E+00
    0.13572012510439515620E+00
    0.11421754951736280692E+00
    0.39999735507164080328E+00
    0.39999188184394135481E+00
    0.40000800595986635289E+00
    0.38254526761412638303E+00
    0.40000475783535444085E+00
    0.27286592516880397996E+00
    0.37138546365766683666E+00
    0.40000058725759829459E+00
    0.39999982534753214525E+00
    0.40000109392718569135E+00
    0.39999649202538090087E+00
    0.40000262692792143415E+00
    0.40000485106293481863E+00
    0.39999744211894328050E+00
    0.18752380606821716924E+00
    0.12793944448609334552E+00
    0.62928135429540427159E-01
    0.25939450661458238190E-01
    0.53993216685273626165E-01
    0.13777877522789567719E-01
    0.63086649555612356322E-01
    0.12358523580445621159E+00
    0.18647906954012993808E+00
    0.22449298262935288295E+00
    0.19722141762170267154E+00
    0.25266398976812687316E+00
    0.13573429944629694655E+00
    0.11421802093393286504E+00
    0.91268068968855742273E+00
    0.83772195046546615860E+00
    0.75342135565430123911E+00
    0.70415463731414040804E+00
    0.74316043807340415039E+00
    0.70071890133689207492E+00
    0.77657883743358924189E+00
    0.83728590363949739750E+00
    0.92106921054604951049E+00
    0.96062492745848937492E+00
    0.92564064875353591066E+00
    0.97350852901453821531E+00
    0.85345155832611252489E+00
    0.83303760057828679653E+00
    0.54651333483899999788E+00
    0.45392662783442211394E+00
    0.39999713378914059092E+00
    0.40000337608093350372E+00
    0.40000102391855874018E+00
    0.39999880688934730255E+00
    0.43536627046686349196E+00
    0.49330601687612640749E+00
    0.61234802070972049748E+00
    0.65392655478597483398E+00
    0.59173665208711112573E+00
    0.64002499646449673154E+00
    0.48871006519365373100E+00
    0.47012229684966522214E+00
    0.91116592464096957116E+00
    0.82398517043055963249E+00
    0.73651107893912615143E+00
    0.67282068068924794080E+00
    0.71036835243486007307E+00
    0.65457337915281288421E+00
    0.75098603882029546508E+00
    0.81957854048384404244E+00
    0.91604638745685940115E+00
    0.95833494565390753284E+00
    0.92107149027171153488E+00
    0.97178145339229382582E+00
    0.84128662155677169654E+00
    0.81940213252840743419E+00
    0.50581415122275430463E+00
    0.40000527876978314579E+00
    0.39999533083472882389E+00
    0.39999928867775891295E+00
    0.40001258024131830515E+00
    0.39999044216853768541E+00
    0.40000416069413796682E+00
    0.40566421738418900755E+00
    0.54415994031575276590E+00
    0.59974327781680292215E+00
    0.52795556448246050429E+00
    0.59722446908003734567E+00
    0.41185932883565340434E+00
    0.39999589383098915762E+00
    0.40000768456681357055E+00
    0.39999674366113779911E+00
    0.40000941209653440023E+00
    0.40002356456117355021E+00
    0.39997721384091283747E+00
    0.40000687203791246427E+00
    0.39998871328561386163E+00
    0.39998302252442835547E+00
    0.40000295585898870687E+00
    0.40000307748611313441E+00
    0.39998534181221667705E+00
    0.39999568380315758676E+00
    0.40001365622200230066E+00
    0.40001198629594558742E+00
    0.40003523819090369695E+00
    0.19316122010226002836E+00
    0.64556323799599635294E-01
    0.25948086546144756570E-01
    0.53996219277451240615E-01
    0.13777262268155895247E-01
    0.63089038527354632246E-01
    0.12384152654073395106E+00
    0.19504343179923652740E+00
    0.35197134590726525394E+00
    0.22433440406013607782E+00
    0.39991527816385258332E+00
    0.13934565390508113492E+00
    0.11440428599969240664E+00
    0.40000912060108378965E+00
    0.39994510347617023838E+00
    0.40000491187765502277E+00
    0.39997144773978410282E+00
    0.40000574737228600242E+00
    0.40000123049989777524E+00
    0.39995330688751595805E+00
    0.40000948428368882093E+00
    0.39998551751899041884E+00
    0.40000610444868789362E+00
    0.39998522789239920883E+00
    0.39998637299723693861E+00
    0.40001031738177861286E+00
    0.39993170841777897495E+00
    0.47465074720824135257E+00
    0.75481690968749604043E+00
    0.68023787452002937304E+00
    0.54909357424380167423E+00
    0.50433596343614361945E+00
    0.15563679333300728391E+00
    0.81445199970834894487E-01
    0.40000068192221721608E+00
    0.39995306066945368606E+00
    0.39996088861269807335E+00
    0.40004418192652729802E+00
    0.40006363691979568431E+00
    0.40551166884858885764E+00
    0.40000780334933710991E+00
    0.27447574458887099192E-04
    0.27466475694948842574E-04
    0.27418673432567218929E-04
    0.27418673204182948477E-04
    0.27466475364975977136E-04
    0.27431425581169858904E-04
    0.27510721896244258575E-04
    0.27466476246373877764E-04
    0.27499326039016743709E-04
    0.10726707561960754174E-03
    0.27487182871221308778E-04
    0.42971810883708061847E-03
    0.27380979976114470020E-04
    0.27380979130780430300E-04
    0.27431424921848736900E-04
    0.27466475366548005911E-04
    0.27418673373348553666E-04
    0.27418673237793043029E-04
    0.27466475283900809127E-04
    0.27431425566907213207E-04
    0.27510722102034355452E-04
    0.27466476225528332558E-04
    0.27498089097914020479E-04
    0.27418673685184481975E-04
    0.27466475439864402946E-04
    0.27431424906712813786E-04
    0.27380980177850884052E-04
    0.27380979893842054821E-04
    0.27447574472740007948E-04
    0.27466475592403080029E-04
    0.27418673377628248618E-04
    0.27418673151230795587E-04
    0.27466475348745321536E-04
    0.27431425064474224872E-04
    0.27431424789687253402E-04
    0.27466475586723690237E-04
    0.27419909832073667224E-04
    0.10726661781963093038E-03
    0.27487182811069399554E-04
    0.42971811594009887885E-03
    0.27380979877224698188E-04
    0.27380979102238133872E-04
    0.27431424984561528268E-04
    0.27466475328394802713E-04
    0.27418673336951581804E-04
    0.27418673204384887908E-04
    0.27466475297233233077E-04
    0.27431424950982363970E-04
    0.27431424869176298007E-04
    0.27466475380937238989E-04
    0.27418673439943866237E-04
    0.27418673181858188977E-04
    0.27466475529246460338E-04
    0.27431424943241387464E-04
    0.27380980182391156832E-04
    0.27380979848802399222E-04
    0.27431424987265464111E-04
    0.27466475331438422485E-04
    0.27418673347578555416E-04
    0.27418673178456403017E-04
    0.27466475249083062432E-04
    0.27431425447499006739E-04
    0.27510721884736045437E-04
    0.27466476284536632107E-04
    0.27498088993957565219E-04
    0.27418673764609799209E-04
    0.27466475342713389854E-04
    0.27431424928678492303E-04
    0.27380980230276856686E-04
    0.27380980189238679598E-04
    0.27431424998397828402E-04
    0.27466475466513218208E-04
    0.27418673820484364844E-04
    0.27498089278590471385E-04
    0.27466476079625087967E-04
    0.27510722501259892656E-04
    0.27510722256004281047E-04
    0.27466476339771338889E-04
    0.27498089071662101140E-04
    0.27418673826532539230E-04
    0.27466475338920860819E-04
    0.27431424903549084742E-04
    0.27380980205743899234E-04
    0.27380980171948345124E-04
    0.27431424980894089058E-04
    0.27466475290039267060E-04
    0.27418673358194121188E-04
    0.27418673202085671182E-04
    0.27466475274295170902E-04
    0.27431424901085391159E-04
    0.27431424860789106512E-04
    0.27466475353595571105E-04
    0.27418673504040079247E-04
    0.27418673212624095970E-04
    0.27466475321361061448E-04
    0.27431424939192610633E-04
    0.27380980279123342625E-04
    0.27380980175106378718E-04
    0.27431425034312835129E-04
    0.27466475385667846849E-04
    0.27418673877975052402E-04
    0.27498089278717258665E-04
    0.27466476084173099240E-04
    0.27510722084988383206E-04
    0.27431425269313845750E-04
    0.27466475354439415821E-04
    0.27418673545445556926E-04
    0.27418673115902088126E-04
    0.27466475314401106916E-04
    0.27431424954283525804E-04
    0.27380980237085415937E-04
    0.27380980231777284073E-04
    0.27448622198452081314E-04
    0.27466855627512618888E-04
    0.27418777118055155575E-04
    0.27418677516592058162E-04
    0.27466475648088537089E-04
    0.27431425069407747944E-04
    0.27431424828909944117E-04
    0.27466475915685516820E-04
    0.27419909714451578804E-04
    0.10725897923988423016E-03
    0.27487018122656962872E-04
    0.42761559943431821365E-03
    0.27381095197517035404E-04
    0.27380992339048195681E-04
    0.27431425025116168128E-04
    0.27466475372351404716E-04
    0.27418673323040237939E-04
    0.27418673182510475497E-04
    0.27466475228780770277E-04
    0.27431424928432771433E-04
    0.27431424873425791153E-04
    0.27466475398483882245E-04
    0.27418673452032225793E-04
    0.27418673159929939152E-04
    0.27466475490210540388E-04
    0.27431424908026934582E-04
    0.27380980050825201870E-04
    0.27380979983125182153E-04
    0.14527645274713344575E-01
    0.42479067943788369850E-04
    0.27419024698639756356E-04
    0.27418807979389561675E-04
    0.27466887641724812798E-04
    0.27431527047810642960E-04
    0.27431722769276983359E-04
    0.27467373428926449458E-04
    0.27866647278575313159E-04
    0.30145486216779115475E-02
    0.17391952891930188146E-01
    0.40102702323435862608E+00
    0.48403614695081487781E-04
    0.27382411184206295401E-04
    0.27431425574460446555E-04
    0.27466475302300644954E-04
    0.27418673327891592039E-04
    0.27418673250067753221E-04
    0.27466475167936648787E-04
    0.27431424902108508704E-04
    0.27431424844334519118E-04
    0.27466475369536023053E-04
    0.27418673567570226915E-04
    0.27418679107749771833E-04
    0.27466475890212339243E-04
    0.27431457990485571944E-04
    0.27380980156059098012E-04
    0.27380979901907644846E-04
    0.27431424983083591300E-04
    0.27466475320597688250E-04
    0.27418673377270800715E-04
    0.27418673155385841171E-04
    0.27466475278973452454E-04
    0.27431424927428305554E-04
    0.27431424884560313683E-04
    0.27466475342466821952E-04
    0.27418673522140258534E-04
    0.27418673242064799589E-04
    0.27466475291138722602E-04
    0.27431424963317816590E-04
    0.27380980207709229124E-04
    0.27380980144005886935E-04
    0.27431425031912377637E-04
    0.27466475412413403437E-04
    0.27418673857248254439E-04
    0.27498089263009219005E-04
    0.27466476124607579006E-04
    0.27510722112838982366E-04
    0.27431425280126444939E-04
    0.27466475374228829526E-04
    0.27418673510847798241E-04
    0.27418673139192041669E-04
    0.27466475269334451295E-04
    0.27431424950712085921E-04
    0.27380980250748291157E-04
    0.27380980243792077123E-04
    0.27431424972647701544E-04
    0.27466475333354370354E-04
    0.27418673380840702386E-04
    0.27418673203148843221E-04
    0.27466475171958374774E-04
    0.27431424891603972010E-04
    0.27431424837528128272E-04
    0.27466475322709419315E-04
    0.27418673585450916249E-04
    0.27418673290925729132E-04
    0.27466475388393066936E-04
    0.27431424950977634138E-04
    0.27380980145725468850E-04
    0.27380980171822662375E-04
    0.27431425023976986741E-04
    0.27466475425442399858E-04
    0.27418673834332462453E-04
    0.27498089324333062686E-04
    0.27466476117161752824E-04
    0.27510722106355744754E-04
    0.27431425276265882217E-04
    0.27466475340065785090E-04
    0.27418673505921010774E-04
    0.27418673172088158598E-04
    0.27466475295439451076E-04
    0.27431424956855802235E-04
    0.27380980266018496098E-04
    0.27380980241376169751E-04
    0.91620243920872779242E+00
    0.82838033780452402510E+00
    0.75040862410496711465E+00
    0.68461418563991249808E+00
    0.71136514975451703435E+00
    0.64124113002542271200E+00
    0.73597589391538731363E+00
    0.81538327282593003886E+00
    0.91195198207052430295E+00
    0.95772745561508343393E+00
    0.92086853845162386367E+00
    0.97227051961087995746E+00
    0.84264375230125554417E+00
    0.81780932539678230508E+00
    0.54677856550130987667E+00
    0.41677782786422418182E+00
    0.39999455835381214630E+00
    0.40000582209966950575E+00
    0.40000962959096525440E+00
    0.39999261624097320889E+00
    0.39999791626775793585E+00
    0.40000164557382011932E+00
    0.50943546318883714541E+00
    0.58259686984636005480E+00
    0.53031481152149073655E+00
    0.61642681480715599829E+00
    0.41768716505775138614E+00
    0.39999789592644829916E+00
    0.92118226125646895941E+00
    0.84397173901608268931E+00
    0.77584760399557395338E+00
    0.72212058575300241969E+00
    0.74509699900433457032E+00
    0.68046133287891397146E+00
    0.75189841671651747035E+00
    0.83147566011149531828E+00
    0.91424708089827266821E+00
    0.95985265435546451851E+00
    0.92501435909123508328E+00
    0.97429559881390426224E+00
    0.85591798350429149078E+00
    0.83061437725600506532E+00
    0.61530906214646530206E+00
    0.50419605727420480079E+00
    0.43274479826480655165E+00
    0.40000273610695458171E+00
    0.39999639398132158519E+00
    0.40000280739197796587E+00
    0.40000088632283503642E+00
    0.44795713598614500528E+00
    0.55492095421075005035E+00
    0.62691270670901055873E+00
    0.59519726419599083833E+00
    0.66974107469192567521E+00
    0.50027565577033916711E+00
    0.46378321747723688651E+00
    0.40000340576832749129E+00
    0.39996201212404219882E+00
    0.39995745318532888168E+00
    0.40003405132152775048E+00
    0.39995678807012025047E+00
    0.40004550901867730328E+00
    0.39994623650573440932E+00
    0.40003321344605791143E+00
    0.39996605377986360619E+00
    0.40001795574998466609E+00
    0.40000402441652693764E+00
    0.39999882385882429281E+00
    0.39994102830716027341E+00
    0.40003729164996781886E+00
    0.40002927464926613110E+00
    0.27981907580559012283E+00
    0.66894490617664462140E-01
    0.13350234828037821355E+00
    0.51293735773301663006E+00
    0.47978434742023740034E+00
    0.67284490106608385585E+00
    0.75437470246224980208E+00
    0.49760704100691094398E+00
    0.39995150930802908507E+00
    0.40001215762081082650E+00
    0.39992330446735430138E+00
    0.39996349133155062461E+00
    0.40002019021782597719E+00
    0.39999417474112480830E+00
    0.40000925876121568026E+00
    0.39999004043553898491E+00
    0.40000842929443386486E+00
    0.39997861707453874480E+00
    0.39998536489482328093E+00
    0.40003026563300864149E+00
    0.39997108434840294988E+00
    0.40001572067145518830E+00
    0.39998968917827099068E+00
    0.40000538827787629481E+00
    0.39999229177753120590E+00
    0.39999793386692167330E+00
    0.40000872756563571331E+00
    0.19680848824633109806E+00
    0.12825246470672474475E+00
    0.62931092638604926859E-01
    0.25939181948584032894E-01
    0.54009577580773758532E-01
    0.13772725538215091837E-01
    0.63983417020976943168E-01
    0.17719357404179708615E+00
    0.39990335580698316287E+00
    0.40000401378942324060E+00
    0.24623601809200151846E+00
    0.39997225141933345771E+00
    0.13717073783985933577E+00
    0.11556364454677758857E+00
    0.92404058616525708292E+00
    0.85582753405953759795E+00
    0.79123566979267101473E+00
    0.74724303645838863197E+00
    0.77224795824358061225E+00
    0.72092324343943359199E+00
    0.77694644588572581156E+00
    0.84762734286362062530E+00
    0.91948849682546174300E+00
    0.96163792167131512123E+00
    0.92997717004049618161E+00
    0.97513368914594400483E+00
    0.86653247583627124317E+00
    0.84304390708334031590E+00
    0.65379584631960485641E+00
    0.57254161467737219038E+00
    0.50479085369898613056E+00
    0.44918821895961352775E+00
    0.46701927174338203619E+00
    0.40000076829544339851E+00
    0.44495105810368501542E+00
    0.53651635747082471184E+00
    0.62116074834496159962E+00
    0.67625643090809073321E+00
    0.64914196418308633962E+00
    0.70424246255221556456E+00
    0.57496703568154783337E+00
    0.54497362248108571769E+00
    0.92451798466302159696E+00
    0.86065068987842585635E+00
    0.79552532547646215288E+00
    0.75635436411891132646E+00
    0.78289872013878292201E+00
    0.73954908173302014163E+00
    0.79151920999410640967E+00
    0.85522168550143295995E+00
    0.92336994524862892053E+00
    0.96218139790477164031E+00
    0.93311603960659317281E+00
    0.97492073114689137281E+00
    0.87096561758370316664E+00
    0.84907325441599468263E+00
    0.66332532191296200708E+00
    0.59588862883779170065E+00
    0.52679680631639547173E+00
    0.48502292118661144427E+00
    0.51089087544440892064E+00
    0.45454000477480738240E+00
    0.51032626942135239645E+00
    0.58324013657505280328E+00
    0.65609391181714649122E+00
    0.69941494967961459484E+00
    0.67123572170233691825E+00
    0.71630870759039944051E+00
    0.60488833621117588102E+00
    0.58098843152254209254E+00
    0.39999957699969701519E+00
    0.40000058450644959684E+00
    0.39247433018826832773E+00
    0.28768564492699205681E+00
    0.39999685181954913737E+00
    0.37978111318227425475E+00
    0.40000868059948146982E+00
    0.39999256727274040690E+00
    0.40000131233446695189E+00
    0.39999965840651952043E+00
    0.40000127267028245948E+00
    0.40776042195352829589E+00
    0.39999805769742224903E+00
    0.40000263677148462094E+00
    0.18657215943903873723E+00
    0.12792007397494603582E+00
    0.62927971911335728317E-01
    0.25939449648895981926E-01
    0.53993219168731454438E-01
    0.13777878599951822944E-01
    0.63086890831327666063E-01
    0.12361032673730998344E+00
    0.18755335170563411373E+00
    0.23791837463689374799E+00
    0.19717145788055051581E+00
    0.23751997741920730101E+00