# vtk DataFile Version 3.0
LAPLACIEN  2D
ASCII
DATASET UNSTRUCTURED_GRID
 POINTS         481  float
   6.2500000000000000E-002  0.87500000000000000        0.0000000000000000     
  0.12500000000000000       0.87500000000000000        0.0000000000000000     
  0.12500000000000000       0.93750000000000000        0.0000000000000000     
   3.7499999999999999E-002  0.91249999999999998        0.0000000000000000     
   8.1250000000000003E-002  0.91874999999999996        0.0000000000000000     
   8.7499999999999994E-002  0.96250000000000002        0.0000000000000000     
   4.3749999999999997E-002  0.95625000000000004        0.0000000000000000     
  0.18750000000000000       0.87500000000000000        0.0000000000000000     
  0.25000000000000000       0.87500000000000000        0.0000000000000000     
  0.25000000000000000       0.93750000000000000        0.0000000000000000     
  0.16250000000000001       0.91249999999999998        0.0000000000000000     
  0.20624999999999999       0.91874999999999996        0.0000000000000000     
  0.21249999999999999       0.96250000000000002        0.0000000000000000     
  0.16875000000000001       0.95625000000000004        0.0000000000000000     
   6.2500000000000000E-002  0.75000000000000000        0.0000000000000000     
  0.12500000000000000       0.75000000000000000        0.0000000000000000     
  0.12500000000000000       0.81250000000000000        0.0000000000000000     
   3.7499999999999999E-002  0.78749999999999998        0.0000000000000000     
   8.1250000000000003E-002  0.79374999999999996        0.0000000000000000     
   8.7499999999999994E-002  0.83750000000000002        0.0000000000000000     
   4.3749999999999997E-002  0.83125000000000004        0.0000000000000000     
  0.18750000000000000       0.75000000000000000        0.0000000000000000     
  0.25000000000000000       0.75000000000000000        0.0000000000000000     
  0.25000000000000000       0.81250000000000000        0.0000000000000000     
  0.16250000000000001       0.78749999999999998        0.0000000000000000     
  0.20624999999999999       0.79374999999999996        0.0000000000000000     
  0.21249999999999999       0.83750000000000002        0.0000000000000000     
  0.16875000000000001       0.83125000000000004        0.0000000000000000     
  0.31250000000000000       0.87500000000000000        0.0000000000000000     
  0.37500000000000000       0.87500000000000000        0.0000000000000000     
  0.37500000000000000       0.93750000000000000        0.0000000000000000     
  0.28749999999999998       0.91249999999999998        0.0000000000000000     
  0.33124999999999999       0.91874999999999996        0.0000000000000000     
  0.33750000000000002       0.96250000000000002        0.0000000000000000     
  0.29375000000000001       0.95625000000000004        0.0000000000000000     
  0.43750000000000000       0.87500000000000000        0.0000000000000000     
  0.50000000000000000       0.87500000000000000        0.0000000000000000     
  0.50000000000000000       0.93750000000000000        0.0000000000000000     
  0.41249999999999998       0.91249999999999998        0.0000000000000000     
  0.45624999999999999       0.91874999999999996        0.0000000000000000     
  0.46250000000000002       0.96250000000000002        0.0000000000000000     
  0.41875000000000001       0.95625000000000004        0.0000000000000000     
  0.31250000000000000       0.75000000000000000        0.0000000000000000     
  0.37500000000000000       0.75000000000000000        0.0000000000000000     
  0.37500000000000000       0.81250000000000000        0.0000000000000000     
  0.28749999999999998       0.78749999999999998        0.0000000000000000     
  0.33124999999999999       0.79374999999999996        0.0000000000000000     
  0.33750000000000002       0.83750000000000002        0.0000000000000000     
  0.29375000000000001       0.83125000000000004        0.0000000000000000     
  0.43750000000000000       0.75000000000000000        0.0000000000000000     
  0.50000000000000000       0.75000000000000000        0.0000000000000000     
  0.50000000000000000       0.81250000000000000        0.0000000000000000     
  0.41249999999999998       0.78749999999999998        0.0000000000000000     
  0.45624999999999999       0.79374999999999996        0.0000000000000000     
  0.46250000000000002       0.83750000000000002        0.0000000000000000     
  0.41875000000000001       0.83125000000000004        0.0000000000000000     
   6.2500000000000000E-002  0.62500000000000000        0.0000000000000000     
  0.12500000000000000       0.62500000000000000        0.0000000000000000     
  0.12500000000000000       0.68750000000000000        0.0000000000000000     
   3.7499999999999999E-002  0.66249999999999998        0.0000000000000000     
   8.1250000000000003E-002  0.66874999999999996        0.0000000000000000     
   8.7499999999999994E-002  0.71250000000000002        0.0000000000000000     
   4.3749999999999997E-002  0.70625000000000004        0.0000000000000000     
  0.18750000000000000       0.62500000000000000        0.0000000000000000     
  0.25000000000000000       0.62500000000000000        0.0000000000000000     
  0.25000000000000000       0.68750000000000000        0.0000000000000000     
  0.16250000000000001       0.66249999999999998        0.0000000000000000     
  0.20624999999999999       0.66874999999999996        0.0000000000000000     
  0.21249999999999999       0.71250000000000002        0.0000000000000000     
  0.16875000000000001       0.70625000000000004        0.0000000000000000     
   6.2500000000000000E-002  0.50000000000000000        0.0000000000000000     
  0.12500000000000000       0.50000000000000000        0.0000000000000000     
  0.12500000000000000       0.56250000000000000        0.0000000000000000     
   3.7499999999999999E-002  0.53749999999999998        0.0000000000000000     
   8.1250000000000003E-002  0.54374999999999996        0.0000000000000000     
   8.7499999999999994E-002  0.58750000000000002        0.0000000000000000     
   4.3749999999999997E-002  0.58125000000000004        0.0000000000000000     
  0.18750000000000000       0.50000000000000000        0.0000000000000000     
  0.25000000000000000       0.50000000000000000        0.0000000000000000     
  0.25000000000000000       0.56250000000000000        0.0000000000000000     
  0.16250000000000001       0.53749999999999998        0.0000000000000000     
  0.20624999999999999       0.54374999999999996        0.0000000000000000     
  0.21249999999999999       0.58750000000000002        0.0000000000000000     
  0.16875000000000001       0.58125000000000004        0.0000000000000000     
  0.31250000000000000       0.62500000000000000        0.0000000000000000     
  0.37500000000000000       0.62500000000000000        0.0000000000000000     
  0.37500000000000000       0.68750000000000000        0.0000000000000000     
  0.28749999999999998       0.66249999999999998        0.0000000000000000     
  0.33124999999999999       0.66874999999999996        0.0000000000000000     
  0.33750000000000002       0.71250000000000002        0.0000000000000000     
  0.29375000000000001       0.70625000000000004        0.0000000000000000     
  0.43750000000000000       0.62500000000000000        0.0000000000000000     
  0.50000000000000000       0.62500000000000000        0.0000000000000000     
  0.50000000000000000       0.68750000000000000        0.0000000000000000     
  0.41249999999999998       0.66249999999999998        0.0000000000000000     
  0.45624999999999999       0.66874999999999996        0.0000000000000000     
  0.46250000000000002       0.71250000000000002        0.0000000000000000     
  0.41875000000000001       0.70625000000000004        0.0000000000000000     
  0.31250000000000000       0.50000000000000000        0.0000000000000000     
  0.37500000000000000       0.50000000000000000        0.0000000000000000     
  0.37500000000000000       0.56250000000000000        0.0000000000000000     
  0.28749999999999998       0.53749999999999998        0.0000000000000000     
  0.33124999999999999       0.54374999999999996        0.0000000000000000     
  0.33750000000000002       0.58750000000000002        0.0000000000000000     
  0.29375000000000001       0.58125000000000004        0.0000000000000000     
  0.43750000000000000       0.50000000000000000        0.0000000000000000     
  0.50000000000000000       0.50000000000000000        0.0000000000000000     
  0.50000000000000000       0.56250000000000000        0.0000000000000000     
  0.41249999999999998       0.53749999999999998        0.0000000000000000     
  0.45624999999999999       0.54374999999999996        0.0000000000000000     
  0.46250000000000002       0.58750000000000002        0.0000000000000000     
  0.41875000000000001       0.58125000000000004        0.0000000000000000     
  0.56250000000000000       0.87500000000000000        0.0000000000000000     
  0.62500000000000000       0.87500000000000000        0.0000000000000000     
  0.62500000000000000       0.93750000000000000        0.0000000000000000     
  0.53749999999999998       0.91249999999999998        0.0000000000000000     
  0.58125000000000004       0.91874999999999996        0.0000000000000000     
  0.58750000000000002       0.96250000000000002        0.0000000000000000     
  0.54374999999999996       0.95625000000000004        0.0000000000000000     
  0.68750000000000000       0.87500000000000000        0.0000000000000000     
  0.75000000000000000       0.87500000000000000        0.0000000000000000     
  0.75000000000000000       0.93750000000000000        0.0000000000000000     
  0.66249999999999998       0.91249999999999998        0.0000000000000000     
  0.70625000000000004       0.91874999999999996        0.0000000000000000     
  0.71250000000000002       0.96250000000000002        0.0000000000000000     
[...]
 CELL_DATA         896
 SCALARS Endothelial_cells float
 LOOKUP_TABLE default
    0.92498192441224513782E+00
    0.86453410628487714629E+00
    0.79767822036138091857E+00
    0.76076699877084685841E+00
    0.78827080291196771622E+00
    0.74869931550733515024E+00
    0.79992001735995910128E+00
    0.85983508936047847726E+00
    0.92662798935897738861E+00
    0.96432110679626048544E+00
    0.93581232987754814356E+00
    0.97718238828228420889E+00
    0.87332457463025459088E+00
    0.85241548497747043900E+00
    0.66778969704929080908E+00
    0.60693576909381707907E+00
    0.53828622834634276551E+00
    0.50219699243098936403E+00
    0.53207452845116709472E+00
    0.49328418127800149895E+00
    0.54461038852704724000E+00
    0.60488567388243785761E+00
    0.67308753558362588443E+00
    0.71084518915965211328E+00
    0.68163396319177427252E+00
    0.72125559148286366717E+00
    0.61741056432327712233E+00
    0.59698680663309711125E+00
    0.92214790458529416473E+00
    0.86094462866530763190E+00
    0.79067293371616853559E+00
    0.75377756916076332772E+00
    0.78254134520574525347E+00
    0.74310297880524622816E+00
    0.79834454407372090756E+00
    0.85647610987492406309E+00
    0.92632744413671874728E+00
    0.96449331099435808845E+00
    0.93389204255456426118E+00
    0.97743112589729030937E+00
    0.87008844990790989993E+00
    0.85029085987047692274E+00
    0.65163013910391942574E+00
    0.58817950604391544545E+00
    0.51200141366581486402E+00
    0.47762102947830725741E+00
    0.51371076562859530057E+00
    0.47900177646375557972E+00
    0.53669085820970885425E+00
    0.59379423605914838369E+00
    0.66877271056510745328E+00
    0.70510739266977695561E+00
    0.67209827878046901617E+00
    0.71130492580979753914E+00
    0.60264647040243046749E+00
    0.58474332854939869986E+00
    0.40953458095576183995E+00
    0.40000843436435595812E+00
    0.32896853145885524006E+00
    0.27242283566362163194E+00
    0.29991065379233122767E+00
    0.26003531340693974983E+00
    0.31931221321677932812E+00
    0.39999981723900640551E+00
    0.41790660319259803623E+00
    0.45521951194503790239E+00
    0.42544397522149501878E+00
    0.46308870878754754274E+00
    0.39999814689216162122E+00
    0.37919635953236546788E+00
    0.18574665809131149508E+00
    0.12619109463265570925E+00
    0.62016300493166920393E-01
    0.24912021585245990030E-01
    0.52440275953352093186E-01
    0.12564807051625400888E-01
    0.62039819591776797225E-01
    0.12188193537229585761E+00
    0.18573348837158745739E+00
    0.22285081627063144105E+00
    0.19549131959160373495E+00
    0.23526441979158710383E+00
    0.13472844356360402784E+00
    0.11309747898363083085E+00
    0.39999093236411820129E+00
    0.40004267288757133780E+00
    0.39998472574387694545E+00
    0.27503862164407527624E+00
    0.37700804087563066780E+00
    0.26038352048466334443E+00
    0.32159521848432748303E+00
    0.39999527562834130689E+00
    0.40473039729636040018E+00
    0.44005562060867653429E+00
    0.40359645281595168953E+00
    0.43567980364931696569E+00
    0.39998344597286550339E+00
    0.40002623489753830199E+00
    0.18574669921382674920E+00
    0.12619109471321948712E+00
    0.62016300493193191046E-01
    0.24912021585312981581E-01
    0.52440275953269090137E-01
    0.12564806405286501820E-01
    0.62039697671444724025E-01
    0.12188193509212232046E+00
    0.18573362399569909309E+00
    0.22285284191828888534E+00
    0.19549136957028975803E+00
    0.23528142712098043532E+00
    0.13472844366868105825E+00
    0.11309747898211552908E+00
    0.91952956537370866830E+00
    0.85378874512637703553E+00
    0.78004319621493434234E+00
    0.74032617514454690522E+00
    0.76952205134789597452E+00
    0.72955869958951558019E+00
    0.79191622150927987178E+00
    0.84926268897940893066E+00
    0.92500316730826370737E+00
    0.96380781141726501460E+00
    0.93153201617256831124E+00
    0.97675282822650022485E+00
    0.86393051787363106531E+00
    0.84557438535094486820E+00
    0.62465105059990000402E+00
    0.54896425591903175167E+00
    0.46454893662154367329E+00
    0.42849464105178397544E+00
    0.47032426515072728312E+00
    0.43940816449166153479E+00
    0.50737879636931226823E+00
    0.56242359863579549639E+00
    0.65357891882933782934E+00
    0.69028166899480414287E+00
    0.64981856652311198452E+00
    0.69144312976411137495E+00
    0.56854245777833145592E+00
    0.55392790013138648586E+00
    0.91973574913469113845E+00
    0.84709056564089169061E+00
    0.77400062291154347882E+00
    0.72846242016506157491E+00
    0.75623119514867198632E+00
    0.71080631491975487801E+00
    0.78126001884009910192E+00
    0.84116974970022884150E+00
    0.92281250932355318728E+00
    0.96249680362710909876E+00
    0.92983714871484313136E+00
    0.97554558016632364481E+00
    0.85833411586816532601E+00
    0.84026035346156047190E+00
    0.60978961841739287575E+00
    0.51515999615413043955E+00
    0.43446838143219679296E+00
    0.40002306352325256444E+00
    0.42618795795975356056E+00
    0.40002461969486813320E+00
    0.45902821510084029777E+00
    0.51797691318800187510E+00
    0.62753891690341379039E+00
    0.66981805039246600231E+00
    0.62413022711901544604E+00
    0.67492951053575522824E+00
    0.53218290980744820118E+00
    0.51696588679705957059E+00
    0.40007630641871211319E+00
    0.39991527322198222594E+00
    0.40009984478385368645E+00
    0.39996184973969395315E+00
    0.39993946990764039917E+00
    0.28181114030895976219E+00
    0.40004042242507525939E+00
    0.39999362283098799375E+00
    0.40001429865310439427E+00
    0.40002075388346203244E+00
    0.39997868419216181524E+00
    0.39998077805511866867E+00
    0.40001620934633375093E+00
    0.40001880785164350973E+00
    0.18789921269657433589E+00
    0.12619485625695139874E+00
    0.62016252630259900702E-01
    0.24911838066809223469E-01
    0.52440276568521876355E-01
    0.12564806402869579255E-01
    0.62039697670171450872E-01
    0.12188193527981878994E+00
    0.18573370394541433015E+00
    0.22289519700451515538E+00
    0.19614143838438255485E+00
    0.40010956056077690013E+00
    0.13472980345982357719E+00
    0.11309748283652169831E+00
    0.40000638696906337666E+00
    0.39994578299624605755E+00
    0.40018983924641537975E+00
    0.39977316925401035208E+00
    0.39972840564505529581E+00
    0.40033775366497986736E+00
    0.39987470571950961551E+00
    0.39999006430965228231E+00
    0.39999547717303968186E+00
    0.39999814060896876633E+00
    0.40000707951583441835E+00
    0.39999330164240687324E+00
    0.39996951193783936152E+00
    0.40009142197319441658E+00
    0.39983437080441386335E+00
    0.40035925829579854796E+00
    0.39998595142538545533E+00
    0.27949073548620062546E+00
    0.53377840956423124041E-01
    0.12558275528667258228E-01
    0.62037405911131555947E-01
    0.12303999276699834065E+00
    0.29631876021648090314E+00
    0.39977307639108294879E+00
    0.40009920766515899571E+00
    0.40002081083975399300E+00
    0.39972216818096728552E+00
    0.35233261052356967813E+00
    0.38754921508729708963E-05
    0.38804615323066531967E-05
    0.38736299151274816889E-05
    0.38736298901864881368E-05
    0.38804615403344367534E-05
    0.38754525313711226818E-05
    0.38867839600582242428E-05
    0.38804615324180541228E-05
    0.38849817555889886589E-05
    0.13811615347508960830E-04
    0.38805121435679153179E-05
    0.56825660469755525500E-04
    0.38682402994471531865E-05
    0.38682402783045086327E-05
    0.38754524984525593801E-05
    0.38804615483380612364E-05
    0.38736298870585970564E-05
    0.38736298813255722905E-05
    0.38804615639162210990E-05
    0.38754525102965846592E-05
    0.38867839469963790379E-05
    0.38804615313644764266E-05
    0.38849785991107673960E-05
    0.38736298729735555330E-05
    0.38804615361171300127E-05
    0.38754524820961498807E-05
    0.38682402976160483725E-05
    0.38682402769320653834E-05
    0.38754921641601658286E-05
    0.38804615236209927023E-05
    0.38736299076295460398E-05
    0.38736298739749797166E-05
    0.38804615378360664886E-05
    0.38754525027187788853E-05
    0.38754525112634143232E-05
    0.38804615367174917192E-05
    0.38736327815730583088E-05
    0.13811594951391719741E-04
    0.38805121574227197337E-05
    0.56825660465053083180E-04
    0.38682402885379659841E-05
    0.38682402587011575722E-05
    0.38754525116454050066E-05
    0.38804615547063437721E-05
    0.38736298801087874389E-05
    0.38736298780118455696E-05
    0.38804615532378325870E-05
    0.38754525099793801378E-05
    0.38754525092777734302E-05
    0.38804615518323423473E-05
    0.38736298947292825340E-05
    0.38736298684942183031E-05
    0.38804615326959918909E-05
    0.38754524831067008444E-05
    0.38682402879546287929E-05
    0.38682402769522933772E-05
    0.38754524942468832489E-05
    0.38804615579220433700E-05
    0.38736298774781462032E-05
    0.38736298884368933033E-05
    0.38804615678564176228E-05
    0.38754525037969019024E-05
    0.38867839690969797385E-05
    0.38804615476591541648E-05
    0.38849785952417462037E-05
    0.38736298623984965702E-05
    0.38804615301133079666E-05
    0.38754525004667368131E-05
    0.38682403121215850031E-05
    0.38682402874746779021E-05
    0.38754525108999431682E-05
    0.38804615596204088037E-05
    0.38736298471231230342E-05
    0.38849787246863520422E-05
    0.38804615487103660980E-05
    0.38867839513282503728E-05
    0.38867839673270391737E-05
    0.38804615566003636522E-05
    0.38849785980506506053E-05
    0.38736298708015055582E-05
    0.38804615558511570812E-05
    0.38754524907779157176E-05
    0.38682403102039506913E-05
    0.38682402731548667978E-05
    0.38754524963296432455E-05
    0.38804615445833911860E-05
    0.38736298824649866116E-05
    0.38736298838038882032E-05
    0.38804615703633234386E-05
    0.38754524949592515100E-05
    0.38754525149878088749E-05
    0.38804615537706069935E-05
    0.38736298931858097801E-05
    0.38736298776891488866E-05
    0.38804615375076116757E-05
    0.38754524884793808539E-05
    0.38682403167058128639E-05
    0.38682402790474149727E-05
    0.38754525073071800775E-05
    0.38804615596522835005E-05
    0.38736298472066828344E-05
    0.38849787262690991727E-05
    0.38804615467702760958E-05
    0.38867839337525072997E-05
    0.38754525062636625916E-05
    0.38804615521197618021E-05
    0.38736299027857025806E-05
    0.38736298695004163644E-05
    0.38804615587409895517E-05
    0.38754524904542661225E-05
    0.38682403133824198031E-05
    0.38682402759582892022E-05
    0.38755224428219568362E-05
    0.38804618066616717450E-05
    0.38736298735303399354E-05
    0.38736298875061387725E-05
    0.38804615334754205975E-05
    0.38754525008937701675E-05
    0.38754525099805685250E-05
    0.38804615323641099826E-05
    0.38736327605382046268E-05
    0.13811594985368420317E-04
    0.38805121253917029651E-05
    0.56824491780909774106E-04
    0.38682402873225397733E-05
    0.38682402592933318582E-05
    0.38754525132676069318E-05
    0.38804615410156621542E-05
    0.38736298824495020023E-05
    0.38736298798214975801E-05
    0.38804615571822735929E-05
    0.38754525198953127893E-05
    0.38754525112129608057E-05
    0.38804615546518566837E-05
    0.38736298910795056557E-05
    0.38736298793699832795E-05
    0.38804615318786474484E-05
    0.38754524928686844107E-05
    0.38682403024858271335E-05
    0.38682402778823711287E-05
    0.38781582899657947820E-05
    0.38810793439313518159E-05
    0.38738515673083450294E-05
    0.38736676524844738779E-05
    0.38805101695263974018E-05
    0.38754536715660896612E-05
    0.38754539854977528173E-05
    0.38805213194532967651E-05
    0.38738533087248627502E-05
    0.13431512970988075261E-04
    0.38823944219546818038E-05
    0.68102280373386070173E-03
    0.38688374195555837539E-05
    0.38685244225745926027E-05
    0.38754525237728119344E-05
    0.38804615611469264990E-05
    0.38736298722372721436E-05
    0.38736298849345391214E-05
    0.38804615463578667653E-05
    0.38754525224458458840E-05
    0.38754525083252120362E-05
    0.38804615364487781399E-05
    0.38736298870790859364E-05
    0.38736298644359979025E-05
    0.38804615748009553073E-05
    0.38754550209781005917E-05
    0.38682402989743529479E-05
    0.38682402786870100770E-05
    0.38754524878899602720E-05
    0.38804615552894632758E-05
    0.38736298667087440010E-05
    0.38736298814205196017E-05
    0.38804615659200977643E-05
    0.38754524964373951538E-05
    0.38754525154024484432E-05
    0.38804615513006004740E-05
    0.38736298984793159260E-05
    0.38736298767749970486E-05
    0.38804615343462839697E-05
    0.38754524881912210923E-05
    0.38682403124688498767E-05
    0.38682402669935465984E-05
    0.38754524992302796213E-05
    0.38804615610191532730E-05
    0.38736298415717461779E-05
    0.38849787289723192735E-05
    0.38804615496058916815E-05
    0.38867839328100577850E-05
    0.38754525049767781403E-05
    0.38804615619844633599E-05
    0.38736299067911045477E-05
    0.38736298675756754463E-05
    0.38804615534162422897E-05
    0.38754524899213714374E-05
    0.38682403064646170195E-05
    0.38682402736928182696E-05
    0.38754524932206393058E-05
    0.38804615572946892646E-05
    0.38736298839228065468E-05
    0.38736298923566517692E-05
    0.38804615699304176047E-05
    0.38754525025281812256E-05
    0.38754525091550442854E-05
    0.38804615524045698544E-05
    0.38736298960591352726E-05
    0.38736298825870288127E-05
    0.38804615518323508176E-05
    0.38754524998682877071E-05
    0.38682403179952638250E-05
    0.38682402786554572526E-05
    0.38754524975392308582E-05
    0.38804615575321922208E-05
    0.38736298440796201523E-05
    0.38849787298085610210E-05
    0.38804615502134091223E-05
    0.38867839341860069036E-05
    0.38754525071969717737E-05
    0.38804615515892379622E-05
    0.38736298978228289694E-05
    0.38736298702941133410E-05
    0.38804615578282344710E-05
    0.38754524922237958763E-05
    0.38682403127106760891E-05
    0.38682402702576092364E-05
    0.92294356265790433724E+00
    0.84805973470738438280E+00
    0.78020105218973445638E+00
    0.73241814699887819451E+00
    0.75699599419934959776E+00
    0.70574566912798586404E+00
    0.77441838262112183688E+00
    0.84024206737632800568E+00
    0.92022087280929854014E+00
    0.96227686930191802528E+00
    0.92952618692057109584E+00
    0.97572212527061275011E+00
    0.85940175696922516124E+00
    0.83914512520370609927E+00
    0.62745110336317577726E+00
    0.52836229135678125512E+00
    0.45744323783730389543E+00
    0.40599907263152917869E+00
    0.42667849891075632085E+00
    0.39999483080082454123E+00
    0.43488224517740159403E+00
    0.50578162403214010912E+00
    0.61254158325312957345E+00
    0.66341849380651740642E+00
    0.62481104057017500253E+00
    0.68225125330920599609E+00
    0.53583946824480099824E+00
    0.51423925977693230038E+00
    0.92507399623728014948E+00
    0.85499274281711856727E+00
    0.79097432473836559730E+00
    0.74652793769725633855E+00
    0.77134958482456339457E+00
    0.72150565995105286898E+00
    0.77960442803365781472E+00
    0.84829100679510416327E+00
    0.92053345096567140704E+00
    0.96361259316499259242E+00
    0.93080519591256727363E+00
    0.97704181884497209865E+00
    0.86608897195636069810E+00
    0.84334682755376044749E+00
    0.65434341575171894867E+00
    0.57042479828656822427E+00
    0.50590644423400044083E+00
    0.45531075414164057236E+00
    0.47122256077874552505E+00
    0.41507985656826745791E+00
    0.46338908976160947395E+00
    0.54218777706876819522E+00
    0.62902549815014752177E+00
    0.67988649758798480605E+00
    0.65048587338094021604E+00
    0.70324946176388625219E+00
    0.57471941100163781435E+00
    0.54926429121010356127E+00
    0.40006554077740746900E+00
    0.39991125303578012318E+00
    0.40008917865575566175E+00
    0.39976819862472551259E+00
    0.39990141150397645609E+00
    0.40017970138922281942E+00
    0.39980227429787629223E+00
    0.40010868747159111791E+00
    0.39997668064427838175E+00
    0.40000266752501734135E+00
    0.40008742996397628211E+00
    0.39997383466137031993E+00
    0.39996472647401798417E+00
    0.40007374329409345348E+00
    0.27783216008371852679E+00
    0.12781898019629628349E+00
    0.62017063355542328962E-01
    0.24907523084903942373E-01
    0.52819663570730021607E-01
    0.25977061667250023191E+00
    0.40004020510548460310E+00
    0.39993694521781270046E+00
    0.40014887645136865135E+00
    0.39981802889655915223E+00
    0.40000378294755201125E+00
    0.40008919235657913749E+00
    0.39978402378931876537E+00
    0.23567838341377939093E+00
    0.40002646773386174583E+00
    0.39996488149342668272E+00
    0.40004683980691640999E+00
    0.32974319066980772863E+00
    0.40003863438758291426E+00
    0.39993771330493638194E+00
    0.39999750046111193225E+00
    0.40005661225569300044E+00
    0.39997234101334278034E+00
    0.40002956008202489313E+00
    0.39997640991988797632E+00
    0.41366665708637800902E+00
    0.40004745922570994487E+00
    0.39997864708296909653E+00
    0.18574705472867114597E+00
    0.12619109611262693815E+00
    0.62016300494199247395E-01
    0.24912021583954238602E-01
    0.52440276382935725741E-01
    0.12564587104623702388E-01
    0.62039668388577634550E-01
    0.12188503769925471132E+00
    0.18688908918176308505E+00
    0.34200822460503893518E+00
    0.19594163793749208580E+00
    0.23554903573739693901E+00
    0.13472931189801634622E+00
    0.11309748378747866426E+00
    0.92636302266565029306E+00
    0.86148205114128695303E+00
    0.79793460618525469119E+00
    0.75728854955852964448E+00
    0.78377693607981480106E+00
    0.73874080716199164165E+00
    0.79011515481301419772E+00
    0.85620478788496978684E+00
    0.92304588314601476728E+00
    0.96439942163629466254E+00
    0.93352485405696172815E+00
    0.97735528506665303450E+00
    0.87151012687890982988E+00
    0.84873242779462010343E+00
    0.66921820991002201051E+00
    0.59953274739450646003E+00
    0.53598768450608202940E+00
    0.49296012759301838235E+00
    0.51439712466935882951E+00
    0.46408253154277684382E+00
    0.51065406647568389875E+00
    0.58305646517439935206E+00
    0.65457961493738703318E+00
    0.69946107956240055614E+00
    0.67181406099631058026E+00
    0.71783289712881481748E+00
    0.60607201803125365647E+00
    0.58199676104501685270E+00
    0.92657853978355730895E+00
    0.86461761594055319691E+00
    0.79998775421208734304E+00
    0.76200248220807187405E+00
    0.78870512769731582203E+00
    0.74740199398104112394E+00
    0.79743506025652222124E+00
    0.85994905140898914020E+00
    0.92546043313531789476E+00
    0.96447857491273258912E+00
    0.93567395579551582152E+00
    0.97692184076700150364E+00
    0.87380946801216941022E+00
    0.85201483781326059486E+00
    0.67298804195366201952E+00
    0.60998235581217297163E+00
    0.54482128098435966823E+00
    0.50636278157668368483E+00
    0.53236419974651549847E+00
    0.48936569017825820582E+00
    0.53774440595363492967E+00
    0.60225664663493616580E+00
    0.66915454498920612370E+00
    0.70913202600595981462E+00
    0.68163626260214882358E+00
    0.72338871960835371411E+00
    0.61834006508542216363E+00
    0.59628446072425445035E+00
    0.40627368738624575206E+00
    0.39998815821599636999E+00
    0.33599016944705900611E+00
    0.27290119494009573708E+00
    0.37490517019519253861E+00
    0.26248679751665437987E+00
    0.39998716878660944829E+00
    0.40003032332800259052E+00
    0.39999080158708560928E+00
    0.42312854871910293708E+00
    0.40554362949177497066E+00
    0.45346277807565826823E+00
    0.40000974777236253388E+00
    0.39999354684400417748E+00
    0.18574666955456622941E+00
    0.12619109465538408399E+00
    0.62016300493180180620E-01
    0.24912021585257914519E-01
    0.52440275953252180052E-01
    0.12564806405233905004E-01
    0.62039697671546920055E-01
    0.12188193514827067032E+00
    0.18573365191344995417E+00
    0.22286259896265436797E+00
    0.19549136168207562059E+00
    0.23526873520537322504E+00