# vtk DataFile Version 3.0
LAPLACIEN  2D
ASCII
DATASET UNSTRUCTURED_GRID
 POINTS         481  float
   6.2500000000000000E-002  0.87500000000000000        0.0000000000000000     
  0.12500000000000000       0.87500000000000000        0.0000000000000000     
  0.12500000000000000       0.93750000000000000        0.0000000000000000     
   3.7499999999999999E-002  0.91249999999999998        0.0000000000000000     
   8.1250000000000003E-002  0.91874999999999996        0.0000000000000000     
   8.7499999999999994E-002  0.96250000000000002        0.0000000000000000     
   4.3749999999999997E-002  0.95625000000000004        0.0000000000000000     
  0.18750000000000000       0.87500000000000000        0.0000000000000000     
  0.25000000000000000       0.87500000000000000        0.0000000000000000     
  0.25000000000000000       0.93750000000000000        0.0000000000000000     
  0.16250000000000001       0.91249999999999998        0.0000000000000000     
  0.20624999999999999       0.91874999999999996        0.0000000000000000     
  0.21249999999999999       0.96250000000000002        0.0000000000000000     
  0.16875000000000001       0.95625000000000004        0.0000000000000000     
   6.2500000000000000E-002  0.75000000000000000        0.0000000000000000     
  0.12500000000000000       0.75000000000000000        0.0000000000000000     
  0.12500000000000000       0.81250000000000000        0.0000000000000000     
   3.7499999999999999E-002  0.78749999999999998        0.0000000000000000     
   8.1250000000000003E-002  0.79374999999999996        0.0000000000000000     
   8.7499999999999994E-002  0.83750000000000002        0.0000000000000000     
   4.3749999999999997E-002  0.83125000000000004        0.0000000000000000     
  0.18750000000000000       0.75000000000000000        0.0000000000000000     
  0.25000000000000000       0.75000000000000000        0.0000000000000000     
  0.25000000000000000       0.81250000000000000        0.0000000000000000     
  0.16250000000000001       0.78749999999999998        0.0000000000000000     
  0.20624999999999999       0.79374999999999996        0.0000000000000000     
  0.21249999999999999       0.83750000000000002        0.0000000000000000     
  0.16875000000000001       0.83125000000000004        0.0000000000000000     
  0.31250000000000000       0.87500000000000000        0.0000000000000000     
  0.37500000000000000       0.87500000000000000        0.0000000000000000     
  0.37500000000000000       0.93750000000000000        0.0000000000000000     
  0.28749999999999998       0.91249999999999998        0.0000000000000000     
  0.33124999999999999       0.91874999999999996        0.0000000000000000     
  0.33750000000000002       0.96250000000000002        0.0000000000000000     
  0.29375000000000001       0.95625000000000004        0.0000000000000000     
  0.43750000000000000       0.87500000000000000        0.0000000000000000     
  0.50000000000000000       0.87500000000000000        0.0000000000000000     
  0.50000000000000000       0.93750000000000000        0.0000000000000000     
  0.41249999999999998       0.91249999999999998        0.0000000000000000     
  0.45624999999999999       0.91874999999999996        0.0000000000000000     
  0.46250000000000002       0.96250000000000002        0.0000000000000000     
  0.41875000000000001       0.95625000000000004        0.0000000000000000     
  0.31250000000000000       0.75000000000000000        0.0000000000000000     
  0.37500000000000000       0.75000000000000000        0.0000000000000000     
  0.37500000000000000       0.81250000000000000        0.0000000000000000     
  0.28749999999999998       0.78749999999999998        0.0000000000000000     
  0.33124999999999999       0.79374999999999996        0.0000000000000000     
  0.33750000000000002       0.83750000000000002        0.0000000000000000     
  0.29375000000000001       0.83125000000000004        0.0000000000000000     
  0.43750000000000000       0.75000000000000000        0.0000000000000000     
  0.50000000000000000       0.75000000000000000        0.0000000000000000     
  0.50000000000000000       0.81250000000000000        0.0000000000000000     
  0.41249999999999998       0.78749999999999998        0.0000000000000000     
  0.45624999999999999       0.79374999999999996        0.0000000000000000     
  0.46250000000000002       0.83750000000000002        0.0000000000000000     
  0.41875000000000001       0.83125000000000004        0.0000000000000000     
   6.2500000000000000E-002  0.62500000000000000        0.0000000000000000     
  0.12500000000000000       0.62500000000000000        0.0000000000000000     
  0.12500000000000000       0.68750000000000000        0.0000000000000000     
   3.7499999999999999E-002  0.66249999999999998        0.0000000000000000     
   8.1250000000000003E-002  0.66874999999999996        0.0000000000000000     
   8.7499999999999994E-002  0.71250000000000002        0.0000000000000000     
   4.3749999999999997E-002  0.70625000000000004        0.0000000000000000     
  0.18750000000000000       0.62500000000000000        0.0000000000000000     
  0.25000000000000000       0.62500000000000000        0.0000000000000000     
  0.25000000000000000       0.68750000000000000        0.0000000000000000     
  0.16250000000000001       0.66249999999999998        0.0000000000000000     
  0.20624999999999999       0.66874999999999996        0.0000000000000000     
  0.21249999999999999       0.71250000000000002        0.0000000000000000     
  0.16875000000000001       0.70625000000000004        0.0000000000000000     
   6.2500000000000000E-002  0.50000000000000000        0.0000000000000000     
  0.12500000000000000       0.50000000000000000        0.0000000000000000     
  0.12500000000000000       0.56250000000000000        0.0000000000000000     
   3.7499999999999999E-002  0.53749999999999998        0.0000000000000000     
   8.1250000000000003E-002  0.54374999999999996        0.0000000000000000     
   8.7499999999999994E-002  0.58750000000000002        0.0000000000000000     
   4.3749999999999997E-002  0.58125000000000004        0.0000000000000000     
  0.18750000000000000       0.50000000000000000        0.0000000000000000     
  0.25000000000000000       0.50000000000000000        0.0000000000000000     
  0.25000000000000000       0.56250000000000000        0.0000000000000000     
  0.16250000000000001       0.53749999999999998        0.0000000000000000     
  0.20624999999999999       0.54374999999999996        0.0000000000000000     
  0.21249999999999999       0.58750000000000002        0.0000000000000000     
  0.16875000000000001       0.58125000000000004        0.0000000000000000     
  0.31250000000000000       0.62500000000000000        0.0000000000000000     
  0.37500000000000000       0.62500000000000000        0.0000000000000000     
  0.37500000000000000       0.68750000000000000        0.0000000000000000     
  0.28749999999999998       0.66249999999999998        0.0000000000000000     
  0.33124999999999999       0.66874999999999996        0.0000000000000000     
  0.33750000000000002       0.71250000000000002        0.0000000000000000     
  0.29375000000000001       0.70625000000000004        0.0000000000000000     
  0.43750000000000000       0.62500000000000000        0.0000000000000000     
  0.50000000000000000       0.62500000000000000        0.0000000000000000     
  0.50000000000000000       0.68750000000000000        0.0000000000000000     
  0.41249999999999998       0.66249999999999998        0.0000000000000000     
  0.45624999999999999       0.66874999999999996        0.0000000000000000     
  0.46250000000000002       0.71250000000000002        0.0000000000000000     
  0.41875000000000001       0.70625000000000004        0.0000000000000000     
  0.31250000000000000       0.50000000000000000        0.0000000000000000     
  0.37500000000000000       0.50000000000000000        0.0000000000000000     
  0.37500000000000000       0.56250000000000000        0.0000000000000000     
  0.28749999999999998       0.53749999999999998        0.0000000000000000     
  0.33124999999999999       0.54374999999999996        0.0000000000000000     
  0.33750000000000002       0.58750000000000002        0.0000000000000000     
  0.29375000000000001       0.58125000000000004        0.0000000000000000     
  0.43750000000000000       0.50000000000000000        0.0000000000000000     
  0.50000000000000000       0.50000000000000000        0.0000000000000000     
  0.50000000000000000       0.56250000000000000        0.0000000000000000     
  0.41249999999999998       0.53749999999999998        0.0000000000000000     
  0.45624999999999999       0.54374999999999996        0.0000000000000000     
  0.46250000000000002       0.58750000000000002        0.0000000000000000     
  0.41875000000000001       0.58125000000000004        0.0000000000000000     
  0.56250000000000000       0.87500000000000000        0.0000000000000000     
  0.62500000000000000       0.87500000000000000        0.0000000000000000     
  0.62500000000000000       0.93750000000000000        0.0000000000000000     
  0.53749999999999998       0.91249999999999998        0.0000000000000000     
  0.58125000000000004       0.91874999999999996        0.0000000000000000     
  0.58750000000000002       0.96250000000000002        0.0000000000000000     
  0.54374999999999996       0.95625000000000004        0.0000000000000000     
  0.68750000000000000       0.87500000000000000        0.0000000000000000     
  0.75000000000000000       0.87500000000000000        0.0000000000000000     
  0.75000000000000000       0.93750000000000000        0.0000000000000000     
  0.66249999999999998       0.91249999999999998        0.0000000000000000     
  0.70625000000000004       0.91874999999999996        0.0000000000000000     
  0.71250000000000002       0.96250000000000002        0.0000000000000000     
[...]
 CELL_DATA         896
 SCALARS Nutrients float
 LOOKUP_TABLE default
    0.47739342295166520280E+00
    0.46370566539587582122E+00
    0.44419996628385172155E+00
    0.43043368397324177632E+00
    0.44056804116816145056E+00
    0.42550620445768849720E+00
    0.44435764637531494081E+00
    0.46268615577615557211E+00
    0.47772015252480731773E+00
    0.48158823178309934088E+00
    0.47831030537331764574E+00
    0.48227839303923125680E+00
    0.46625989470032197515E+00
    0.46051019591383557383E+00
    0.39287713607749374933E+00
    0.36422743571051147127E+00
    0.33195861511306284930E+00
    0.31312214715251646124E+00
    0.32743819577392718756E+00
    0.30709332829433094725E+00
    0.33266065483701673378E+00
    0.36258266557550639098E+00
    0.39359435140670706588E+00
    0.41011123657438514067E+00
    0.39758411847671043526E+00
    0.41506648810156798746E+00
    0.36879744740034853256E+00
    0.35823372141580989148E+00
    0.47677102135536786331E+00
    0.46291751973156824995E+00
    0.44299598019892899581E+00
    0.42914554693428169641E+00
    0.43967853608173290691E+00
    0.42472033271087661355E+00
    0.44400143766320637750E+00
    0.46224435753705656049E+00
    0.47738947048333152390E+00
    0.48126162431399488462E+00
    0.47786065735111982189E+00
    0.48182180257875684148E+00
    0.46565158996032529615E+00
    0.45989368937294694550E+00
    0.39064778625417434510E+00
    0.36189454194438575030E+00
    0.32913304973431789513E+00
    0.31077691612075375449E+00
    0.32555274879987811110E+00
    0.30577175953887725246E+00
    0.33167882255704589367E+00
    0.36133826069879382281E+00
    0.39271564708553730050E+00
    0.40917353931060668204E+00
    0.39614447714985850935E+00
    0.41351888887486004664E+00
    0.36697962635697189970E+00
    0.35651913888476988168E+00
    0.26806851357182714946E+00
    0.23792701871884727738E+00
    0.20473020456001320144E+00
    0.18536025738118488970E+00
    0.19943659860015633400E+00
    0.17896628588243221336E+00
    0.20454573710593529356E+00
    0.23583584755587533310E+00
    0.26861445772203618176E+00
    0.28784445606362074610E+00
    0.27355649372820822762E+00
    0.29391313713831118681E+00
    0.24248853323375971214E+00
    0.23127826363436732038E+00
    0.14246052713786419575E+00
    0.11529102610674271667E+00
    0.88393622785685285748E-01
    0.75057813520216939973E-01
    0.85159327210683338771E-01
    0.71184100674713479684E-01
    0.88621071664766667975E-01
    0.11343331562875866303E+00
    0.14230818419140123243E+00
    0.16030840723730732655E+00
    0.14714726471174152667E+00
    0.16663165216860031936E+00
    0.11897745341531108798E+00
    0.10956746694024735445E+00
    0.26684874204982134138E+00
    0.23835994476704819300E+00
    0.20681383796373234429E+00
    0.18667021289053051247E+00
    0.20113209284378669173E+00
    0.17955860986690272418E+00
    0.20482033074945565909E+00
    0.23593443191079144228E+00
    0.26790475601119184690E+00
    0.28669233157592971528E+00
    0.27247828801262707898E+00
    0.29194641302136548067E+00
    0.24272968505615444279E+00
    0.23196214419260940964E+00
    0.14176454837862598191E+00
    0.11446130386930725154E+00
    0.86539353853458719779E-01
    0.73863220403334373110E-01
    0.84668342892889256190E-01
    0.70955317466606035448E-01
    0.88438892298307619777E-01
    0.11336881941408641361E+00
    0.14248341705628775333E+00
    0.16067715314872432764E+00
    0.14738040145597103292E+00
    0.16722891883116733358E+00
    0.11874527620314853649E+00
    0.10933988302134732551E+00
    0.47590762091469740458E+00
    0.46164334329918405020E+00
    0.44112196284471688612E+00
    0.42687727489953924964E+00
    0.43785160227085639928E+00
    0.42272654785422913992E+00
    0.44265776337533213614E+00
    0.46116833853320610137E+00
    0.47671731188609867136E+00
    0.48063265540484556571E+00
    0.47707243336981264292E+00
    0.48110824921315414882E+00
    0.46452070717427690338E+00
    0.45864967459952254991E+00
    0.38710184452898982466E+00
    0.35768146451507981665E+00
    0.32438380051054838127E+00
    0.30637125526118413887E+00
    0.32144465703995206418E+00
    0.30241227793778058253E+00
    0.32851837986456627894E+00
    0.35804392890377151337E+00
    0.39024961475747405037E+00
    0.40682853547755337686E+00
    0.39311323622775273812E+00
    0.41075939883400891528E+00
    0.36316059128801703171E+00
    0.35269217638602673448E+00
    0.47542768189831302594E+00
    0.46072833708186899937E+00
    0.43994469561762195031E+00
    0.42510643022570721028E+00
    0.43602654397641316120E+00
    0.42022374786235061617E+00
    0.44076860862600802937E+00
    0.45986848190551438131E+00
    0.47586343512540046907E+00
    0.47991336596016764826E+00
    0.47634634850590890087E+00
    0.48058434207791511650E+00
    0.46348107486441314506E+00
    0.45740012220837578116E+00
    0.38499575032310323630E+00
    0.35443302965650974601E+00
    0.32124479877250916582E+00
    0.30273949367415947664E+00
    0.31718869733808824352E+00
    0.29820311572613672491E+00
    0.32375723319350940832E+00
    0.35367561595773949756E+00
    0.38668953646839421268E+00
    0.40384184736810219141E+00
    0.39000548984243693651E+00
    0.40860230097740579680E+00
    0.35933493430991281237E+00
    0.34853701228250555388E+00
    0.26391897536770958510E+00
    0.23630557013798272892E+00
    0.20416128030824853834E+00
    0.18570122155174814682E+00
    0.20091816362707073940E+00
    0.17964262656418630848E+00
    0.20671286719268966436E+00
    0.23585372992185776875E+00
    0.26643089807752934339E+00
    0.28390450434320302353E+00
    0.27006545457608521765E+00
    0.28818419225907027093E+00
    0.24144606685559666381E+00
    0.23128023654878820947E+00
    0.12911193897116704510E+00
    0.99393638626534192015E-01
    0.61313235779196763320E-01
    0.55160637742350401846E-01
    0.74318926667289716970E-01
    0.65265514172801519788E-01
    0.85414208577571690273E-01
    0.10952592142028441669E+00
    0.14113059094146332417E+00
    0.15954960528949871379E+00
    0.14334938083887813209E+00
    0.16439145508181463029E+00
    0.11048245974335940689E+00
    0.10180725658533702760E+00
    0.26040182101618819521E+00
    0.22988886581004364107E+00
    0.19344259506096525558E+00
    0.16917215105397526154E+00
    0.19057347394294543719E+00
    0.17027151890192684935E+00
    0.20226334488161673564E+00
    0.23146463467061861863E+00
    0.26318687782228222805E+00
    0.28024936212433937399E+00
    0.26601072119283852846E+00
    0.28466297690873543225E+00
    0.23587251142884510524E+00
    0.22508646831030762470E+00
    0.10197959380488391679E+00
    0.66299097866149528380E-01
    0.36985903314771188810E-01
    0.23220201790680926324E-01
    0.30741119382489197343E-01
    0.22599668496271842905E-01
    0.52183763499795518537E-01
    0.75811022655693144356E-01
    0.12467671309854290451E+00
    0.14597463309802460873E+00
    0.11693762756322075014E+00
    0.14138719713785433130E+00
    0.72991174843799078165E-01
    0.61727733770992443407E-01
    0.50601458450748156015E-01
    0.39089468993288689624E-01
    0.29038799171298940865E-01
    0.24560038851839986751E-01
    0.28013048544605369944E-01
    0.23352380761104192530E-01
    0.29153551515043875375E-01
    0.38343621165061680944E-01
    0.50498025409478203285E-01
    0.59910716995424571907E-01
    0.53224743907006662191E-01
    0.63575592268510464078E-01
    0.40536370094905224692E-01
    0.36752213703415650969E-01
    0.16595754713663424251E-01
    0.12842466756198498215E-01
    0.95688658495677279825E-02
    0.81096441974525517588E-02
    0.92331535418952864758E-02
    0.77194091762676246213E-02
    0.96093707420904245914E-02
    0.12606391123962253434E-01
    0.16582355370604831557E-01
    0.19659350683826862238E-01
    0.17459095764674192885E-01
    0.20823267566006786050E-01
    0.13310190288729298672E-01
    0.12076473544545227382E-01
    0.48245331528252326236E-01
    0.37822083512578832942E-01
    0.27676753681786351452E-01
    0.23842821587892179536E-01
    0.27635416529607877839E-01
    0.23207568877313032585E-01
    0.29033883212605460927E-01
    0.38179433807604364060E-01
    0.50462738204104448658E-01
    0.59706694887386987936E-01
    0.52634912303734439354E-01
    0.62329588836064556134E-01
    0.39941777318743793002E-01
    0.36343165796318049887E-01
    0.15850256412498091307E-01
    0.12518644254442800809E-01
    0.93304120483366642658E-02
    0.79999283041245570353E-02
    0.91637828226869277870E-02
    0.76913666061319690970E-02
    0.95728271193935739192E-02
    0.12557525063049702549E-01
    0.16550101535376608719E-01
    0.19552450652980737922E-01
    0.17226849211515588706E-01
    0.20261132206509137321E-01
    0.13145086626035498018E-01
    0.11972099345115269631E-01
    0.55347357940419431369E-02
    0.43313685954458691976E-02
    0.32993610943598903479E-02
    0.28515257077442544148E-02
    0.31973996406250656567E-02
    0.27381872598032665732E-02
    0.33167049263392697940E-02
    0.42578699238155640408E-02
    0.55294940720465087652E-02
    0.65209773842055352919E-02
    0.58096661023270858293E-02
    0.68979306901718329126E-02
    0.44729401477793251374E-02
    0.40813838763246014854E-02
    0.21059803209434856813E-02
    0.18074964498040826683E-02
    0.15983215734396137055E-02
    0.15530542088389232610E-02
    0.15929823273394096497E-02
    0.15509116975519084657E-02
    0.16084061969997040346E-02
    0.17935811375518154621E-02
    0.21072834587923831504E-02
    0.23835560935888517285E-02
    0.21844100994773294963E-02
    0.24927620662694507936E-02
    0.18317340663975500113E-02
    0.17434579170100177395E-02
    0.54658976695664924714E-02
    0.43059637778361118179E-02
    0.32861098205146095468E-02
    0.28459367726474723431E-02
    0.31915000329546618953E-02
    0.27318182588199654663E-02
    0.33033870008187002192E-02
    0.42499280779040669170E-02
    0.55238022330402567622E-02
    0.65038450308558867080E-02
    0.57825657668708618786E-02
    0.68269033051927491620E-02
    0.44580712270713227646E-02
    0.40716818173862651814E-02
    0.21044549125339064716E-02
    0.18069927457270943284E-02
    0.15986596731929069055E-02
    0.15529512781384412125E-02
    0.15910534360010304602E-02
    0.15461110671164547247E-02
    0.15997477618327330708E-02
    0.17888942786219435167E-02
    0.21020958651438788507E-02
    0.23788869661344330675E-02
    0.21819495533728764693E-02
    0.24897069815052394470E-02
    0.18301958986149634290E-02
    0.17413738966591376170E-02
    0.23094915504734053746E-01
    0.22874456891532585212E-01
    0.15359676047998625098E-01
    0.16020482042817734553E-01
    0.21920609231383919591E-01
    0.20545032987366918659E-01
    0.26934938242516054396E-01
    0.34045109912238434580E-01
    0.46891682835945559804E-01
    0.54066042918577111864E-01
    0.42120920304298190007E-01
    0.44059279484140817518E-01
    0.30479475886225886744E-01
    0.29162237683461083443E-01
    0.10354580121280184193E-01
    0.96804304262800601466E-02
    0.75692853726658368071E-02
    0.70228163319255524494E-02
    0.83121738158127480428E-02
    0.73432262784007091769E-02
    0.92138520233950409188E-02
    0.11661441584391522841E-01
    0.15428697341322690495E-01
    0.17466509974599839922E-01
    0.14134734144337952541E-01
    0.14207360825548829425E-01
    0.11126540156820843505E-01
    0.10555912189198010318E-01
    0.31957425057601886176E-02
    0.73441569339055816790E-03
   -0.34080451491516595107E-03
    0.11954283877157420059E-02
    0.33709464285630020251E-02
    0.76844438698228725859E-02
    0.12048571001153026566E-01
    0.91771711207083109946E-02
    0.15288743506868636077E-01
    0.13710465879502151468E-01
    0.73535478314941159564E-02
    0.12613713184165079376E-01
    0.32807409679966523242E-02
    0.40250295130777298883E-02
    0.32380287711377109781E-02
    0.46892630292993996502E-02
    0.50466699795615717686E-02
    0.51536324446953621359E-02
    0.57194136645973628341E-02
    0.58457671288582729874E-02
    0.71081864400902600859E-02
    0.73471965675674108867E-02
    0.88542841768479117748E-02
    0.75470814788805651654E-02
    0.51458009681353954895E-02
    0.22695928165342394919E-02
    0.55321826331871061175E-02
    0.60133890056832247847E-02
    0.50148694913469829895E-02
    0.41125614905275437519E-02
    0.31970549419264239661E-02
    0.28040099807155080373E-02
    0.31484552465071867153E-02
    0.27170763599819246041E-02
    0.32836286095886280806E-02
    0.41875475029651641062E-02
    0.54192279476412705611E-02
    0.62767642344373555940E-02
    0.54932552133733726293E-02
    0.61802880189528400928E-02
    0.43128954724742808030E-02
    0.39790771306559063678E-02
    0.20922019848076431163E-02
    0.18032106463872110864E-02
    0.15977457836679328715E-02
    0.15530502358810209258E-02
    0.15913439165918547707E-02
    0.15469605984144891870E-02
    0.16002795837799202623E-02
    0.17884416181163018383E-02
    0.20996675260675154440E-02
    0.23713416286511991397E-02
    0.21735450627243871335E-02
    0.24663323412343124072E-02
    0.18275754333600261522E-02
    0.17403645803633826725E-02
    0.44211252183381311368E-02
    0.37859001964558984532E-02
    0.30736956814059516151E-02
    0.27276023988047405112E-02
    0.30232737126787575209E-02
    0.26558196807904168972E-02
    0.31769064260430152774E-02
    0.39087226523857087138E-02
    0.48773735035792867287E-02
    0.53028477895376594994E-02
    0.47029561269445194563E-02
    0.49096422198467194742E-02
    0.39345670515619837748E-02
    0.37025654139028118736E-02
    0.20753417456543369647E-02
    0.17955356807878828946E-02
    0.15950487133391058354E-02
    0.15512093694730886336E-02
    0.15889868888001956824E-02
    0.15459305651437888016E-02
    0.15988216098131392742E-02
    0.17824138198234992878E-02
    0.20846023473810007705E-02
    0.23381762636198685258E-02
    0.21499965941513730049E-02
    0.24217920447541906731E-02
    0.18186173303192775929E-02
    0.17345208788249817829E-02
    0.47585989584515553386E+00
    0.46115224484939759675E+00
    0.44080006744556710085E+00
    0.42580692479477144641E+00
    0.43603419591322678528E+00
    0.41952195658731478156E+00
    0.43986024248366689671E+00
    0.45946670202102235514E+00
    0.47549405891665652568E+00
    0.47971282643011003977E+00
    0.47636538805462447232E+00
    0.48079565374515143006E+00
    0.46355601671412166587E+00
    0.45734588483014226856E+00
    0.38687833599222498648E+00
    0.35596843712044279329E+00
    0.32358766320946802386E+00
    0.30429635238220625881E+00
    0.31727674102778624654E+00
    0.29693019791946406727E+00
    0.32131653620256372950E+00
    0.35227358287392074310E+00
    0.38507697599962531498E+00
    0.40297926596738342653E+00
    0.39009901692822374075E+00
    0.40948842596844214903E+00
    0.35964042269935786456E+00
    0.34839114517997810117E+00
    0.47671124956286448082E+00
    0.46241169099618228966E+00
    0.44267677918913966861E+00
    0.42811208727535465801E+00
    0.43787021386632740683E+00
    0.42149282131118470662E+00
    0.44099040614671869420E+00
    0.46043753955225952268E+00
    0.47603097172108027602E+00
    0.48026429531891673408E+00
    0.47710563764419094968E+00
    0.48149768577260348978E+00
    0.46465745363610189145E+00
    0.45855094943415353193E+00
    0.39043395727731566858E+00
    0.36031618371468893125E+00
    0.32841401344959514352E+00
    0.30889181484864619565E+00
    0.32158840174911645926E+00
    0.30044023165686190024E+00
    0.32428818672144149593E+00
    0.35561824028220212490E+00
    0.38741969932835879087E+00
    0.40532226721850822537E+00
    0.39326237744081937731E+00
    0.41230775263557628563E+00
    0.36367092890622598755E+00
    0.35242696217278385307E+00
    0.26359424152736327107E+00
    0.23401607075512717571E+00
    0.20230389621539995870E+00
    0.17881634632986073696E+00
    0.19067860721449719774E+00
    0.16052568497990230001E+00
    0.19339902167730660398E+00
    0.22780375920941606238E+00
    0.26047313056403659237E+00
    0.27887427799169384190E+00
    0.26633092415914477735E+00
    0.28630394146156606938E+00
    0.23666969005258040037E+00
    0.22472544118294113247E+00
    0.12688974094855004493E+00
    0.79649532875774517460E-01
    0.49634945412472410153E-01
    0.26450748378243731096E-01
    0.30056414462425604800E-01
    0.19579294305708889318E-01
    0.36965720651347851178E-01
    0.63381121466672754594E-01
    0.10226918994471523305E+00
    0.13267720712172920150E+00
    0.11868868551372753484E+00
    0.15499041361666610062E+00
    0.75716548073069822600E-01
    0.59352098835666521059E-01
    0.26678208404694875311E+00
    0.23819548425541367531E+00
    0.20713093142638488997E+00
    0.18711046727661062583E+00
    0.20112885870144275868E+00
    0.17886676968959619449E+00
    0.20394340734531593573E+00
    0.23439768003255936901E+00
    0.26426042826515794282E+00
    0.28239898353564785172E+00
    0.27036745196479888831E+00
    0.29033730653139899758E+00
    0.24190482952560959928E+00
    0.23125295747914698108E+00
    0.14163486063922134384E+00
    0.11186533336420631524E+00
    0.85082584420095627720E-01
    0.69428097513837050414E-01
    0.74368568412102320497E-01
    0.51705797671145421746E-01
    0.58886686036932832378E-01
    0.97528004278346056011E-01
    0.13108258268493716558E+00
    0.15721313395927938306E+00
    0.14400840133677758614E+00
    0.16675241595455167487E+00
    0.11259101817880207141E+00
    0.10025569534935874216E+00
    0.47734020571641572195E+00
    0.46343447921100205944E+00
    0.44403808381481457701E+00
    0.42993631785176616988E+00
    0.43968585992051306688E+00
    0.42392845958425739994E+00
    0.44286272179122898596E+00
    0.46173404331221690189E+00
    0.47688143068445654205E+00
    0.48098405170612301696E+00
    0.47787201892288372340E+00
    0.48208571427763052819E+00
    0.46573515910937990370E+00
    0.45981698829749401147E+00
    0.39277643580376175869E+00
    0.36351395490358651141E+00
    0.33163657740638385896E+00
    0.31227680747681779705E+00
    0.32560451843062709898E+00
    0.30450851849832366591E+00
    0.32900941128715643913E+00
    0.35982727480433768230E+00
    0.39092132958309167012E+00
    0.40822199345172022200E+00
    0.39622108634923702830E+00
    0.41449348543639458198E+00
    0.36727628881747564904E+00
    0.35633636433873833171E+00
    0.47745964276589253350E+00
    0.46384597450398629137E+00
    0.44459867195455404776E+00
    0.43070506070083280914E+00
    0.44058137946576780841E+00
    0.42528655591509634259E+00
    0.44409141353290049192E+00
    0.46251377022439088549E+00
    0.47745053498888045951E+00
    0.48141194029016071143E+00
    0.47824474206807299215E+00
    0.48226552932243654803E+00
    0.46625739336345156660E+00
    0.46047073942487365406E+00
    0.39346562898610526471E+00
    0.36469063429543474575E+00
    0.33271502165257665906E+00
    0.31360109918046352728E+00
    0.32745932060931093321E+00
    0.30670617237041403191E+00
    0.33189138731344403066E+00
    0.36213259021298116469E+00
    0.39301928061342999987E+00
    0.40982110589373360598E+00
    0.39760469767675854502E+00
    0.41536531764064338335E+00
    0.36887805002218071460E+00
    0.35817657905845728950E+00
    0.26805892322564950359E+00
    0.23813053917780929725E+00
    0.20503888616837748216E+00
    0.18596526211473590751E+00
    0.20115489367164862688E+00
    0.18030296110296720191E+00
    0.20715760432193927598E+00
    0.23644150932765892192E+00
    0.26707753982846571539E+00
    0.28571634162354442310E+00
    0.27256538212064806981E+00
    0.29319179855358995512E+00
    0.24277366022901569753E+00
    0.23210748200536640562E+00
    0.14252745351648865579E+00
    0.11527965798207988335E+00
    0.88355656824106440506E-01
    0.74884801045527360497E-01
    0.84680389283554563518E-01
    0.69973298402953160169E-01
    0.86374243962606997438E-01
    0.11264176651991457401E+00
    0.14208245072634126394E+00
    0.16092601407538711933E+00
    0.14745076814186333647E+00
    0.16702900467261194706E+00