# vtk DataFile Version 3.0
LAPLACIEN  2D
ASCII
DATASET UNSTRUCTURED_GRID
 POINTS         481  float
   6.2500000000000000E-002  0.87500000000000000        0.0000000000000000     
  0.12500000000000000       0.87500000000000000        0.0000000000000000     
  0.12500000000000000       0.93750000000000000        0.0000000000000000     
   3.7499999999999999E-002  0.91249999999999998        0.0000000000000000     
   8.1250000000000003E-002  0.91874999999999996        0.0000000000000000     
   8.7499999999999994E-002  0.96250000000000002        0.0000000000000000     
   4.3749999999999997E-002  0.95625000000000004        0.0000000000000000     
  0.18750000000000000       0.87500000000000000        0.0000000000000000     
  0.25000000000000000       0.87500000000000000        0.0000000000000000     
  0.25000000000000000       0.93750000000000000        0.0000000000000000     
  0.16250000000000001       0.91249999999999998        0.0000000000000000     
  0.20624999999999999       0.91874999999999996        0.0000000000000000     
  0.21249999999999999       0.96250000000000002        0.0000000000000000     
  0.16875000000000001       0.95625000000000004        0.0000000000000000     
   6.2500000000000000E-002  0.75000000000000000        0.0000000000000000     
  0.12500000000000000       0.75000000000000000        0.0000000000000000     
  0.12500000000000000       0.81250000000000000        0.0000000000000000     
   3.7499999999999999E-002  0.78749999999999998        0.0000000000000000     
   8.1250000000000003E-002  0.79374999999999996        0.0000000000000000     
   8.7499999999999994E-002  0.83750000000000002        0.0000000000000000     
   4.3749999999999997E-002  0.83125000000000004        0.0000000000000000     
  0.18750000000000000       0.75000000000000000        0.0000000000000000     
  0.25000000000000000       0.75000000000000000        0.0000000000000000     
  0.25000000000000000       0.81250000000000000        0.0000000000000000     
  0.16250000000000001       0.78749999999999998        0.0000000000000000     
  0.20624999999999999       0.79374999999999996        0.0000000000000000     
  0.21249999999999999       0.83750000000000002        0.0000000000000000     
  0.16875000000000001       0.83125000000000004        0.0000000000000000     
  0.31250000000000000       0.87500000000000000        0.0000000000000000     
  0.37500000000000000       0.87500000000000000        0.0000000000000000     
  0.37500000000000000       0.93750000000000000        0.0000000000000000     
  0.28749999999999998       0.91249999999999998        0.0000000000000000     
  0.33124999999999999       0.91874999999999996        0.0000000000000000     
  0.33750000000000002       0.96250000000000002        0.0000000000000000     
  0.29375000000000001       0.95625000000000004        0.0000000000000000     
  0.43750000000000000       0.87500000000000000        0.0000000000000000     
  0.50000000000000000       0.87500000000000000        0.0000000000000000     
  0.50000000000000000       0.93750000000000000        0.0000000000000000     
  0.41249999999999998       0.91249999999999998        0.0000000000000000     
  0.45624999999999999       0.91874999999999996        0.0000000000000000     
  0.46250000000000002       0.96250000000000002        0.0000000000000000     
  0.41875000000000001       0.95625000000000004        0.0000000000000000     
  0.31250000000000000       0.75000000000000000        0.0000000000000000     
  0.37500000000000000       0.75000000000000000        0.0000000000000000     
  0.37500000000000000       0.81250000000000000        0.0000000000000000     
  0.28749999999999998       0.78749999999999998        0.0000000000000000     
  0.33124999999999999       0.79374999999999996        0.0000000000000000     
  0.33750000000000002       0.83750000000000002        0.0000000000000000     
  0.29375000000000001       0.83125000000000004        0.0000000000000000     
  0.43750000000000000       0.75000000000000000        0.0000000000000000     
  0.50000000000000000       0.75000000000000000        0.0000000000000000     
  0.50000000000000000       0.81250000000000000        0.0000000000000000     
  0.41249999999999998       0.78749999999999998        0.0000000000000000     
  0.45624999999999999       0.79374999999999996        0.0000000000000000     
  0.46250000000000002       0.83750000000000002        0.0000000000000000     
  0.41875000000000001       0.83125000000000004        0.0000000000000000     
   6.2500000000000000E-002  0.62500000000000000        0.0000000000000000     
  0.12500000000000000       0.62500000000000000        0.0000000000000000     
  0.12500000000000000       0.68750000000000000        0.0000000000000000     
   3.7499999999999999E-002  0.66249999999999998        0.0000000000000000     
   8.1250000000000003E-002  0.66874999999999996        0.0000000000000000     
   8.7499999999999994E-002  0.71250000000000002        0.0000000000000000     
   4.3749999999999997E-002  0.70625000000000004        0.0000000000000000     
  0.18750000000000000       0.62500000000000000        0.0000000000000000     
  0.25000000000000000       0.62500000000000000        0.0000000000000000     
  0.25000000000000000       0.68750000000000000        0.0000000000000000     
  0.16250000000000001       0.66249999999999998        0.0000000000000000     
  0.20624999999999999       0.66874999999999996        0.0000000000000000     
  0.21249999999999999       0.71250000000000002        0.0000000000000000     
  0.16875000000000001       0.70625000000000004        0.0000000000000000     
   6.2500000000000000E-002  0.50000000000000000        0.0000000000000000     
  0.12500000000000000       0.50000000000000000        0.0000000000000000     
  0.12500000000000000       0.56250000000000000        0.0000000000000000     
   3.7499999999999999E-002  0.53749999999999998        0.0000000000000000     
   8.1250000000000003E-002  0.54374999999999996        0.0000000000000000     
   8.7499999999999994E-002  0.58750000000000002        0.0000000000000000     
   4.3749999999999997E-002  0.58125000000000004        0.0000000000000000     
  0.18750000000000000       0.50000000000000000        0.0000000000000000     
  0.25000000000000000       0.50000000000000000        0.0000000000000000     
  0.25000000000000000       0.56250000000000000        0.0000000000000000     
  0.16250000000000001       0.53749999999999998        0.0000000000000000     
  0.20624999999999999       0.54374999999999996        0.0000000000000000     
  0.21249999999999999       0.58750000000000002        0.0000000000000000     
  0.16875000000000001       0.58125000000000004        0.0000000000000000     
  0.31250000000000000       0.62500000000000000        0.0000000000000000     
  0.37500000000000000       0.62500000000000000        0.0000000000000000     
  0.37500000000000000       0.68750000000000000        0.0000000000000000     
  0.28749999999999998       0.66249999999999998        0.0000000000000000     
  0.33124999999999999       0.66874999999999996        0.0000000000000000     
  0.33750000000000002       0.71250000000000002        0.0000000000000000     
  0.29375000000000001       0.70625000000000004        0.0000000000000000     
  0.43750000000000000       0.62500000000000000        0.0000000000000000     
  0.50000000000000000       0.62500000000000000        0.0000000000000000     
  0.50000000000000000       0.68750000000000000        0.0000000000000000     
  0.41249999999999998       0.66249999999999998        0.0000000000000000     
  0.45624999999999999       0.66874999999999996        0.0000000000000000     
  0.46250000000000002       0.71250000000000002        0.0000000000000000     
  0.41875000000000001       0.70625000000000004        0.0000000000000000     
  0.31250000000000000       0.50000000000000000        0.0000000000000000     
  0.37500000000000000       0.50000000000000000        0.0000000000000000     
  0.37500000000000000       0.56250000000000000        0.0000000000000000     
  0.28749999999999998       0.53749999999999998        0.0000000000000000     
  0.33124999999999999       0.54374999999999996        0.0000000000000000     
  0.33750000000000002       0.58750000000000002        0.0000000000000000     
  0.29375000000000001       0.58125000000000004        0.0000000000000000     
  0.43750000000000000       0.50000000000000000        0.0000000000000000     
  0.50000000000000000       0.50000000000000000        0.0000000000000000     
  0.50000000000000000       0.56250000000000000        0.0000000000000000     
  0.41249999999999998       0.53749999999999998        0.0000000000000000     
  0.45624999999999999       0.54374999999999996        0.0000000000000000     
  0.46250000000000002       0.58750000000000002        0.0000000000000000     
  0.41875000000000001       0.58125000000000004        0.0000000000000000     
  0.56250000000000000       0.87500000000000000        0.0000000000000000     
  0.62500000000000000       0.87500000000000000        0.0000000000000000     
  0.62500000000000000       0.93750000000000000        0.0000000000000000     
  0.53749999999999998       0.91249999999999998        0.0000000000000000     
  0.58125000000000004       0.91874999999999996        0.0000000000000000     
  0.58750000000000002       0.96250000000000002        0.0000000000000000     
  0.54374999999999996       0.95625000000000004        0.0000000000000000     
  0.68750000000000000       0.87500000000000000        0.0000000000000000     
  0.75000000000000000       0.87500000000000000        0.0000000000000000     
  0.75000000000000000       0.93750000000000000        0.0000000000000000     
  0.66249999999999998       0.91249999999999998        0.0000000000000000     
  0.70625000000000004       0.91874999999999996        0.0000000000000000     
  0.71250000000000002       0.96250000000000002        0.0000000000000000     
[...]
 CELL_DATA         896
 SCALARS Nutrients float
 LOOKUP_TABLE default
    0.47457758850594827793E+00
    0.46080011565699580123E+00
    0.44067520365739060173E+00
    0.42690560765878099447E+00
    0.43757885545592745125E+00
    0.42250769226309553561E+00
    0.44171298730141483890E+00
    0.46029278401691192668E+00
    0.47561872726269316392E+00
    0.47950880842308590823E+00
    0.47600699619599690093E+00
    0.47982616699748859013E+00
    0.46370636982990276476E+00
    0.45793061823914243957E+00
    0.38817923716254393307E+00
    0.35968019171145493296E+00
    0.32706610462730095756E+00
    0.30890445718841458289E+00
    0.32354435321452013063E+00
    0.30374668140066340971E+00
    0.32911990122430462291E+00
    0.35896806184504004289E+00
    0.39026088068653941310E+00
    0.40689702483313777703E+00
    0.39391683312228581437E+00
    0.41124306416157008215E+00
    0.36479723526568336167E+00
    0.35433601878476927993E+00
    0.47172001503230898134E+00
    0.45765166172364929453E+00
    0.43641184880101357990E+00
    0.42254500474738826421E+00
    0.43441310364155005797E+00
    0.41979206199741664340E+00
    0.44013438090500894839E+00
    0.45851790232407046988E+00
    0.47433215888614249645E+00
    0.47804046547399203781E+00
    0.47396613399370635111E+00
    0.47751388105298886444E+00
    0.46121888280963196927E+00
    0.45548426200921532381E+00
    0.38163719383582361822E+00
    0.35322261588142206401E+00
    0.31989835584833142823E+00
    0.30289051646354014924E+00
    0.31848864779816860038E+00
    0.30021322190884458525E+00
    0.32631691187775252461E+00
    0.35536152374478530147E+00
    0.38756418012134458140E+00
    0.40384707007820835889E+00
    0.38946785954609186575E+00
    0.40630133648999039453E+00
    0.35957058777463424271E+00
    0.34944885286256421875E+00
    0.26503803205792147990E+00
    0.23679290170325817400E+00
    0.20523175730007670037E+00
    0.18577690420714507158E+00
    0.19972667897960807992E+00
    0.17931383274284451446E+00
    0.20494051939348678637E+00
    0.23500601934835690932E+00
    0.26628021452000599778E+00
    0.28488866347015040503E+00
    0.27089841938891112694E+00
    0.29020054553815993748E+00
    0.24134268040940715094E+00
    0.23070279656987235928E+00
    0.14261199269809435308E+00
    0.11530551677283061573E+00
    0.88132070502154852276E-01
    0.74808262755524337906E-01
    0.85104203855674576129E-01
    0.71135982809304110219E-01
    0.88681674889664108274E-01
    0.11358563767475907125E+00
    0.14257827095963979125E+00
    0.16062329208881007125E+00
    0.14741172699512919420E+00
    0.16696818320502537780E+00
    0.11909224713909394300E+00
    0.10965508893854104822E+00
    0.26163713565646384840E+00
    0.23581545091408415149E+00
    0.20650574362885532054E+00
    0.18750201500763205575E+00
    0.20117455516234389323E+00
    0.17978915282591914626E+00
    0.20508277568055166551E+00
    0.23435131792469340861E+00
    0.26456138958444580522E+00
    0.28187964137072107906E+00
    0.26790590890099336141E+00
    0.28515352090057921597E+00
    0.24024628753869722853E+00
    0.23029901821611345469E+00
    0.14224924329769889075E+00
    0.11403185183899799959E+00
    0.85458528132764763341E-01
    0.72470334420214888027E-01
    0.83738511119876277156E-01
    0.70145489243118711031E-01
    0.88045044530355595636E-01
    0.11310704424087870967E+00
    0.14257795259062375215E+00
    0.16085804703225856094E+00
    0.14748499668007686303E+00
    0.16782050956963426303E+00
    0.11837674550359521264E+00
    0.10884764127042582949E+00
    0.46794025135983435826E+00
    0.45292372315975271135E+00
    0.43033216848241689911E+00
    0.41561262442442853393E+00
    0.42846741188858683547E+00
    0.41353364632284350666E+00
    0.43544402741041149385E+00
    0.45441177627802670225E+00
    0.47123567208212108204E+00
    0.47494604787114530486E+00
    0.47039645559341508596E+00
    0.47405278383299936928E+00
    0.45684425687429691676E+00
    0.45086181906156241883E+00
    0.37257189261782736045E+00
    0.34341188132677968881E+00
    0.31025048891179352051E+00
    0.29437902656320147354E+00
    0.30961126258886612073E+00
    0.29298561041040116493E+00
    0.31859107654470059101E+00
    0.34694821314899493281E+00
    0.38043605554442327943E+00
    0.39684767276953025750E+00
    0.38116414421291550108E+00
    0.39844244313780513567E+00
    0.35015147115660921751E+00
    0.34016349970924464330E+00
    0.46594940745183571762E+00
    0.44977195148247967049E+00
    0.42679022978671549149E+00
    0.41069296039274905130E+00
    0.42301917567304420098E+00
    0.40647967840382687177E+00
    0.42941534098665296026E+00
    0.44977923964884808372E+00
    0.46752413840794698752E+00
    0.47162343751873980757E+00
    0.46728990703811318363E+00
    0.47168651945982836837E+00
    0.45308589343689464890E+00
    0.44654923925459549805E+00
    0.36783558354830409032E+00
    0.33717882850038510822E+00
    0.30551092601683887962E+00
    0.28906096155800264924E+00
    0.30252913243643370089E+00
    0.28586860785873319246E+00
    0.30917341530540082273E+00
    0.33760075612600132233E+00
    0.37149737992189568736E+00
    0.38895478944614181316E+00
    0.37373369068351880440E+00
    0.39292083923538623225E+00
    0.34224048319916572369E+00
    0.33183514352986165363E+00
    0.25609817733087419933E+00
    0.23209194215998227295E+00
    0.20358550805611497214E+00
    0.18720999005501370860E+00
    0.20096181522713155165E+00
    0.18184794904840731466E+00
    0.20647905575319369653E+00
    0.23284307340680432397E+00
    0.26085280447742031917E+00
    0.27620983924391012687E+00
    0.26286485920705576769E+00
    0.27818361037863659213E+00
    0.23717630002008124879E+00
    0.22825381230607985628E+00
    0.13949051850438365374E+00
    0.10607685081148329753E+00
    0.70501908049319897409E-01
    0.59536966871471190543E-01
    0.75788118168952464671E-01
    0.64455272751363923422E-01
    0.84546604466573652137E-01
    0.10998554174067813605E+00
    0.14207204655389024661E+00
    0.16179571141289267322E+00
    0.14619950975238216184E+00
    0.16820819818129087442E+00
    0.11339659493387846401E+00
    0.10361339629758602177E+00
    0.25154533698726883051E+00
    0.22520737884032820952E+00
    0.19400350720366063562E+00
    0.17414764745534569435E+00
    0.19180176611987023727E+00
    0.17479087806444587594E+00
    0.20200411065772080899E+00
    0.22715693287448077142E+00
    0.25511514024502202069E+00
    0.26987928986884657245E+00
    0.25688526779101783504E+00
    0.27299842924920825205E+00
    0.23054051955701548859E+00
    0.22132483534363403543E+00
    0.12655049493888645418E+00
    0.10121892515372435395E+00
    0.78414419610443042430E-01
    0.63877393971018062158E-01
    0.69196979866247620983E-01
    0.47445773056493070752E-01
    0.67867082212154650200E-01
    0.97752411469388220122E-01
    0.13693955738452920357E+00
    0.15482051428049597996E+00
    0.13528828353895741565E+00
    0.15355051105959063862E+00
    0.10408268096327971675E+00
    0.94003226833351688496E-01
    0.49975477713463209439E-01
    0.38577514093139649021E-01
    0.28411009414068821854E-01
    0.24081889128772980546E-01
    0.27686477838885149849E-01
    0.23121073651042607644E-01
    0.28959016263944269837E-01
    0.38144469009871270759E-01
    0.50372668969280276485E-01
    0.59802376501756855653E-01
    0.52974972472325840278E-01
    0.63240365065524106747E-01
    0.40197056756993969351E-01
    0.36447660474618642779E-01
    0.16021382126743432400E-01
    0.12445477642932734758E-01
    0.91878975033379481352E-02
    0.78332651691758060225E-02
    0.90128327999962273842E-02
    0.75663784834092114376E-02
    0.94568198307428547045E-02
    0.12412955672035652643E-01
    0.16386948544625409147E-01
    0.19431710251531439382E-01
    0.17148718210461082884E-01
    0.20367390811539050344E-01
    0.13008953898638632440E-01
    0.11817940715257123363E-01
    0.46282686761614767745E-01
    0.35860902526249051336E-01
    0.25578572996972751691E-01
    0.21992851634429409075E-01
    0.26169229061373852629E-01
    0.22191859763725930998E-01
    0.28235362077374460965E-01
    0.37144016409949687230E-01
    0.49653655816414531132E-01
    0.58768288370644662655E-01
    0.51211734454818538809E-01
    0.60707380102332869631E-01
    0.38344337087621215010E-01
    0.34882453835908877604E-01
    0.13995984044080997041E-01
    0.11116784351718261500E-01
    0.80710679708816471245E-02
    0.70452639445033509238E-02
    0.83609736645263374455E-02
    0.71818454847362564117E-02
    0.91049015400920217667E-02
    0.11848236765081525748E-01
    0.15833477808161557088E-01
    0.18595855926360559118E-01
    0.15964296021714161067E-01
    0.18506190245157014967E-01
    0.12013514273654719855E-01
    0.11011870072638905299E-01
    0.52734587213361591718E-02
    0.41519502762176552571E-02
    0.31423923880759710263E-02
    0.27312242115369363832E-02
    0.30906544746566516277E-02
    0.26597562836118576225E-02
    0.32375469954468547203E-02
    0.41535958043926778441E-02
    0.54164999405968252202E-02
    0.63822002396994575307E-02
    0.56420979483188943293E-02
    0.66558400749223492476E-02
    0.43164224126890360367E-02
    0.39444737375729484533E-02
    0.20013611776222555577E-02
    0.17264735462611791560E-02
    0.15272136478461826540E-02
    0.14955387558507758812E-02
    0.15381508271473472074E-02
    0.15113134565871962425E-02
    0.15687706331440137101E-02
    0.17386090449507138420E-02
    0.20493568462461105202E-02
    0.23117992823906289082E-02
    0.21030164135481480697E-02
    0.23875834587783442871E-02
    0.17475392932326128809E-02
    0.16668447838566527713E-02
    0.46658257401639442047E-02
    0.37773273201494803053E-02
    0.28656892557981095138E-02
    0.25419213337753367339E-02
    0.29166971809282023209E-02
    0.25518116394470731663E-02
    0.31218464334503846953E-02
    0.39707671627365274253E-02
    0.52076233556179376410E-02
    0.60627223530320406564E-02
    0.52411413183768114019E-02
    0.60067084556800513437E-02
    0.40176351601704908892E-02
    0.37065501693501761056E-02
    0.18749444998599671362E-02
    0.16461024814236455052E-02
    0.14648368242803193068E-02
    0.14436313098784420410E-02
    0.14894171471921766742E-02
    0.14684930511723347842E-02
    0.15223398993983562957E-02
    0.16838603771777691832E-02
    0.19829864544965848487E-02
    0.22239183449470336859E-02
    0.20076097754090664257E-02
    0.22387992016071082621E-02
    0.16778773055747099943E-02
    0.16075936611990200575E-02
    0.30864700533463705623E-01
    0.25273963567360589050E-01
    0.17338388345130122115E-01
    0.15730747002914439309E-01
    0.20547901054883157407E-01
    0.18429601617039943762E-01
    0.24767746230527295376E-01
    0.32161309354649322834E-01
    0.45017630855217892483E-01
    0.52877954896660132877E-01
    0.42466603620169504629E-01
    0.47855765498375418820E-01
    0.30301250577447105816E-01
    0.28121036094171818209E-01
    0.97193140139435127423E-02
    0.80792834251905559784E-02
    0.58583952349420325909E-02
    0.53160899442901846448E-02
    0.65882869265568412900E-02
    0.59782428149883336949E-02
    0.78013091777000762028E-02
    0.98217318050385343103E-02
    0.13424987451309090131E-01
    0.15332870344654627934E-01
    0.12294932376989128886E-01
    0.13293715876303166534E-01
    0.92127472140836781656E-02
    0.86380436643392916746E-02
    0.35144819401039854856E-01
    0.23068257509766220553E-01
    0.15346299184059877460E-01
    0.12110161728168904877E-01
    0.13778556245535984737E-01
    0.11994181243633907780E-01
    0.16018494668706511480E-01
    0.19724795759814978124E-01
    0.28268763937260157210E-01
    0.35586975716503439771E-01
    0.33029997328003171675E-01
    0.50709803177525838991E-01
    0.22274742155489413165E-01
    0.19070414442620350903E-01
    0.77153659333111489216E-02
    0.60241689957058726715E-02
    0.45386221363499608047E-02
    0.39897898300403312685E-02
    0.46891198415953917397E-02
    0.42993590811728887163E-02
    0.55535541988536918021E-02
    0.67356304503144769427E-02
    0.90758219575926835088E-02
    0.10112163984366467212E-01
    0.85281970694224534107E-02
    0.99952998936686677373E-02
    0.64447397081777314104E-02
    0.59949583560198983420E-02
    0.35732457009183932715E-02
    0.30346122724925314769E-02
    0.23671958017925224561E-02
    0.21688145103969588834E-02
    0.25113707490536244307E-02
    0.22860434982950456062E-02
    0.28054353467366990350E-02
    0.34422180844828091303E-02
    0.45062100433017780385E-02
    0.50825944324684856762E-02
    0.42432215124584993921E-02
    0.45994046222952921985E-02
    0.33107325595256131660E-02
    0.31177906625836485956E-02
    0.16628453883377380864E-02
    0.15040073514374528371E-02
    0.13632732389563817239E-02
    0.13550514719455632705E-02
    0.14022912937405578732E-02
    0.13989673846086735608E-02
    0.14530247071149137404E-02
    0.15790953233680246094E-02
    0.18400671035567184568E-02
    0.20185718480052500419E-02
    0.18079526312396898991E-02
    0.19484151014184751798E-02
    0.15418886142612745968E-02
    0.14934035486408505505E-02
    0.29272399548452916924E-02
    0.24767618493833016072E-02
    0.20438238382918406250E-02
    0.18701039671042095618E-02
    0.20746430917475797324E-02
    0.19272248441911856570E-02
    0.22986251971223951168E-02
    0.26922565147455869428E-02
    0.34027330440162730646E-02
    0.37264506962749583373E-02
    0.32002145558279195513E-02
    0.35007906858117907554E-02
    0.25941560270465731201E-02
    0.24624236273744076753E-02
    0.15324068655724603239E-02
    0.13959439990500644314E-02
    0.12962811822471484013E-02
    0.12838256203992700916E-02
    0.13099688577318828117E-02
    0.13088857374981986616E-02
    0.13499153882604040047E-02
    0.14361109708854798584E-02
    0.16260492979515786278E-02
    0.17430323567352290753E-02
    0.15995495091160911050E-02
    0.17137806527384794042E-02
    0.14046256831808535265E-02
    0.13680791553520416873E-02
    0.46769091527558365184E+00
    0.45124230003958742952E+00
    0.42934960317007092589E+00
    0.41260824876550927787E+00
    0.42303967240923540105E+00
    0.40462744910116132946E+00
    0.42669940162084729618E+00
    0.44839645172833075826E+00
    0.46603392894362172250E+00
    0.47075411474974210302E+00
    0.46737247496434597416E+00
    0.47261960778044370679E+00
    0.45334781861516187940E+00
    0.44637496918058894302E+00
    0.37205604755322285726E+00
    0.33996058519830762989E+00
    0.30895231666991651576E+00
    0.29123491295818110247E+00
    0.30254270656518073013E+00
    0.28389494080643656870E+00
    0.30556382770502732438E+00
    0.33505059844153789461E+00
    0.36791206746554261375E+00
    0.38686093274667265884E+00
    0.37390455902470909333E+00
    0.39511471263866976278E+00
    0.34277053839616566933E+00
    0.33153021735224108557E+00
    0.47143281414305737709E+00
    0.45581622969448731819E+00
    0.43535828617125765794E+00
    0.41934046235559896409E+00
    0.42851427848257139797E+00
    0.40994269183835141401E+00
    0.43009238079906925156E+00
    0.45169501418691493377E+00
    0.46825923768970822980E+00
    0.47321963207700240561E+00
    0.47056048417213797164E+00
    0.47591619049788463913E+00
    0.45736234031125411192E+00
    0.45052501942446898653E+00
    0.38104385226005410559E+00
    0.34937333837455852859E+00
    0.31831033327289320889E+00
    0.29900188941388156083E+00
    0.30986530993543875967E+00
    0.28941344531410112539E+00
    0.31018398141131353629E+00
    0.34152888677359338754E+00
    0.37327173119517409461E+00
    0.39276339299522605719E+00
    0.38153980671780751699E+00
    0.40273823114349671659E+00
    0.35132316308454208942E+00
    0.33959339248735243011E+00
    0.25564404317102001896E+00
    0.22930852776849175445E+00
    0.20185393696369283156E+00
    0.18161168562088531031E+00
    0.19170440123097362561E+00
    0.16709728406654886235E+00
    0.19395505376985452961E+00
    0.22336597580140551966E+00
    0.25159821245729463435E+00
    0.26785108156049580730E+00
    0.25714066115734168783E+00
    0.27522412425280090575E+00
    0.23125537411930738307E+00
    0.22083566758431594224E+00
    0.13718072821521193339E+00
    0.98289780074828303480E-01
    0.66028457536237136760E-01
    0.50593858262820486094E-01
    0.67852471955254595182E-01
    0.58765477827586294624E-01
    0.78322945139741445564E-01
    0.99053857028331193657E-01
    0.12647094824496477039E+00
    0.14649002412888986746E+00
    0.13498402762818270673E+00
    0.16151543207246138456E+00
    0.10342525319546706786E+00
    0.93628032427894219980E-01
    0.26143318762224065921E+00
    0.23518282780919111397E+00
    0.20716049495969526828E+00
    0.18916078331457411577E+00
    0.20150025326666945458E+00
    0.18147583297671360247E+00
    0.20337718745344024462E+00
    0.23051414031727163190E+00
    0.25664614555865400414E+00
    0.27326212913296865636E+00
    0.26335392649005578969E+00
    0.28206598563821944081E+00
    0.23799876685853704750E+00
    0.22829221452849160490E+00
    0.14274923409288731158E+00
    0.11253713800955264523E+00
    0.84404007166157091202E-01
    0.68830326134712613295E-01
    0.76010589342276002611E-01
    0.55781619926783168606E-01
    0.69155384903252459239E-01
    0.10379013714372940791E+00
    0.14002123950766393046E+00
    0.16235286913721103108E+00
    0.14725147184190301441E+00
    0.16963475841466024718E+00
    0.11476790489737727363E+00
    0.10298637115229052064E+00
    0.47440779405978267258E+00
    0.45980841405434796920E+00
    0.44012725385784517984E+00
    0.42523888146889271544E+00
    0.43444416781987199583E+00
    0.41720686503826570624E+00
    0.43616294589506843238E+00
    0.45648568530859440218E+00
    0.47203972187454745768E+00
    0.47671340002330619967E+00
    0.47408324874288237938E+00
    0.47893070122708214509E+00
    0.46159928997289312314E+00
    0.45522977974443995519E+00
    0.38787890552655901466E+00
    0.35767253481729682774E+00
    0.32621504912853754865E+00
    0.30667312970181925813E+00
    0.31866225491427141447E+00
    0.29717202348649923715E+00
    0.31967242938236994920E+00
    0.35128711341987095551E+00
    0.38232575764406273588E+00
    0.40091138292326272685E+00
    0.38972922080960964442E+00
    0.40939445550029385235E+00
    0.36041655370089553667E+00
    0.34900182323342771040E+00
    0.47539483059864839909E+00
    0.46151828540324341121E+00
    0.44200190593258409377E+00
    0.42784322822612697035E+00
    0.43762798128308127987E+00
    0.42172186356895169368E+00
    0.44051884617571329672E+00
    0.45962964181481574810E+00
    0.47475819949307890289E+00
    0.47899315261573488511E+00
    0.47599717590202955675E+00
    0.48022824429999799722E+00
    0.46382610271953861325E+00
    0.45785483466692206145E+00
    0.39021281251428813208E+00
    0.36116882474710876316E+00
    0.32924626125420081157E+00
    0.31025901148558027165E+00
    0.32365190285079159516E+00
    0.30274298021530804403E+00
    0.32695364588954389795E+00
    0.35767187585982890274E+00
    0.38856222232748538481E+00
    0.40597962391115599567E+00
    0.39403822712824959629E+00
    0.41228678371235344402E+00
    0.36510827229874553979E+00
    0.35423008311594722519E+00
    0.26497920344077852128E+00
    0.23664640400881548077E+00
    0.20561038228260164473E+00
    0.18645344582594711169E+00
    0.20137219035560358082E+00
    0.18136389767100946635E+00
    0.20698723746172756344E+00
    0.23419100746179727368E+00
    0.26210642002547246410E+00
    0.27957543255058225906E+00
    0.26821576580340206197E+00
    0.28829784962339555232E+00
    0.24060508134555105841E+00
    0.23049825449085331597E+00
    0.14278907524438996801E+00
    0.11518167436543798321E+00
    0.88005261627309774863E-01
    0.74211662664403113543E-01
    0.83870166581566152342E-01
    0.68639240768814030469E-01
    0.85482181086699179917E-01
    0.11237059783094277554E+00
    0.14273852967257336100E+00
    0.16168846980826984128E+00
    0.14776318227791040982E+00
    0.16744351133768739515E+00