# vtk DataFile Version 3.0
LAPLACIEN  2D
ASCII
DATASET UNSTRUCTURED_GRID
 POINTS         481  float
   6.2500000000000000E-002  0.87500000000000000        0.0000000000000000     
  0.12500000000000000       0.87500000000000000        0.0000000000000000     
  0.12500000000000000       0.93750000000000000        0.0000000000000000     
   3.7499999999999999E-002  0.91249999999999998        0.0000000000000000     
   8.1250000000000003E-002  0.91874999999999996        0.0000000000000000     
   8.7499999999999994E-002  0.96250000000000002        0.0000000000000000     
   4.3749999999999997E-002  0.95625000000000004        0.0000000000000000     
  0.18750000000000000       0.87500000000000000        0.0000000000000000     
  0.25000000000000000       0.87500000000000000        0.0000000000000000     
  0.25000000000000000       0.93750000000000000        0.0000000000000000     
  0.16250000000000001       0.91249999999999998        0.0000000000000000     
  0.20624999999999999       0.91874999999999996        0.0000000000000000     
  0.21249999999999999       0.96250000000000002        0.0000000000000000     
  0.16875000000000001       0.95625000000000004        0.0000000000000000     
   6.2500000000000000E-002  0.75000000000000000        0.0000000000000000     
  0.12500000000000000       0.75000000000000000        0.0000000000000000     
  0.12500000000000000       0.81250000000000000        0.0000000000000000     
   3.7499999999999999E-002  0.78749999999999998        0.0000000000000000     
   8.1250000000000003E-002  0.79374999999999996        0.0000000000000000     
   8.7499999999999994E-002  0.83750000000000002        0.0000000000000000     
   4.3749999999999997E-002  0.83125000000000004        0.0000000000000000     
  0.18750000000000000       0.75000000000000000        0.0000000000000000     
  0.25000000000000000       0.75000000000000000        0.0000000000000000     
  0.25000000000000000       0.81250000000000000        0.0000000000000000     
  0.16250000000000001       0.78749999999999998        0.0000000000000000     
  0.20624999999999999       0.79374999999999996        0.0000000000000000     
  0.21249999999999999       0.83750000000000002        0.0000000000000000     
  0.16875000000000001       0.83125000000000004        0.0000000000000000     
  0.31250000000000000       0.87500000000000000        0.0000000000000000     
  0.37500000000000000       0.87500000000000000        0.0000000000000000     
  0.37500000000000000       0.93750000000000000        0.0000000000000000     
  0.28749999999999998       0.91249999999999998        0.0000000000000000     
  0.33124999999999999       0.91874999999999996        0.0000000000000000     
  0.33750000000000002       0.96250000000000002        0.0000000000000000     
  0.29375000000000001       0.95625000000000004        0.0000000000000000     
  0.43750000000000000       0.87500000000000000        0.0000000000000000     
  0.50000000000000000       0.87500000000000000        0.0000000000000000     
  0.50000000000000000       0.93750000000000000        0.0000000000000000     
  0.41249999999999998       0.91249999999999998        0.0000000000000000     
  0.45624999999999999       0.91874999999999996        0.0000000000000000     
  0.46250000000000002       0.96250000000000002        0.0000000000000000     
  0.41875000000000001       0.95625000000000004        0.0000000000000000     
  0.31250000000000000       0.75000000000000000        0.0000000000000000     
  0.37500000000000000       0.75000000000000000        0.0000000000000000     
  0.37500000000000000       0.81250000000000000        0.0000000000000000     
  0.28749999999999998       0.78749999999999998        0.0000000000000000     
  0.33124999999999999       0.79374999999999996        0.0000000000000000     
  0.33750000000000002       0.83750000000000002        0.0000000000000000     
  0.29375000000000001       0.83125000000000004        0.0000000000000000     
  0.43750000000000000       0.75000000000000000        0.0000000000000000     
  0.50000000000000000       0.75000000000000000        0.0000000000000000     
  0.50000000000000000       0.81250000000000000        0.0000000000000000     
  0.41249999999999998       0.78749999999999998        0.0000000000000000     
  0.45624999999999999       0.79374999999999996        0.0000000000000000     
  0.46250000000000002       0.83750000000000002        0.0000000000000000     
  0.41875000000000001       0.83125000000000004        0.0000000000000000     
   6.2500000000000000E-002  0.62500000000000000        0.0000000000000000     
  0.12500000000000000       0.62500000000000000        0.0000000000000000     
  0.12500000000000000       0.68750000000000000        0.0000000000000000     
   3.7499999999999999E-002  0.66249999999999998        0.0000000000000000     
   8.1250000000000003E-002  0.66874999999999996        0.0000000000000000     
   8.7499999999999994E-002  0.71250000000000002        0.0000000000000000     
   4.3749999999999997E-002  0.70625000000000004        0.0000000000000000     
  0.18750000000000000       0.62500000000000000        0.0000000000000000     
  0.25000000000000000       0.62500000000000000        0.0000000000000000     
  0.25000000000000000       0.68750000000000000        0.0000000000000000     
  0.16250000000000001       0.66249999999999998        0.0000000000000000     
  0.20624999999999999       0.66874999999999996        0.0000000000000000     
  0.21249999999999999       0.71250000000000002        0.0000000000000000     
  0.16875000000000001       0.70625000000000004        0.0000000000000000     
   6.2500000000000000E-002  0.50000000000000000        0.0000000000000000     
  0.12500000000000000       0.50000000000000000        0.0000000000000000     
  0.12500000000000000       0.56250000000000000        0.0000000000000000     
   3.7499999999999999E-002  0.53749999999999998        0.0000000000000000     
   8.1250000000000003E-002  0.54374999999999996        0.0000000000000000     
   8.7499999999999994E-002  0.58750000000000002        0.0000000000000000     
   4.3749999999999997E-002  0.58125000000000004        0.0000000000000000     
  0.18750000000000000       0.50000000000000000        0.0000000000000000     
  0.25000000000000000       0.50000000000000000        0.0000000000000000     
  0.25000000000000000       0.56250000000000000        0.0000000000000000     
  0.16250000000000001       0.53749999999999998        0.0000000000000000     
  0.20624999999999999       0.54374999999999996        0.0000000000000000     
  0.21249999999999999       0.58750000000000002        0.0000000000000000     
  0.16875000000000001       0.58125000000000004        0.0000000000000000     
  0.31250000000000000       0.62500000000000000        0.0000000000000000     
  0.37500000000000000       0.62500000000000000        0.0000000000000000     
  0.37500000000000000       0.68750000000000000        0.0000000000000000     
  0.28749999999999998       0.66249999999999998        0.0000000000000000     
  0.33124999999999999       0.66874999999999996        0.0000000000000000     
  0.33750000000000002       0.71250000000000002        0.0000000000000000     
  0.29375000000000001       0.70625000000000004        0.0000000000000000     
  0.43750000000000000       0.62500000000000000        0.0000000000000000     
  0.50000000000000000       0.62500000000000000        0.0000000000000000     
  0.50000000000000000       0.68750000000000000        0.0000000000000000     
  0.41249999999999998       0.66249999999999998        0.0000000000000000     
  0.45624999999999999       0.66874999999999996        0.0000000000000000     
  0.46250000000000002       0.71250000000000002        0.0000000000000000     
  0.41875000000000001       0.70625000000000004        0.0000000000000000     
  0.31250000000000000       0.50000000000000000        0.0000000000000000     
  0.37500000000000000       0.50000000000000000        0.0000000000000000     
  0.37500000000000000       0.56250000000000000        0.0000000000000000     
  0.28749999999999998       0.53749999999999998        0.0000000000000000     
  0.33124999999999999       0.54374999999999996        0.0000000000000000     
  0.33750000000000002       0.58750000000000002        0.0000000000000000     
  0.29375000000000001       0.58125000000000004        0.0000000000000000     
  0.43750000000000000       0.50000000000000000        0.0000000000000000     
  0.50000000000000000       0.50000000000000000        0.0000000000000000     
  0.50000000000000000       0.56250000000000000        0.0000000000000000     
  0.41249999999999998       0.53749999999999998        0.0000000000000000     
  0.45624999999999999       0.54374999999999996        0.0000000000000000     
  0.46250000000000002       0.58750000000000002        0.0000000000000000     
  0.41875000000000001       0.58125000000000004        0.0000000000000000     
  0.56250000000000000       0.87500000000000000        0.0000000000000000     
  0.62500000000000000       0.87500000000000000        0.0000000000000000     
  0.62500000000000000       0.93750000000000000        0.0000000000000000     
  0.53749999999999998       0.91249999999999998        0.0000000000000000     
  0.58125000000000004       0.91874999999999996        0.0000000000000000     
  0.58750000000000002       0.96250000000000002        0.0000000000000000     
  0.54374999999999996       0.95625000000000004        0.0000000000000000     
  0.68750000000000000       0.87500000000000000        0.0000000000000000     
  0.75000000000000000       0.87500000000000000        0.0000000000000000     
  0.75000000000000000       0.93750000000000000        0.0000000000000000     
  0.66249999999999998       0.91249999999999998        0.0000000000000000     
  0.70625000000000004       0.91874999999999996        0.0000000000000000     
  0.71250000000000002       0.96250000000000002        0.0000000000000000     
[...]
 CELL_DATA         896
 SCALARS Nutrients float
 LOOKUP_TABLE default
    0.47485616021636828377E+00
    0.46107708663574947794E+00
    0.44099224035101292074E+00
    0.42721687058794405312E+00
    0.43785161025440466620E+00
    0.42277657029818938028E+00
    0.44195955895436211947E+00
    0.46052530035752720083E+00
    0.47583265770187244126E+00
    0.47972275228588789897E+00
    0.47623969989457909380E+00
    0.48007512554912318281E+00
    0.46395453629883826041E+00
    0.45817822378107908587E+00
    0.38856167134417768372E+00
    0.36004395618013074198E+00
    0.32744275198049443976E+00
    0.30923326948116874879E+00
    0.32385766775051072486E+00
    0.30402278647615565976E+00
    0.32941288901673948519E+00
    0.35926959053943396949E+00
    0.39054787442848998280E+00
    0.40717839176933617873E+00
    0.39422834038105697418E+00
    0.41157060611507079173E+00
    0.36512552551832411218E+00
    0.35465561758762564892E+00
    0.47219047742413011726E+00
    0.45812021766423999258E+00
    0.43695757509309568478E+00
    0.42307911555377369917E+00
    0.43485924290150718141E+00
    0.42020430099073879937E+00
    0.44047781867885044127E+00
    0.45886215331681323715E+00
    0.47463215235763939193E+00
    0.47835857021737832051E+00
    0.47433948026729194636E+00
    0.47792833974015441756E+00
    0.46162401905613142938E+00
    0.45588202800035704243E+00
    0.38229581387461197828E+00
    0.35384050017795881660E+00
    0.32052174776358316466E+00
    0.30342845300740028947E+00
    0.31899129079654175989E+00
    0.30061737146787609332E+00
    0.32672221181504718102E+00
    0.35581613994304212012E+00
    0.38797787609217193605E+00
    0.40427972220585794982E+00
    0.38998412297965973083E+00
    0.40686417548876885331E+00
    0.36011692019714636182E+00
    0.34996944912477884193E+00
    0.26526890578479589422E+00
    0.23690751221788125536E+00
    0.20523525891598187743E+00
    0.18577302014702409827E+00
    0.19972318434681510246E+00
    0.17930846174861900244E+00
    0.20494151784632635982E+00
    0.23510380644538614314E+00
    0.26648366724127164895E+00
    0.28513634034585200183E+00
    0.27112248672988520370E+00
    0.29049088478100659749E+00
    0.24146605192304096410E+00
    0.23079034515979288122E+00
    0.14260956665705123991E+00
    0.11530974411269868940E+00
    0.88143749772514642937E-01
    0.74825671712967722904E-01
    0.85115296995276229497E-01
    0.71148971151187331841E-01
    0.88688033224461448878E-01
    0.11358679767801307947E+00
    0.14257385453411489107E+00
    0.16061794727712061515E+00
    0.14740907988655901906E+00
    0.16696440663516909364E+00
    0.11909512361571987504E+00
    0.10965951025653218609E+00
    0.26198019922744247845E+00
    0.23599089140076007221E+00
    0.20650982044914936719E+00
    0.18741930066085310536E+00
    0.20119769065766712757E+00
    0.17979067671542345308E+00
    0.20509820201348932800E+00
    0.23448940037535542791E+00
    0.26481215862022994267E+00
    0.28222896811008280071E+00
    0.26823258209951278408E+00
    0.28561491249273862625E+00
    0.24043684402397108579E+00
    0.23043951966336048698E+00
    0.14208771868752528844E+00
    0.11393381762130286305E+00
    0.85353317130907782606E-01
    0.72417669477007451384E-01
    0.83716932624071399571E-01
    0.70155854916296805923E-01
    0.88053723859519761330E-01
    0.11309906598729507765E+00
    0.14257303247364983001E+00
    0.16084887820172691364E+00
    0.14743775277348680763E+00
    0.16772461004049374345E+00
    0.11832985564470481499E+00
    0.10881770108475581627E+00
    0.46864235112970087371E+00
    0.45364870097078024980E+00
    0.43116054198499431660E+00
    0.41644753128091599459E+00
    0.42919743384435143918E+00
    0.41423260240355314066E+00
    0.43603330570657994336E+00
    0.45499204463852022107E+00
    0.47174154193880535324E+00
    0.47547589409397472693E+00
    0.47099905089295451832E+00
    0.47469522799895164100E+00
    0.45749901529383402154E+00
    0.45151440228837236290E+00
    0.37353192682265207170E+00
    0.34430843398724808591E+00
    0.31106899048005254294E+00
    0.29504816935458660909E+00
    0.31032677172729444814E+00
    0.29356120462451451569E+00
    0.31924512471044469430E+00
    0.34769189220763641046E+00
    0.38114233909266836964E+00
    0.39757924079361439684E+00
    0.38199266133654247168E+00
    0.39931559489965845477E+00
    0.35099715359334393572E+00
    0.34097091146890506907E+00
    0.46676455423715945692E+00
    0.45065090160589360568E+00
    0.42776360846085870193E+00
    0.41170939904948355981E+00
    0.42397444033762460291E+00
    0.40744945049215491872E+00
    0.43027848234621840495E+00
    0.45059696404501525802E+00
    0.46825471228479031982E+00
    0.47236146784577448532E+00
    0.46807563292405912625E+00
    0.47247303366566650862E+00
    0.45393377945512103366E+00
    0.44741360854687228787E+00
    0.36891269390689812591E+00
    0.33817538900628624221E+00
    0.30631488913310789268E+00
    0.28974139566115481026E+00
    0.30330773339372202324E+00
    0.28651721278722763753E+00
    0.31000898638421670039E+00
    0.33856852205970744407E+00
    0.37249136842117114288E+00
    0.38996084066579478344E+00
    0.37478091120037254624E+00
    0.39397342809301327815E+00
    0.34325708521353565095E+00
    0.33280965326000372384E+00
    0.25646761377514776248E+00
    0.23224394722939983859E+00
    0.20348632402627425675E+00
    0.18700655246612810090E+00
    0.20088465724757792463E+00
    0.18167127126513457624E+00
    0.20647204859161888413E+00
    0.23300557255433976267E+00
    0.26120442480795819096E+00
    0.27667978893162425980E+00
    0.26326197388709376979E+00
    0.27872527269079283574E+00
    0.23737154349616715332E+00
    0.22838081529443535200E+00
    0.13889713403373557532E+00
    0.10546376402434776143E+00
    0.69659751242191869647E-01
    0.58987951925802729891E-01
    0.75420947821398048871E-01
    0.64244422180441629333E-01
    0.84391367646062795393E-01
    0.10973937034047941130E+00
    0.14185242520567883928E+00
    0.16150410038577367455E+00
    0.14584839273092348177E+00
    0.16788064307702732503E+00
    0.11298507004444716117E+00
    0.10325192854255550723E+00
    0.25189636975123924634E+00
    0.22529740819618068737E+00
    0.19378411100656778299E+00
    0.17364341607220531993E+00
    0.19156460005883652054E+00
    0.17439223022548952513E+00
    0.20187492349973429340E+00
    0.22726097131292366527E+00
    0.25548326840095714196E+00
    0.27038924732923746985E+00
    0.25727950367405222343E+00
    0.27354353426266880822E+00
    0.23067999048916870697E+00
    0.22137382614039904927E+00
    0.12504405586568012598E+00
    0.99192972754159558502E-01
    0.76182782567264933915E-01
    0.61899809545791537047E-01
    0.67236124798054547336E-01
    0.45994421822232178787E-01
    0.66715529009960194973E-01
    0.96251093195019635229E-01
    0.13616531338670309625E+00
    0.15417385936892838427E+00
    0.13411012957722248662E+00
    0.15264730391308334312E+00
    0.10230871593299056821E+00
    0.92190300578543549204E-01
    0.50006137701960814979E-01
    0.38612695489863221865E-01
    0.28452903006053392038E-01
    0.24121667604639289439E-01
    0.27719387502330796597E-01
    0.23149695527508503540E-01
    0.28984962847091053084E-01
    0.38169491326272259046E-01
    0.50392067017958612485E-01
    0.59819628754468903709E-01
    0.52998849215093020437E-01
    0.63263051878306775233E-01
    0.40227937613408537576E-01
    0.36478286865260653449E-01
    0.16066292931704022340E-01
    0.12483716885817335018E-01
    0.92255350752337879350E-02
    0.78646799663172478612E-02
    0.90403882559641473432E-02
    0.75880163750292198635E-02
    0.94790376464408895862E-02
    0.12439002134765002328E-01
    0.16413522606854819702E-01
    0.19460411658601496632E-01
    0.17182260004543131043E-01
    0.20407417854528521473E-01
    0.13042462350505068872E-01
    0.11848730874543245140E-01
    0.46218935710530976990E-01
    0.35854650754974799753E-01
    0.25580582587150259982E-01
    0.22024215334198491562E-01
    0.26209564362886128563E-01
    0.22240628369548928051E-01
    0.28279368289380022589E-01
    0.37181491813791822665E-01
    0.49683744478556030044E-01
    0.58787106565733181218E-01
    0.51217812501625381572E-01
    0.60668858121536564654E-01
    0.38365349090326184012E-01
    0.34914664249580000532E-01
    0.14030375277431462663E-01
    0.11167275360798718103E-01
    0.81239915566479383585E-02
    0.70989647504461133795E-02
    0.84125710384263061720E-02
    0.72250785514830296111E-02
    0.91464487491638782335E-02
    0.11897414635070685529E-01
    0.15882173096753837011E-01
    0.18646716636465346384E-01
    0.16015450245089758036E-01
    0.18545895708545933472E-01
    0.12068220204575262275E-01
    0.11066225342200940174E-01
    0.53033997888811109170E-02
    0.41747522741768490831E-02
    0.31627996137482648764E-02
    0.27475915997452579793E-02
    0.31056128789280958852E-02
    0.26711809131104266753E-02
    0.32496070743203409568E-02
    0.41689438997533226697E-02
    0.54335607758455861660E-02
    0.64021416050173991091E-02
    0.56643712795482505096E-02
    0.66847215180627283723E-02
    0.43369826257983979875E-02
    0.39628659759941677401E-02
    0.20158111255800235419E-02
    0.17377494195475735698E-02
    0.15374209587566583287E-02
    0.15040656355245934136E-02
    0.15460362884818581748E-02
    0.15174864116253190816E-02
    0.15749517573051198711E-02
    0.17465248849133168350E-02
    0.20579718208783835155E-02
    0.23221421353333553290E-02
    0.21143659145761006107E-02
    0.24021333771738840115E-02
    0.17585228084141613439E-02
    0.16768369106981574190E-02
    0.47167117748064309873E-02
    0.38204298383846314359E-02
    0.29042300210235429819E-02
    0.25741341217501477814E-02
    0.29469154053918490341E-02
    0.25743088417586748942E-02
    0.31445615468480426873E-02
    0.40015022933941133548E-02
    0.52411661411878645786E-02
    0.61031296357562242472E-02
    0.52852571261393513705E-02
    0.60587394828932371674E-02
    0.40579045012483468471E-02
    0.37428852821212795117E-02
    0.19022743902348433764E-02
    0.16673787519725989485E-02
    0.14839282119041988586E-02
    0.14600033986726214733E-02
    0.15042605822938156981E-02
    0.14802382692200980775E-02
    0.15335564403115423734E-02
    0.16985031738890870191E-02
    0.19991487939656727921E-02
    0.22440186555675815244E-02
    0.20296854906596403442E-02
    0.22674768674259453485E-02
    0.16977585220812074253E-02
    0.16254405942880338458E-02
    0.30178930416978763662E-01
    0.24889478135132307723E-01
    0.17001360906889098623E-01
    0.15517327495287084813E-01
    0.20401270580330914395E-01
    0.18387488965224477178E-01
    0.24742136750593297229E-01
    0.32056194434119937575E-01
    0.44910891866299387787E-01
    0.52690548243819884666E-01
    0.42166432466325835804E-01
    0.47354868795944443649E-01
    0.30047279243613896071E-01
    0.27930025375481677685E-01
    0.95593502297283521052E-02
    0.80202492334557028142E-02
    0.58372614554869405382E-02
    0.53314856175979037645E-02
    0.66132444264775294002E-02
    0.60253699760915340258E-02
    0.78499828214392431552E-02
    0.98487832369451126791E-02
    0.13444217596246216956E-01
    0.15312882506619640219E-01
    0.12235578788516542417E-01
    0.13129729970090736613E-01
    0.91921391746378772886E-02
    0.86423045479397525570E-02
    0.33830364565742981897E-01
    0.22081326356913243830E-01
    0.14591321829740846322E-01
    0.11507505235473130048E-01
    0.13166274011507436009E-01
    0.11595311759400411117E-01
    0.15603307630588685723E-01
    0.19018216021145194217E-01
    0.27372861622263815196E-01
    0.34321012831407905763E-01
    0.31748425628476295568E-01
    0.49029796609027988252E-01
    0.21343745193206101196E-01
    0.18277146372232801197E-01
    0.73490317036198817696E-02
    0.57989003006300148674E-02
    0.44198448254889497952E-02
    0.39238976532150592752E-02
    0.46075992148070336885E-02
    0.42789429428481979417E-02
    0.55135357993240409480E-02
    0.66019570020250219547E-02
    0.88722294232504543554E-02
    0.97939052208593883886E-02
    0.81967740995364888473E-02
    0.95058060667657460346E-02
    0.62333157775621098745E-02
    0.58339276454025717003E-02
    0.36082599584359854698E-02
    0.30804059577858532680E-02
    0.24138749628520158805E-02
    0.22135214118983777970E-02
    0.25563476561781257705E-02
    0.23246104539910343936E-02
    0.28461556359726950319E-02
    0.34904637179278366101E-02
    0.45577772209902875367E-02
    0.51330028744625772266E-02
    0.42890452064324883011E-02
    0.46288735622698456290E-02
    0.33602839682876708971E-02
    0.31674018457898711100E-02
    0.17020209091992003544E-02
    0.15369589039839249862E-02
    0.13929123162874626398E-02
    0.13818869256737079630E-02
    0.14277026227395878556E-02
    0.14203888492550565455E-02
    0.14737253696449370034E-02
    0.16052665401444642535E-02
    0.18696027265673108124E-02
    0.20536332518978238013E-02
    0.18437286716263172684E-02
    0.19901957383953077299E-02
    0.15739670598052392207E-02
    0.15229303662026097161E-02
    0.29308553411511437982E-02
    0.25055431971578662545E-02
    0.20855553255894432145E-02
    0.19147771078305158860E-02
    0.21184572486749372183E-02
    0.19721761837667348659E-02
    0.23445811165222858394E-02
    0.27318174125786471272E-02
    0.34314356235993020115E-02
    0.37310335513042552046E-02
    0.32068222766666143290E-02
    0.34703413694498982424E-02
    0.26254800971394352989E-02
    0.25006414158384730924E-02
    0.15749609417743616526E-02
    0.14345338327185202121E-02
    0.13310098954916770898E-02
    0.13169485220551873511E-02
    0.13433886142725792474E-02
    0.13395355095649210623E-02
    0.13807418220648233313E-02
    0.14721773111234766687E-02
    0.16662958470620809967E-02
    0.17865333170658588991E-02
    0.16421225853918985666E-02
    0.17582287817259911484E-02
    0.14442383552495320805E-02
    0.14059197422509647334E-02
    0.46840799614230199666E+00
    0.45205045520167941309E+00
    0.43021891976724019324E+00
    0.41355653868014558006E+00
    0.42399361842534061262E+00
    0.40565857890448403511E+00
    0.42767272509483883480E+00
    0.44927989294109410556E+00
    0.46684804974469318317E+00
    0.47154329799862648720E+00
    0.46815361967298524393E+00
    0.47335059281104757689E+00
    0.45418269755826434775E+00
    0.44724696484693204912E+00
    0.37303029251021918578E+00
    0.34093033537643624431E+00
    0.30978736502931569774E+00
    0.29193054468536605572E+00
    0.30332381734950231156E+00
    0.28453264311947212839E+00
    0.30636843602434837841E+00
    0.33604081157222104315E+00
    0.36899038645645437784E+00
    0.38792613886309246229E+00
    0.37494868253083113441E+00
    0.39610109499858286997E+00
    0.34378123736052162984E+00
    0.33250712264860987633E+00
    0.47192154718802337143E+00
    0.45638630311576738885E+00
    0.43595465518874837452E+00
    0.42001770888687972594E+00
    0.42924175224891952807E+00
    0.41078584523263145245E+00
    0.43092703110169938707E+00
    0.45241894219361494800E+00
    0.46894635982399984764E+00
    0.47385977213168944955E+00
    0.47115302622313498526E+00
    0.47643853387203188854E+00
    0.45798873479344642812E+00
    0.45119422365456240964E+00
    0.38172185571615285804E+00
    0.35010734079352057169E+00
    0.31896386627986000883E+00
    0.29961274588972347521E+00
    0.31057771835144043493E+00
    0.29003352539895610462E+00
    0.31100235131915149323E+00
    0.34241368538717675829E+00
    0.37421228245757631736E+00
    0.39364291089280323277E+00
    0.38235520559784358374E+00
    0.40344842247814960423E+00
    0.35213519776863533295E+00
    0.34041390899154527760E+00
    0.25600975651107804598E+00
    0.22942877525168089980E+00
    0.20170958869481950271E+00
    0.18127200739068807800E+00
    0.19146550192942657365E+00
    0.16649407852229280991E+00
    0.19373635837861361009E+00
    0.22343942665332328090E+00
    0.25195054885174356096E+00
    0.26835231608162568584E+00
    0.25753801115111046860E+00
    0.27578083622616073045E+00
    0.23140123351059260770E+00
    0.22088190523490425221E+00
    0.13640335001731240805E+00
    0.97069604287645938623E-01
    0.64889503845144691496E-01
    0.49188914374150037589E-01
    0.65883030909368228700E-01
    0.56952367620695693029E-01
    0.76108055089371406954E-01
    0.97022754876982794658E-01
    0.12498382523222850704E+00
    0.14549526395193687622E+00
    0.13389828537891398930E+00
    0.16095555424950391821E+00
    0.10187050360288579798E+00
    0.91820022083843752525E-01
    0.26176367881837780960E+00
    0.23534704726809355102E+00
    0.20714195348157776744E+00
    0.18900941164187076704E+00
    0.20140207280910465970E+00
    0.18118768631807694036E+00
    0.20325549262607975343E+00
    0.23064189706221291387E+00
    0.25701132520312408580E+00
    0.27375510560955568229E+00
    0.26374190299006167182E+00
    0.28256276196487961627E+00
    0.23818629825344794781E+00
    0.22840304157849114497E+00
    0.14255440618114054163E+00
    0.11229496009209377627E+00
    0.84230407658209188737E-01
    0.68612866177786779875E-01
    0.75641221387715187885E-01
    0.55266541967049616357E-01
    0.68282228978280790077E-01
    0.10318082748471360532E+00
    0.13932126626303542594E+00
    0.16191591959681045365E+00
    0.14688943770177137482E+00
    0.16936504964284762598E+00
    0.11440832646528936722E+00
    0.10257431112897506809E+00
    0.47469635514897789985E+00
    0.46014528921279185258E+00
    0.44047380108364431184E+00
    0.42563641339374508332E+00
    0.43488783578118545003E+00
    0.41774356987860750134E+00
    0.43671613933928266071E+00
    0.45695107305610832560E+00
    0.47249266562668229552E+00
    0.47712369899926637684E+00
    0.47444763385299476566E+00
    0.47924346209157830945E+00
    0.46198008069800855502E+00
    0.45564118783162649295E+00
    0.38827356396931861360E+00
    0.35811602919873847251E+00
    0.32661920339306804717E+00
    0.30707585697513284373E+00
    0.31914650700149160834E+00
    0.29765249204201871258E+00
    0.32028748094388992396E+00
    0.35188834614873654161E+00
    0.38295624554007168250E+00
    0.40147472934152456103E+00
    0.39023093450896911838E+00
    0.40981233225434199330E+00
    0.36092446832921437627E+00
    0.34953120276775595521E+00
    0.47560506861101475851E+00
    0.46174555098281538923E+00
    0.44224448101743846218E+00
    0.42810273738898629858E+00
    0.43789762115659291997E+00
    0.42203354836838841146E+00
    0.44083925275471785854E+00
    0.45990374123380245441E+00
    0.47502548412290362956E+00
    0.47923837089355036944E+00
    0.47622463046217816673E+00
    0.48043838787108711363E+00
    0.46406342321033594578E+00
    0.45810523143370501797E+00
    0.39049376388458145737E+00
    0.36146398419736203156E+00
    0.32953362031147109823E+00
    0.31053432651972956435E+00
    0.32395757667358038301E+00
    0.30304960147010195914E+00
    0.32732916308426018848E+00
    0.35802750094284457871E+00
    0.38892689904797950184E+00
    0.40630633788242659366E+00
    0.39434215061987787365E+00
    0.41255894067860110486E+00
    0.36542029451777624516E+00
    0.35455157840923223755E+00
    0.26520689033245309352E+00
    0.23677466612125006029E+00
    0.20560929437445754631E+00
    0.18644263851301445811E+00
    0.20138279205111891956E+00
    0.18126092558109471731E+00
    0.20698404110635043596E+00
    0.23434247972709312813E+00
    0.26242272643009484367E+00
    0.27996581564232869699E+00
    0.26851316957735016366E+00
    0.28864661570191418871E+00
    0.24077134850938211597E+00
    0.23062597930439981964E+00
    0.14277353928513208947E+00
    0.11516264157000254131E+00
    0.88004625690111443204E-01
    0.74211904394732380874E-01
    0.83838396393123820749E-01
    0.68584729206662711776E-01
    0.85357017896099271481E-01
    0.11226823933788450394E+00
    0.14259296651589725702E+00
    0.16157994063107627980E+00
    0.14770662671311002301E+00
    0.16742260954895493708E+00