# vtk DataFile Version 3.0
LAPLACIEN  2D
ASCII
DATASET UNSTRUCTURED_GRID
 POINTS         481  float
   6.2500000000000000E-002  0.87500000000000000        0.0000000000000000     
  0.12500000000000000       0.87500000000000000        0.0000000000000000     
  0.12500000000000000       0.93750000000000000        0.0000000000000000     
   3.7499999999999999E-002  0.91249999999999998        0.0000000000000000     
   8.1250000000000003E-002  0.91874999999999996        0.0000000000000000     
   8.7499999999999994E-002  0.96250000000000002        0.0000000000000000     
   4.3749999999999997E-002  0.95625000000000004        0.0000000000000000     
  0.18750000000000000       0.87500000000000000        0.0000000000000000     
  0.25000000000000000       0.87500000000000000        0.0000000000000000     
  0.25000000000000000       0.93750000000000000        0.0000000000000000     
  0.16250000000000001       0.91249999999999998        0.0000000000000000     
  0.20624999999999999       0.91874999999999996        0.0000000000000000     
  0.21249999999999999       0.96250000000000002        0.0000000000000000     
  0.16875000000000001       0.95625000000000004        0.0000000000000000     
   6.2500000000000000E-002  0.75000000000000000        0.0000000000000000     
  0.12500000000000000       0.75000000000000000        0.0000000000000000     
  0.12500000000000000       0.81250000000000000        0.0000000000000000     
   3.7499999999999999E-002  0.78749999999999998        0.0000000000000000     
   8.1250000000000003E-002  0.79374999999999996        0.0000000000000000     
   8.7499999999999994E-002  0.83750000000000002        0.0000000000000000     
   4.3749999999999997E-002  0.83125000000000004        0.0000000000000000     
  0.18750000000000000       0.75000000000000000        0.0000000000000000     
  0.25000000000000000       0.75000000000000000        0.0000000000000000     
  0.25000000000000000       0.81250000000000000        0.0000000000000000     
  0.16250000000000001       0.78749999999999998        0.0000000000000000     
  0.20624999999999999       0.79374999999999996        0.0000000000000000     
  0.21249999999999999       0.83750000000000002        0.0000000000000000     
  0.16875000000000001       0.83125000000000004        0.0000000000000000     
  0.31250000000000000       0.87500000000000000        0.0000000000000000     
  0.37500000000000000       0.87500000000000000        0.0000000000000000     
  0.37500000000000000       0.93750000000000000        0.0000000000000000     
  0.28749999999999998       0.91249999999999998        0.0000000000000000     
  0.33124999999999999       0.91874999999999996        0.0000000000000000     
  0.33750000000000002       0.96250000000000002        0.0000000000000000     
  0.29375000000000001       0.95625000000000004        0.0000000000000000     
  0.43750000000000000       0.87500000000000000        0.0000000000000000     
  0.50000000000000000       0.87500000000000000        0.0000000000000000     
  0.50000000000000000       0.93750000000000000        0.0000000000000000     
  0.41249999999999998       0.91249999999999998        0.0000000000000000     
  0.45624999999999999       0.91874999999999996        0.0000000000000000     
  0.46250000000000002       0.96250000000000002        0.0000000000000000     
  0.41875000000000001       0.95625000000000004        0.0000000000000000     
  0.31250000000000000       0.75000000000000000        0.0000000000000000     
  0.37500000000000000       0.75000000000000000        0.0000000000000000     
  0.37500000000000000       0.81250000000000000        0.0000000000000000     
  0.28749999999999998       0.78749999999999998        0.0000000000000000     
  0.33124999999999999       0.79374999999999996        0.0000000000000000     
  0.33750000000000002       0.83750000000000002        0.0000000000000000     
  0.29375000000000001       0.83125000000000004        0.0000000000000000     
  0.43750000000000000       0.75000000000000000        0.0000000000000000     
  0.50000000000000000       0.75000000000000000        0.0000000000000000     
  0.50000000000000000       0.81250000000000000        0.0000000000000000     
  0.41249999999999998       0.78749999999999998        0.0000000000000000     
  0.45624999999999999       0.79374999999999996        0.0000000000000000     
  0.46250000000000002       0.83750000000000002        0.0000000000000000     
  0.41875000000000001       0.83125000000000004        0.0000000000000000     
   6.2500000000000000E-002  0.62500000000000000        0.0000000000000000     
  0.12500000000000000       0.62500000000000000        0.0000000000000000     
  0.12500000000000000       0.68750000000000000        0.0000000000000000     
   3.7499999999999999E-002  0.66249999999999998        0.0000000000000000     
   8.1250000000000003E-002  0.66874999999999996        0.0000000000000000     
   8.7499999999999994E-002  0.71250000000000002        0.0000000000000000     
   4.3749999999999997E-002  0.70625000000000004        0.0000000000000000     
  0.18750000000000000       0.62500000000000000        0.0000000000000000     
  0.25000000000000000       0.62500000000000000        0.0000000000000000     
  0.25000000000000000       0.68750000000000000        0.0000000000000000     
  0.16250000000000001       0.66249999999999998        0.0000000000000000     
  0.20624999999999999       0.66874999999999996        0.0000000000000000     
  0.21249999999999999       0.71250000000000002        0.0000000000000000     
  0.16875000000000001       0.70625000000000004        0.0000000000000000     
   6.2500000000000000E-002  0.50000000000000000        0.0000000000000000     
  0.12500000000000000       0.50000000000000000        0.0000000000000000     
  0.12500000000000000       0.56250000000000000        0.0000000000000000     
   3.7499999999999999E-002  0.53749999999999998        0.0000000000000000     
   8.1250000000000003E-002  0.54374999999999996        0.0000000000000000     
   8.7499999999999994E-002  0.58750000000000002        0.0000000000000000     
   4.3749999999999997E-002  0.58125000000000004        0.0000000000000000     
  0.18750000000000000       0.50000000000000000        0.0000000000000000     
  0.25000000000000000       0.50000000000000000        0.0000000000000000     
  0.25000000000000000       0.56250000000000000        0.0000000000000000     
  0.16250000000000001       0.53749999999999998        0.0000000000000000     
  0.20624999999999999       0.54374999999999996        0.0000000000000000     
  0.21249999999999999       0.58750000000000002        0.0000000000000000     
  0.16875000000000001       0.58125000000000004        0.0000000000000000     
  0.31250000000000000       0.62500000000000000        0.0000000000000000     
  0.37500000000000000       0.62500000000000000        0.0000000000000000     
  0.37500000000000000       0.68750000000000000        0.0000000000000000     
  0.28749999999999998       0.66249999999999998        0.0000000000000000     
  0.33124999999999999       0.66874999999999996        0.0000000000000000     
  0.33750000000000002       0.71250000000000002        0.0000000000000000     
  0.29375000000000001       0.70625000000000004        0.0000000000000000     
  0.43750000000000000       0.62500000000000000        0.0000000000000000     
  0.50000000000000000       0.62500000000000000        0.0000000000000000     
  0.50000000000000000       0.68750000000000000        0.0000000000000000     
  0.41249999999999998       0.66249999999999998        0.0000000000000000     
  0.45624999999999999       0.66874999999999996        0.0000000000000000     
  0.46250000000000002       0.71250000000000002        0.0000000000000000     
  0.41875000000000001       0.70625000000000004        0.0000000000000000     
  0.31250000000000000       0.50000000000000000        0.0000000000000000     
  0.37500000000000000       0.50000000000000000        0.0000000000000000     
  0.37500000000000000       0.56250000000000000        0.0000000000000000     
  0.28749999999999998       0.53749999999999998        0.0000000000000000     
  0.33124999999999999       0.54374999999999996        0.0000000000000000     
  0.33750000000000002       0.58750000000000002        0.0000000000000000     
  0.29375000000000001       0.58125000000000004        0.0000000000000000     
  0.43750000000000000       0.50000000000000000        0.0000000000000000     
  0.50000000000000000       0.50000000000000000        0.0000000000000000     
  0.50000000000000000       0.56250000000000000        0.0000000000000000     
  0.41249999999999998       0.53749999999999998        0.0000000000000000     
  0.45624999999999999       0.54374999999999996        0.0000000000000000     
  0.46250000000000002       0.58750000000000002        0.0000000000000000     
  0.41875000000000001       0.58125000000000004        0.0000000000000000     
  0.56250000000000000       0.87500000000000000        0.0000000000000000     
  0.62500000000000000       0.87500000000000000        0.0000000000000000     
  0.62500000000000000       0.93750000000000000        0.0000000000000000     
  0.53749999999999998       0.91249999999999998        0.0000000000000000     
  0.58125000000000004       0.91874999999999996        0.0000000000000000     
  0.58750000000000002       0.96250000000000002        0.0000000000000000     
  0.54374999999999996       0.95625000000000004        0.0000000000000000     
  0.68750000000000000       0.87500000000000000        0.0000000000000000     
  0.75000000000000000       0.87500000000000000        0.0000000000000000     
  0.75000000000000000       0.93750000000000000        0.0000000000000000     
  0.66249999999999998       0.91249999999999998        0.0000000000000000     
  0.70625000000000004       0.91874999999999996        0.0000000000000000     
  0.71250000000000002       0.96250000000000002        0.0000000000000000     
[...]
 CELL_DATA         896
 SCALARS Nutrients float
 LOOKUP_TABLE default
    0.46688531893484486179E+00
    0.45333624206186268202E+00
    0.43278248062131302598E+00
    0.41929321273345881993E+00
    0.43049159682610205202E+00
    0.41565372975482872686E+00
    0.43501143416483695203E+00
    0.45363234524351109256E+00
    0.46911805498775521750E+00
    0.47296018779588266945E+00
    0.46915218941871617009E+00
    0.47261387143034178093E+00
    0.45673205814537054525E+00
    0.45103794336032804191E+00
    0.37986771511718525618E+00
    0.35199155013367061651E+00
    0.31953236525949157976E+00
    0.30227790620387451348E+00
    0.31696301110214114560E+00
    0.29781577794468971909E+00
    0.32272485437175812972E+00
    0.35221614016495289556E+00
    0.38343030434204022905E+00
    0.40000522087285028672E+00
    0.38668129586288618738E+00
    0.40355337673777352814E+00
    0.35761857235869742855E+00
    0.34738498685036317548E+00
    0.46052656960206428405E+00
    0.44677204070386705714E+00
    0.42456252149042228439E+00
    0.41115216934235904178E+00
    0.42435574416908872220E+00
    0.41055589713668005913E+00
    0.43178599730680577995E+00
    0.44987111879912050627E+00
    0.46624389102559671283E+00
    0.46955045545284340713E+00
    0.46452232006668958686E+00
    0.46723984922178940504E+00
    0.45142843358240414275E+00
    0.44592594284084102751E+00
    0.36881909130523099494E+00
    0.34157616467785600900E+00
    0.30881027260356053166E+00
    0.29341757703330156870E+00
    0.30917484569209158218E+00
    0.29259864672448432366E+00
    0.31835266194096883963E+00
    0.34628830686007799899E+00
    0.37874370302394766430E+00
    0.39449309611924099350E+00
    0.37891595601952643424E+00
    0.39469439345991458312E+00
    0.34898147914671739933E+00
    0.33940743688669700040E+00
    0.26051706393624024516E+00
    0.23430177472171959119E+00
    0.20480682576270203832E+00
    0.18575315856033008943E+00
    0.19932699680958870792E+00
    0.17913608549825774108E+00
    0.20430966276427531270E+00
    0.23267830953628046431E+00
    0.26208561189815371417E+00
    0.27965748052058353457E+00
    0.26628030462499019393E+00
    0.28435727166506735708E+00
    0.23859657298935349479E+00
    0.22859912814958471827E+00
    0.14306788626358135641E+00
    0.11570638044401004851E+00
    0.88655964617372434722E-01
    0.75145125308929930363E-01
    0.85321460014288016960E-01
    0.71230298649392953525E-01
    0.88808826224231154911E-01
    0.11372205738434118527E+00
    0.14262403345626123441E+00
    0.16059043993698401964E+00
    0.14753002877757609435E+00
    0.16711100539179954416E+00
    0.11930350345725514172E+00
    0.10984229812436049900E+00
    0.25626603751355214733E+00
    0.23306652425693744068E+00
    0.20659596147390660303E+00
    0.18883355784815269995E+00
    0.20087245548671645023E+00
    0.18007772305600738827E+00
    0.20467245112327783763E+00
    0.23180617356845373278E+00
    0.25982730343109855520E+00
    0.27549006139429565998E+00
    0.26228311122093062036E+00
    0.27748255893263729099E+00
    0.23705708494898394822E+00
    0.22792024934327390073E+00
    0.14568014469702614266E+00
    0.11679949507436683531E+00
    0.88662098818502815822E-01
    0.74921460518257612660E-01
    0.85417685552513111791E-01
    0.71146163625004726905E-01
    0.88772937307543001162E-01
    0.11409631276458558069E+00
    0.14319347063108012197E+00
    0.16149480191259799056E+00
    0.14897258456443648877E+00
    0.16986017147501028535E+00
    0.12017948907568590244E+00
    0.11041744241974781049E+00
    0.45256946368980954798E+00
    0.43746153419924510564E+00
    0.41346216494578519329E+00
    0.39896153696185038262E+00
    0.41346349340370797121E+00
    0.39941179962638423406E+00
    0.42283270859381133500E+00
    0.44157385188876563387E+00
    0.45939950801996765062E+00
    0.46258857281463156008E+00
    0.45680368489145944944E+00
    0.45964886276203298365E+00
    0.44259836816319314545E+00
    0.43678144012140690533E+00
    0.35466059945542349752E+00
    0.32777521386616970123E+00
    0.29778264361966677587E+00
    0.28427472740591142042E+00
    0.29811110163305487575E+00
    0.28391396740558738632E+00
    0.30718688032149582545E+00
    0.33345260449385161206E+00
    0.36682655250170431716E+00
    0.38247868486657848885E+00
    0.36543373876621304541E+00
    0.38148834591120023285E+00
    0.33496710646349592277E+00
    0.32588889144039356882E+00
    0.44852865270865616143E+00
    0.43148092534041604384E+00
    0.40718364635891057812E+00
    0.39057985696472236059E+00
    0.40385054649327606358E+00
    0.38743265324512027314E+00
    0.41189193824655440102E+00
    0.43265291977395492484E+00
    0.45163193313901284220E+00
    0.45550594989954357183E+00
    0.45038065537098648239E+00
    0.45468091531217674772E+00
    0.43532071651594511641E+00
    0.42860270370711078813E+00
    0.34756547968105960811E+00
    0.31956064080735907540E+00
    0.29258570329660865683E+00
    0.27870274874751255201E+00
    0.29011838547682983203E+00
    0.27630459418925729098E+00
    0.29652401280695528385E+00
    0.32081642764629253461E+00
    0.35293582939628848072E+00
    0.36962286618085604673E+00
    0.35393070318844477296E+00
    0.37250490896727195267E+00
    0.32402239840342922372E+00
    0.31487646093188664809E+00
    0.25112702238839734736E+00
    0.23039656504963790251E+00
    0.20576908693518494720E+00
    0.19089545408138150484E+00
    0.20262770499122079171E+00
    0.18497044517587934997E+00
    0.20684708563199283304E+00
    0.23063440790345463016E+00
    0.25550764870690412245E+00
    0.26903905176008530153E+00
    0.25712515878628422472E+00
    0.27025303179389476016E+00
    0.23467410898299709276E+00
    0.22676321326116447019E+00
    0.15086557062053018718E+00
    0.11787095444925836663E+00
    0.87231050738570237169E-01
    0.70927575906042733545E-01
    0.82982990086691826859E-01
    0.69373712724251343498E-01
    0.88514676319654081449E-01
    0.11498858399695457977E+00
    0.14637806547207601882E+00
    0.16671676717674172030E+00
    0.15233423653906530415E+00
    0.17392009157301491218E+00
    0.12083103537591019516E+00
    0.11025514768916000463E+00
    0.24728720479509463948E+00
    0.22532091685816266202E+00
    0.20076375756540315587E+00
    0.18730266969415207412E+00
    0.19812812254948805601E+00
    0.18336616847732561952E+00
    0.20481795831853802370E+00
    0.22648432471851898118E+00
    0.25024963304145764198E+00
    0.26273483603401442954E+00
    0.25173403285285284037E+00
    0.26522076134368005595E+00
    0.22958279517595081565E+00
    0.22181505504887191749E+00
    0.16030214313766497081E+00
    0.14267814097908787518E+00
    0.12118720768126237108E+00
    0.10181290518240276866E+00
    0.10450550928476252943E+00
    0.75504217398056044930E-01
    0.90102483981273170932E-01
    0.12448412890040867762E+00
    0.15183599253117394112E+00
    0.16819889765768214485E+00
    0.15900231074655224450E+00
    0.17434658059761848348E+00
    0.13791940519152998124E+00
    0.12728691828647326068E+00
    0.50343605801273838551E-01
    0.38665111941951810226E-01
    0.28440637617957537087E-01
    0.23948279294252604321E-01
    0.27508038351871360455E-01
    0.22860301758970066888E-01
    0.28760124685840000869E-01
    0.38022531734942466297E-01
    0.50346864415944006521E-01
    0.59836825903801980908E-01
    0.53037247432636498712E-01
    0.63516155490966424990E-01
    0.40127875981576896502E-01
    0.36313346702062571092E-01
    0.15840008838776752087E-01
    0.12114622839732060167E-01
    0.88109468587353346331E-02
    0.74004207015128838087E-02
    0.85799570441169991514E-02
    0.71277549434837191369E-02
    0.90514100771073129070E-02
    0.12024114986514664039E-01
    0.16056185451263107339E-01
    0.19126734039851312624E-01
    0.16838544698534508443E-01
    0.20174352081404750558E-01
    0.12600544786702225913E-01
    0.11383705934626359851E-01
    0.49121126308630490287E-01
    0.37712095082171201432E-01
    0.27333384853243221368E-01
    0.23109289432733468722E-01
    0.26908194892972876061E-01
    0.22428519967705718569E-01
    0.28399751196204532644E-01
    0.37674175916902329087E-01
    0.50202470497672631311E-01
    0.59666203044712685932E-01
    0.52611563693530427610E-01
    0.63006858097739773528E-01
    0.39524144931850462015E-01
    0.35772631052357624359E-01
    0.15004155237235318118E-01
    0.11524674126237864288E-01
    0.83066478261698863117E-02
    0.70030952227532819454E-02
    0.82182361650089356259E-02
    0.68505910959366965798E-02
    0.87743463652934401698E-02
    0.11688043152352618759E-01
    0.15736452449244774793E-01
    0.18716342581289700797E-01
    0.16300555543668129171E-01
    0.19406311500870319919E-01
    0.12121703136909731113E-01
    0.10967721344011355580E-01
    0.48122956086189107652E-02
    0.36618919240188133046E-02
    0.26449501416838626378E-02
    0.22403258795380400978E-02
    0.26116794217894536215E-02
    0.22151959424281928747E-02
    0.28057480262680110396E-02
    0.36952691689923311373E-02
    0.49771200834643923236E-02
    0.59306837516139784827E-02
    0.51698116548222049910E-02
    0.62041960257550217428E-02
    0.37930428635548751187E-02
    0.34250782307730692940E-02
    0.15163149663998164510E-02
    0.12631476026329889212E-02
    0.10826842106977552400E-02
    0.10827236733800516509E-02
    0.11282300179363611951E-02
    0.11465063058581444113E-02
    0.12042974865191574327E-02
    0.13298832229911542076E-02
    0.16399994970050287696E-02
    0.18724034407709008124E-02
    0.16420966348556489608E-02
    0.19052566059049695635E-02
    0.12607319537153488433E-02
    0.11955424680887695270E-02
    0.44969348581418459518E-02
    0.34207968048390225042E-02
    0.24468294108721576688E-02
    0.20684743694818221414E-02
    0.24331685860149616929E-02
    0.20532050002426524733E-02
    0.26278378779178990232E-02
    0.34968102495286377054E-02
    0.47597669680688450486E-02
    0.56783456122469315452E-02
    0.49013878913073327323E-02
    0.58575187589443430611E-02
    0.35665194131223637748E-02
    0.32179497134213952067E-02
    0.13788247531050454048E-02
    0.11399975582361628230E-02
    0.97154047631478840461E-03
    0.97216135018239754288E-03
    0.10107808416716019574E-02
    0.10241933414556671916E-02
    0.10700516968800920757E-02
    0.11946389005582701368E-02
    0.14866318128787725170E-02
    0.17193171076787018298E-02
    0.14997855587484711093E-02
    0.17499137457877686399E-02
    0.11333896045611828538E-02
    0.10700941746030069156E-02
    0.44540239756741206723E-01
    0.33272243474038981637E-01
    0.23833818191321035074E-01
    0.20524706921747622873E-01
    0.24532342416933548834E-01
    0.20901171172957002525E-01
    0.27016057836015339860E-01
    0.35646476818805408748E-01
    0.48536673461787499528E-01
    0.57524894339197753246E-01
    0.48769661300253591696E-01
    0.58211242955829883838E-01
    0.35883724254657682617E-01
    0.32772894452223380601E-01
    0.13575690036525324064E-01
    0.10498923658625930119E-01
    0.76173201142472829819E-02
    0.64283793968225354590E-02
    0.75669407422274820307E-02
    0.63573626700780677679E-02
    0.82178009204186275305E-02
    0.10884730443648548900E-01
    0.14761230480628542358E-01
    0.17408984919051108398E-01
    0.14884717047977984866E-01
    0.17368470842135420862E-01
    0.11093177360072118895E-01
    0.10083380396227714995E-01
    0.58328142722973493062E-01
    0.38859009005066023901E-01
    0.26428730781011936651E-01
    0.21194502986397037447E-01
    0.23607226918992120501E-01
    0.18893247232818273507E-01
    0.23670780411685382605E-01
    0.32700257548310379674E-01
    0.45528088121980829495E-01
    0.59775680791959419358E-01
    0.57201016254437610231E-01
    0.83134327557043544155E-01
    0.38493895305327027745E-01
    0.32762012819644470429E-01
    0.13747242339835014091E-01
    0.10341820677967130185E-01
    0.74831489356342942298E-02
    0.62183825542963151733E-02
    0.71805023064669465035E-02
    0.59264404219582025868E-02
    0.75704840393179531274E-02
    0.10059904146562626340E-01
    0.13430395164622618842E-01
    0.15887560873281348500E-01
    0.14282758069434343257E-01
    0.17605823330104415636E-01
    0.10636320994417709090E-01
    0.95609426820455339913E-02
    0.41475485356598455061E-02
    0.31447206339414524381E-02
    0.22459212819128733692E-02
    0.18901594455611040509E-02
    0.22277732388554069738E-02
    0.18781632185217976300E-02
    0.24237839457161300741E-02
    0.32304576217243021960E-02
    0.44242903609993146363E-02
    0.52627993819479241058E-02
    0.45156000512272540318E-02
    0.53818387663158188602E-02
    0.32741282329555149687E-02
    0.29533584567444561703E-02
    0.12555907769632747555E-02
    0.10295340649989761714E-02
    0.87704549446476808353E-03
    0.87625654065824317221E-03
    0.90715926152498812737E-03
    0.91994214823997138685E-03
    0.96032439984512383765E-03
    0.10754880239348288233E-02
    0.13487554977233801815E-02
    0.15651164826248349215E-02
    0.13597473630639947927E-02
    0.15945986832016150955E-02
    0.10151893655606367747E-02
    0.95595889277795889887E-03
    0.40308043174393419841E-02
    0.30163933291191507950E-02
    0.21609443169151288343E-02
    0.17971987343610577089E-02
    0.20897594876437934619E-02
    0.17373424565649932868E-02
    0.22334177848512956274E-02
    0.29998019377899453816E-02
    0.40983478966075369276E-02
    0.49061718403101434866E-02
    0.42734647668294821130E-02
    0.51891276694374021891E-02
    0.30916522952735571959E-02
    0.27711877704874594668E-02
    0.12038761371033740010E-02
    0.97319334177635213792E-03
    0.83446969193703784094E-03
    0.82539533283795731705E-03
    0.83954670076481741851E-03
    0.84227121066844971246E-03
    0.87124453602614401228E-03
    0.98281390535367714294E-03
    0.12329698962298724259E-02
    0.14431783909564942139E-02
    0.12677766790488733100E-02
    0.15127148241594712101E-02
    0.94011030620320577226E-03
    0.87913476244884391792E-03
    0.45208623809446046860E+00
    0.43430984761873442368E+00
    0.41177630798042036409E+00
    0.39390101567288110518E+00
    0.40393777696954974443E+00
    0.38439869594829928490E+00
    0.40710088081267886695E+00
    0.43006414813559484811E+00
    0.44863419017621558593E+00
    0.45372613773380104929E+00
    0.45057306984427780705E+00
    0.45664855095581324829E+00
    0.43585386449031410239E+00
    0.42831741903769476876E+00
    0.35398325683754450210E+00
    0.32319788536365007259E+00
    0.29646462146510699220E+00
    0.28103433281252110376E+00
    0.29025684562139159040E+00
    0.27444447551071027291E+00
    0.29265801289810677854E+00
    0.31782796982585442835E+00
    0.34764553734994907419E+00
    0.36636816065999294745E+00
    0.35426776336071102991E+00
    0.37611310210856940817E+00
    0.32485477674860585573E+00
    0.31468540889182827769E+00
    0.45996301611529455400E+00
    0.44319484168582856665E+00
    0.42269392287865104052E+00
    0.40555417227652240664E+00
    0.41362155763266822417E+00
    0.39335034510923255757E+00
    0.41317083985340363750E+00
    0.43633438070887786697E+00
    0.45320143573947607729E+00
    0.45891638073094248584E+00
    0.45719901146293795424E+00
    0.46373154836941526957E+00
    0.44368036568861640712E+00
    0.43620778429212558880E+00
    0.36797543539832833215E+00
    0.33600606136718996764E+00
    0.30696605042232466554E+00
    0.28921395198255134273E+00
    0.29835679619008392827E+00
    0.28014650214610697931E+00
    0.29783753766647469430E+00
    0.32622560971726521917E+00
    0.35580829173697975376E+00
    0.37590078016260264349E+00
    0.36608237478956645594E+00
    0.38869933614392115917E+00
    0.33667158330960977874E+00
    0.32519467985688366163E+00
    0.25092118619028619397E+00
    0.22857050373564941070E+00
    0.20510069628594204683E+00
    0.18881407119351584223E+00
    0.19844170796453258765E+00
    0.18293469802494360943E+00
    0.20080343572277459252E+00
    0.22384703405804851073E+00
    0.24735503756052693025E+00
    0.26098184892001119461E+00
    0.25208327731716845266E+00
    0.26743495096516456400E+00
    0.23031751982904730136E+00
    0.22165915058961230266E+00
    0.15140616278153135044E+00
    0.12344922566237112593E+00
    0.88918226215740761575E-01
    0.77904088775389235266E-01
    0.10224932597170414972E+00
    0.93174653697441878197E-01
    0.12061904085989826052E+00
    0.13999484276655460580E+00
    0.16009965373178777770E+00
    0.16996365361744303346E+00
    0.15783089244043188581E+00
    0.17329936952711744169E+00
    0.13368889074549392126E+00
    0.12794911142397588644E+00
    0.25625673674840399041E+00
    0.23295362245256281963E+00
    0.20780553732195655714E+00
    0.19191493486378480293E+00
    0.20352311504042522317E+00
    0.18634800072954280092E+00
    0.20607908941043845408E+00
    0.22931863784173003862E+00
    0.25182064576511437037E+00
    0.26618326728155844441E+00
    0.25772934217645498967E+00
    0.27428971084756204046E+00
    0.23560128855763814992E+00
    0.22716802457613538557E+00
    0.14680783577119160821E+00
    0.11762750315712454385E+00
    0.88687526681393596961E-01
    0.73825737993125098435E-01
    0.83291709286873141793E-01
    0.66514247494139033812E-01
    0.87040717880315490729E-01
    0.11603025548021429769E+00
    0.15123517615977469242E+00
    0.16936725486406595254E+00
    0.15394516462430399284E+00
    0.17417563743539632437E+00
    0.12158517353591291599E+00
    0.11083570721484146959E+00
    0.46658453821617368318E+00
    0.45133246818327238392E+00
    0.43179182554012651707E+00
    0.41624535662875178366E+00
    0.42449980643137058545E+00
    0.40594259749390004810E+00
    0.42425474351553954522E+00
    0.44574719405410417883E+00
    0.46121644446724230360E+00
    0.46657980368267776283E+00
    0.46485469837753445876E+00
    0.47057972687556504088E+00
    0.45230230396712106655E+00
    0.44549443554226297870E+00
    0.37944025483690635436E+00
    0.34880497338396798668E+00
    0.31829029775018069515E+00
    0.29895475536803645111E+00
    0.30964559191446178188E+00
    0.28866897595519885877E+00
    0.30875684887730592276E+00
    0.34000091159127393547E+00
    0.37004716953316696415E+00
    0.38946577906263885049E+00
    0.37949259890486874980E+00
    0.40028504907328721352E+00
    0.35049938287535897796E+00
    0.33888928050735095399E+00
    0.46900923045163317449E+00
    0.45498599451522120374E+00
    0.43542480238744818433E+00
    0.42114646973468905511E+00
    0.43065297675718705595E+00
    0.41423564336640444905E+00
    0.43263214520811599240E+00
    0.45228948090817788774E+00
    0.46732553733101322990E+00
    0.47190832186867853748E+00
    0.46928610899353545571E+00
    0.47378819013587958331E+00
    0.45709627096459531925E+00
    0.45096774175533743678E+00
    0.38354645953976995720E+00
    0.35458994251130182551E+00
    0.32309055106231537868E+00
    0.30448374447046550051E+00
    0.31725973386388678366E+00
    0.29644123094488911141E+00
    0.31945193251932824108E+00
    0.35019571181809550087E+00
    0.38061055888889139265E+00
    0.39844000044817418082E+00
    0.38699535180146221736E+00
    0.40555177272913756070E+00
    0.35825521193463844005E+00
    0.34733475064106283936E+00
    0.26051788138334808220E+00
    0.23421672671268001231E+00
    0.20548620396287994860E+00
    0.18691276162106923442E+00
    0.20136655352281740416E+00
    0.18326458772324613622E+00
    0.20732721213805546667E+00
    0.23183047462709960307E+00
    0.25697238474079081572E+00
    0.27283770691188469204E+00
    0.26290920502136261305E+00
    0.28168702601379613792E+00
    0.23770673073685855137E+00
    0.22838651185892958062E+00
    0.14354621353627200486E+00
    0.11633148522287128923E+00
    0.88930230855823272362E-01
    0.75343204095936172626E-01
    0.85707429086589778655E-01
    0.71115850286238291300E-01
    0.89009692681498150946E-01
    0.11526187025030401601E+00
    0.14603593276063281392E+00
    0.16414360176385162093E+00
    0.14944131142995040196E+00
    0.16824135091872496894E+00