# vtk DataFile Version 3.0
LAPLACIEN  2D
ASCII
DATASET UNSTRUCTURED_GRID
 POINTS         481  float
   6.2500000000000000E-002  0.87500000000000000        0.0000000000000000     
  0.12500000000000000       0.87500000000000000        0.0000000000000000     
  0.12500000000000000       0.93750000000000000        0.0000000000000000     
   3.7499999999999999E-002  0.91249999999999998        0.0000000000000000     
   8.1250000000000003E-002  0.91874999999999996        0.0000000000000000     
   8.7499999999999994E-002  0.96250000000000002        0.0000000000000000     
   4.3749999999999997E-002  0.95625000000000004        0.0000000000000000     
  0.18750000000000000       0.87500000000000000        0.0000000000000000     
  0.25000000000000000       0.87500000000000000        0.0000000000000000     
  0.25000000000000000       0.93750000000000000        0.0000000000000000     
  0.16250000000000001       0.91249999999999998        0.0000000000000000     
  0.20624999999999999       0.91874999999999996        0.0000000000000000     
  0.21249999999999999       0.96250000000000002        0.0000000000000000     
  0.16875000000000001       0.95625000000000004        0.0000000000000000     
   6.2500000000000000E-002  0.75000000000000000        0.0000000000000000     
  0.12500000000000000       0.75000000000000000        0.0000000000000000     
  0.12500000000000000       0.81250000000000000        0.0000000000000000     
   3.7499999999999999E-002  0.78749999999999998        0.0000000000000000     
   8.1250000000000003E-002  0.79374999999999996        0.0000000000000000     
   8.7499999999999994E-002  0.83750000000000002        0.0000000000000000     
   4.3749999999999997E-002  0.83125000000000004        0.0000000000000000     
  0.18750000000000000       0.75000000000000000        0.0000000000000000     
  0.25000000000000000       0.75000000000000000        0.0000000000000000     
  0.25000000000000000       0.81250000000000000        0.0000000000000000     
  0.16250000000000001       0.78749999999999998        0.0000000000000000     
  0.20624999999999999       0.79374999999999996        0.0000000000000000     
  0.21249999999999999       0.83750000000000002        0.0000000000000000     
  0.16875000000000001       0.83125000000000004        0.0000000000000000     
  0.31250000000000000       0.87500000000000000        0.0000000000000000     
  0.37500000000000000       0.87500000000000000        0.0000000000000000     
  0.37500000000000000       0.93750000000000000        0.0000000000000000     
  0.28749999999999998       0.91249999999999998        0.0000000000000000     
  0.33124999999999999       0.91874999999999996        0.0000000000000000     
  0.33750000000000002       0.96250000000000002        0.0000000000000000     
  0.29375000000000001       0.95625000000000004        0.0000000000000000     
  0.43750000000000000       0.87500000000000000        0.0000000000000000     
  0.50000000000000000       0.87500000000000000        0.0000000000000000     
  0.50000000000000000       0.93750000000000000        0.0000000000000000     
  0.41249999999999998       0.91249999999999998        0.0000000000000000     
  0.45624999999999999       0.91874999999999996        0.0000000000000000     
  0.46250000000000002       0.96250000000000002        0.0000000000000000     
  0.41875000000000001       0.95625000000000004        0.0000000000000000     
  0.31250000000000000       0.75000000000000000        0.0000000000000000     
  0.37500000000000000       0.75000000000000000        0.0000000000000000     
  0.37500000000000000       0.81250000000000000        0.0000000000000000     
  0.28749999999999998       0.78749999999999998        0.0000000000000000     
  0.33124999999999999       0.79374999999999996        0.0000000000000000     
  0.33750000000000002       0.83750000000000002        0.0000000000000000     
  0.29375000000000001       0.83125000000000004        0.0000000000000000     
  0.43750000000000000       0.75000000000000000        0.0000000000000000     
  0.50000000000000000       0.75000000000000000        0.0000000000000000     
  0.50000000000000000       0.81250000000000000        0.0000000000000000     
  0.41249999999999998       0.78749999999999998        0.0000000000000000     
  0.45624999999999999       0.79374999999999996        0.0000000000000000     
  0.46250000000000002       0.83750000000000002        0.0000000000000000     
  0.41875000000000001       0.83125000000000004        0.0000000000000000     
   6.2500000000000000E-002  0.62500000000000000        0.0000000000000000     
  0.12500000000000000       0.62500000000000000        0.0000000000000000     
  0.12500000000000000       0.68750000000000000        0.0000000000000000     
   3.7499999999999999E-002  0.66249999999999998        0.0000000000000000     
   8.1250000000000003E-002  0.66874999999999996        0.0000000000000000     
   8.7499999999999994E-002  0.71250000000000002        0.0000000000000000     
   4.3749999999999997E-002  0.70625000000000004        0.0000000000000000     
  0.18750000000000000       0.62500000000000000        0.0000000000000000     
  0.25000000000000000       0.62500000000000000        0.0000000000000000     
  0.25000000000000000       0.68750000000000000        0.0000000000000000     
  0.16250000000000001       0.66249999999999998        0.0000000000000000     
  0.20624999999999999       0.66874999999999996        0.0000000000000000     
  0.21249999999999999       0.71250000000000002        0.0000000000000000     
  0.16875000000000001       0.70625000000000004        0.0000000000000000     
   6.2500000000000000E-002  0.50000000000000000        0.0000000000000000     
  0.12500000000000000       0.50000000000000000        0.0000000000000000     
  0.12500000000000000       0.56250000000000000        0.0000000000000000     
   3.7499999999999999E-002  0.53749999999999998        0.0000000000000000     
   8.1250000000000003E-002  0.54374999999999996        0.0000000000000000     
   8.7499999999999994E-002  0.58750000000000002        0.0000000000000000     
   4.3749999999999997E-002  0.58125000000000004        0.0000000000000000     
  0.18750000000000000       0.50000000000000000        0.0000000000000000     
  0.25000000000000000       0.50000000000000000        0.0000000000000000     
  0.25000000000000000       0.56250000000000000        0.0000000000000000     
  0.16250000000000001       0.53749999999999998        0.0000000000000000     
  0.20624999999999999       0.54374999999999996        0.0000000000000000     
  0.21249999999999999       0.58750000000000002        0.0000000000000000     
  0.16875000000000001       0.58125000000000004        0.0000000000000000     
  0.31250000000000000       0.62500000000000000        0.0000000000000000     
  0.37500000000000000       0.62500000000000000        0.0000000000000000     
  0.37500000000000000       0.68750000000000000        0.0000000000000000     
  0.28749999999999998       0.66249999999999998        0.0000000000000000     
  0.33124999999999999       0.66874999999999996        0.0000000000000000     
  0.33750000000000002       0.71250000000000002        0.0000000000000000     
  0.29375000000000001       0.70625000000000004        0.0000000000000000     
  0.43750000000000000       0.62500000000000000        0.0000000000000000     
  0.50000000000000000       0.62500000000000000        0.0000000000000000     
  0.50000000000000000       0.68750000000000000        0.0000000000000000     
  0.41249999999999998       0.66249999999999998        0.0000000000000000     
  0.45624999999999999       0.66874999999999996        0.0000000000000000     
  0.46250000000000002       0.71250000000000002        0.0000000000000000     
  0.41875000000000001       0.70625000000000004        0.0000000000000000     
  0.31250000000000000       0.50000000000000000        0.0000000000000000     
  0.37500000000000000       0.50000000000000000        0.0000000000000000     
  0.37500000000000000       0.56250000000000000        0.0000000000000000     
  0.28749999999999998       0.53749999999999998        0.0000000000000000     
  0.33124999999999999       0.54374999999999996        0.0000000000000000     
  0.33750000000000002       0.58750000000000002        0.0000000000000000     
  0.29375000000000001       0.58125000000000004        0.0000000000000000     
  0.43750000000000000       0.50000000000000000        0.0000000000000000     
  0.50000000000000000       0.50000000000000000        0.0000000000000000     
  0.50000000000000000       0.56250000000000000        0.0000000000000000     
  0.41249999999999998       0.53749999999999998        0.0000000000000000     
  0.45624999999999999       0.54374999999999996        0.0000000000000000     
  0.46250000000000002       0.58750000000000002        0.0000000000000000     
  0.41875000000000001       0.58125000000000004        0.0000000000000000     
  0.56250000000000000       0.87500000000000000        0.0000000000000000     
  0.62500000000000000       0.87500000000000000        0.0000000000000000     
  0.62500000000000000       0.93750000000000000        0.0000000000000000     
  0.53749999999999998       0.91249999999999998        0.0000000000000000     
  0.58125000000000004       0.91874999999999996        0.0000000000000000     
  0.58750000000000002       0.96250000000000002        0.0000000000000000     
  0.54374999999999996       0.95625000000000004        0.0000000000000000     
  0.68750000000000000       0.87500000000000000        0.0000000000000000     
  0.75000000000000000       0.87500000000000000        0.0000000000000000     
  0.75000000000000000       0.93750000000000000        0.0000000000000000     
  0.66249999999999998       0.91249999999999998        0.0000000000000000     
  0.70625000000000004       0.91874999999999996        0.0000000000000000     
  0.71250000000000002       0.96250000000000002        0.0000000000000000     
[...]
 CELL_DATA         896
 SCALARS Tumor_cells float
 LOOKUP_TABLE default
    0.40627379866435232240E-04
    0.32243392001463302033E-04
   -0.56693505385279025109E-05
   -0.21004778438177684611E-04
    0.13604873251413639670E-04
   -0.18391430749113733074E-04
    0.34125600519832187570E-04
    0.31692187400117194233E-04
    0.48191577339016539595E-04
    0.52274244925804106430E-04
    0.46408021184797785565E-04
    0.53832494135605197855E-04
    0.12935077261952450045E-04
    0.33900275689808419131E-05
   -0.49682407742497856375E-04
   -0.42002139643434377632E-04
   -0.10637680781448515758E-03
   -0.11237880875723189390E-03
   -0.63348677164130396712E-04
   -0.87288273449848683468E-04
   -0.98986454012168542248E-05
   -0.38485500623344626853E-04
    0.54137365294544655670E-05
   -0.40791017575033770707E-04
   -0.19269712684853109754E-04
   -0.29022018672389993549E-04
   -0.10760546142189981805E-03
   -0.11194955059095624530E-03
    0.39855463707598222519E-04
    0.31224212774100724868E-04
   -0.90758581214561448398E-05
   -0.24762860270086626684E-04
    0.11719786858757298679E-04
   -0.21061333872370021578E-04
    0.47598788260940225692E-06
    0.30492015525006507668E-04
    0.39440198517794191843E-04
    0.52275549827883638257E-04
    0.46055765355006657888E-04
    0.53852392055594049721E-04
    0.11290891804563012732E-04
    0.21235939446722480549E-05
   -0.57544811052203482605E-04
   -0.49706026901594282409E-04
   -0.11272466902439313627E-03
   -0.65684369831509604163E-04
   -0.69159032466290906228E-04
   -0.53650463147719384374E-04
   -0.96336981651070266301E-04
   -0.45968722687260333713E-04
   -0.59906021475621925091E-04
   -0.45007081335196252804E-04
   -0.23318948085153295481E-04
   -0.34116104229089650151E-04
   -0.11248602949683542812E-03
   -0.11539606274769132464E-03
   -0.46634403133672197388E-04
   -0.37610295798847500433E-04
   -0.44948454742443093486E-04
   -0.33463592526300236206E-04
   -0.42672356924781045624E-04
   -0.39455785323477689621E-04
   -0.18248216751267845722E-04
   -0.36528038596277385248E-04
   -0.20347403141837333210E-04
   -0.46122491425544297281E-04
   -0.35719923612891762727E-04
   -0.44656715012497337459E-04
   -0.31051023923437678182E-04
   -0.29778748211305529537E-04
   -0.27448406239367278503E-04
   -0.38693810869894921590E-04
    0.59376217788861552485E-04
    0.83718930344389431682E-04
   -0.33948897683614495809E-04
    0.45342360660881490873E-04
   -0.32980867048688196840E-04
   -0.42056992285820194409E-04
   -0.37115520328287976654E-04
   -0.20722465100726489404E-04
   -0.33450143621493007772E-04
   -0.36556063756969369859E-04
    0.16315086554064095838E-03
    0.17932559317789556431E-03
   -0.46692311888072083443E-04
   -0.37505746769906777183E-04
   -0.46696585062214619180E-04
   -0.41782951485415820853E-04
   -0.38554858775275525429E-04
   -0.39683795544130205256E-04
   -0.46759808019777217443E-04
   -0.37544616399359415928E-04
   -0.46874550504973392599E-04
   -0.46998537449187780945E-04
   -0.36446521807072644887E-04
   -0.46098689286582189388E-04
   -0.31247792896648472034E-04
   -0.31042194112377008962E-04
   -0.27475089482061009583E-04
   -0.38430975122294661083E-04
    0.59284178494355293013E-04
    0.83701059406569267257E-04
   -0.33783719433046798864E-04
    0.45517916157641488629E-04
    0.17429109048334542778E-04
   -0.39463558944507335009E-04
   -0.83943656064969809195E-05
   -0.19681614760422906527E-04
   -0.33160611365107581043E-04
   -0.37083823737785255223E-04
    0.16305148836433692051E-03
    0.17908918935948388252E-03
    0.39058969098672638443E-04
    0.29165487861093685671E-04
   -0.14620537412418633971E-04
   -0.32195186150339642035E-04
    0.72768441882322616572E-05
   -0.27795805838753582465E-04
   -0.26032665238736724812E-05
    0.28544278181576698117E-04
    0.38991508621007981556E-04
    0.52198681503003590578E-04
    0.45558603186030874170E-04
    0.53790797397441863874E-04
    0.79728661943819588280E-05
   -0.76939123902233454221E-06
   -0.70085622224636172166E-04
   -0.63380609459302394808E-04
   -0.11661093376182367787E-03
   -0.50372309249463017504E-04
   -0.80699629436862705886E-04
   -0.48219636614948894560E-04
   -0.10472419354969551267E-03
   -0.57579793809854931100E-04
   -0.68108784277809531035E-04
   -0.52979081380947928609E-04
   -0.32577043213333251482E-04
   -0.44192703910957571159E-04
   -0.11818545515701863661E-03
   -0.11843708558954588552E-03
    0.39022374828077098508E-04
    0.27251197068163911913E-04
   -0.18072694245518511189E-04
   -0.38779536074594792125E-04
    0.23892837537890505507E-05
   -0.37275866516742329592E-04
   -0.77562481061651207862E-05
    0.26135569336212543281E-04
    0.38234687373286917872E-04
    0.52056323249657656630E-04
    0.45141404412830291157E-04
    0.53694812026752965532E-04
    0.47321070518956384867E-05
   -0.41200807554963209844E-05
   -0.76618204286519304784E-04
   -0.72024626496812083781E-04
   -0.72294480956259244146E-04
   -0.48769194590629335944E-04
   -0.45860963259496375700E-04
   -0.47365813162700651933E-04
   -0.10410472490136495939E-03
   -0.71302313295253376847E-04
   -0.80591406006963957928E-04
   -0.63734415386620577558E-04
   -0.42356131301195311411E-04
   -0.52256853946672152643E-04
   -0.11512999452338771689E-03
   -0.11068201918062824498E-03
   -0.46819992401698551972E-04
   -0.37034513371879239233E-04
    0.55688472424029606794E-05
    0.81879487940182284060E-04
   -0.36957239214617080582E-04
   -0.45281035822016260856E-04
   -0.47082144591297059419E-04
   -0.37313903638741755388E-04
   -0.46904806314416896984E-04
   -0.46903413193521411922E-04
   -0.36685801503597661761E-04
   -0.46545137217782501658E-04
   -0.31249128784723714867E-04
   -0.31419734594980844647E-04
    0.94405198526532549397E-02
    0.85328293375739119875E-02
    0.11592837567958307055E-01
    0.79169434342905541102E-02
    0.30823772895959191537E-02
    0.17023089866893928749E-03
    0.19159682184254683623E-04
   -0.28258494640436797719E-04
   -0.89041877984393121693E-05
   -0.28870298558331025152E-04
    0.28515785981546407394E-03
    0.21636019075082762314E-02
    0.27204001800610506934E-02
    0.81942763496998236895E-03
   -0.70569734495344846505E-05
    0.19253563600359023793E-02
    0.87419607464882895936E-02
    0.14136642385902550845E-01
    0.84821083410871120356E-02
    0.92632878228719635338E-02
    0.18208960709451111303E-02
    0.54319162586864503381E-04
   -0.46269498416915650165E-04
   -0.46928264149576291969E-04
   -0.35781612733276391180E-04
   -0.46408803675223091678E-04
    0.85079183921956511743E-04
    0.16191679620760647800E-02
    0.22604993859617100033E-01
    0.23974514710832329351E-01
    0.23237524970234655491E-01
    0.19748514955123672859E-01
    0.19865693287891041108E-01
    0.15782437778732835015E-01
    0.14240549884193881222E-01
    0.17177150513193680664E-01
    0.12407169878033551258E-01
    0.12598499917761522143E-01
    0.19026541130487805570E-01
    0.18253233850302648389E-01
    0.21888912521747190543E-01
    0.21110007625833305395E-01
    0.48394605429664834517E-04
   -0.24456708363064891970E-04
    0.10647638397139734957E-03
    0.10573963145503643773E-03
   -0.26038803019108372450E-04
    0.50962225210778869992E-04
   -0.38076838528407997374E-04
   -0.26952924336835715826E-04
   -0.44803497556471058485E-04
    0.10051646853892261008E-03
   -0.14190501550018460902E-04
    0.48140311240376919299E-04
    0.37997556527327838770E-03
    0.37393542554255252038E-03
    0.49643216633682867619E-04
   -0.26804748337980544498E-04
    0.10675827865254305308E-03
    0.10652859508121654273E-03
   -0.27318673561079566864E-04
    0.50441765263835509382E-04
   -0.38912973216023777269E-04
   -0.27951979191823291254E-04
   -0.45171624634152627556E-04
    0.10450654034471870864E-03
   -0.23372379991673990034E-04
    0.49639502157127386739E-04
    0.38262401081826064942E-03
    0.38068717038316709795E-03
    0.48686096641132373911E-04
   -0.24437365883120598035E-04
    0.10639442321500053182E-03
    0.10579221086563221253E-03
   -0.25972406165408169033E-04
    0.51014239122222460141E-04
    0.50045698930738405461E-04
   -0.24201698815081753425E-04
    0.10356857598015648198E-03
    0.10453837430182816022E-03
   -0.14063617278440273867E-04
    0.48211934859175406456E-04
    0.37945769734614711796E-03
    0.37394185156144297286E-03
    0.49791058568624706800E-04
   -0.26865389472193144927E-04
    0.10674220599984796001E-03
    0.10655913307065302857E-03
   -0.27320255812924861916E-04
    0.50469253253942055967E-04
    0.50160689620437775324E-04
   -0.26612309318417991553E-04
    0.10581015801171125086E-03
    0.10610166070154712203E-03
   -0.23507444167920434535E-04
    0.49711186468806465796E-04
    0.38245309677726474235E-03
    0.38080353470570005216E-03
    0.50039513730679070237E-04
   -0.27587181599018661585E-04
    0.10685111689935762288E-03
    0.10678551396304779568E-03
   -0.27750360442425045965E-04
    0.50259179280484468188E-04
   -0.39190556680440753637E-04
   -0.28312016905887618488E-04
   -0.45288203109269634810E-04
    0.10585470432476766403E-03
   -0.26470264023128334068E-04
    0.50032348466428900853E-04
    0.38351284129123944201E-03
    0.38293090788468108409E-03
    0.50171442454307646258E-04
   -0.27870517673233218095E-04
    0.10646489362311876981E-03
   -0.45333939937690730907E-04
   -0.28538586200221580157E-04
   -0.39337433795444626608E-04
   -0.39337173110205369208E-04
   -0.28440237191676519241E-04
   -0.45325293009154087054E-04
    0.10631249828687279013E-03
   -0.27542955048401330105E-04
    0.50163823769239996643E-04
    0.38380531575115674984E-03
    0.38372879721562631406E-03
    0.50081472434563221432E-04
   -0.27614825460427554172E-04
    0.10684980997412106530E-03
    0.10679611499773960105E-03
   -0.27756041194631293680E-04
    0.50287365452343783031E-04
    0.50197906623129849406E-04
   -0.27497881270768279006E-04
    0.10655562152796966039E-03
    0.10664160163565505706E-03
   -0.26550062039924065687E-04
    0.50060536345604917448E-04
    0.38348295980742666458E-03
    0.38298897948893393045E-03
    0.50181074425017282428E-04
   -0.27876415982037182405E-04
    0.10646968560337573468E-03
   -0.45334753874451806741E-04
   -0.28538952227644103627E-04
   -0.39307016776035098285E-04
    0.50170124925187167841E-04
   -0.27805853790773292283E-04
    0.10680574723310401074E-03
    0.10681982485256263146E-03
   -0.27565137911871939665E-04
    0.50171572264371514806E-04
    0.38380414068641365011E-03
    0.38374428237255588364E-03
    0.94983817444850501821E-02
    0.51819356522266012133E-02
    0.14192813252967835351E-02
    0.14981239751508894213E-03
   -0.24106726212100311306E-04
    0.50927095480205673535E-04
    0.50054159468193077818E-04
   -0.20876156108882536059E-04
    0.10372776119780119364E-03
    0.15095371583687415464E-03
    0.19146468799853923800E-02
    0.70013326945184747169E-02
    0.15682399265259960343E-02
    0.49217192426525267247E-03
    0.49959479083778081528E-04
   -0.27090991290614294405E-04
    0.10675482524617815742E-03
    0.10662229300933140775E-03
   -0.27399698927572813264E-04
    0.50433599257315160191E-04
    0.50165449991761001264E-04
   -0.26438590716631243049E-04
    0.10589326951631873814E-03
    0.10606132962110822646E-03
   -0.24254912389648454127E-04
    0.50182377715551295370E-04
    0.38241820578243106328E-03
    0.38126543896341573599E-03
    0.10641123346645107312E-01
    0.65518767921399368587E-02
    0.10801535376731292559E-02
    0.94293664220096071703E-03
    0.38588791186815892507E-02
    0.11560287762640650971E-02
    0.32154212860884272447E-02
    0.82801410020998961886E-02
    0.11367473232567029337E-01
    0.14267885743069304988E-01
    0.13263175443424641067E-01
    0.16254498733516722225E-01
    0.87220699603524753235E-02
    0.74963785110627283170E-02
    0.55443978666874222771E-04
   -0.27226587580666142892E-04
    0.10680174111964366450E-03
    0.10666302928930664875E-03
   -0.27551834085013280712E-04
    0.50378703446356677253E-04
    0.50171671713535120299E-04
   -0.26911857615807279024E-04
    0.10656006381422172531E-03
    0.17197992118498026657E-03
   -0.17423745234388328303E-04
    0.30286185584116564985E-03
    0.38296077926123275057E-03
    0.38184498687959437342E-03
    0.50115481081273407138E-04
   -0.27673625155177439348E-04
    0.10685556547481228564E-03
    0.10681275981523043401E-03
   -0.27780835600247108752E-04
    0.50277768854402846187E-04
    0.50199847253794098716E-04
   -0.27489860289324014937E-04
    0.10659099543261019508E-03
    0.10665255313424051311E-03
   -0.26771758161859158446E-04
    0.50102466011057151629E-04
    0.38350914558876508711E-03
    0.38312836438776035758E-03
    0.50187480186464788242E-04
   -0.27887339239119027126E-04
    0.10647420808647875003E-03
   -0.45334901590464432705E-04
   -0.28538759687628912032E-04
   -0.39307728437174418795E-04
    0.50171228464908291991E-04
   -0.27806358126170233508E-04
    0.10681548426753721681E-03
    0.10682554645227209853E-03
   -0.27616402353583855518E-04
    0.50181212484450939050E-04
    0.38381593630033513948E-03
    0.38377265386566950574E-03
    0.50094568615832504583E-04
   -0.27722669149629650760E-04
    0.10686830895810266651E-03
    0.10682398651886554353E-03
   -0.27817718348898114677E-04
    0.50265740732139661828E-04
    0.50202088621852482882E-04
   -0.27597575256540228164E-04
    0.10665137423416761386E-03
    0.10671045021209518396E-03
   -0.27005165092538279504E-04
    0.50108966175407009295E-04
    0.38364237794017206186E-03
    0.38328015606490194438E-03
    0.50181708942181164033E-04
   -0.27892283446473723553E-04
    0.10647532125844165571E-03
   -0.45336265298985397524E-04
   -0.28537649780664354939E-04
   -0.39308549341339863467E-04
    0.50174892351583228313E-04
   -0.27832618412368060809E-04
    0.10682945866672386749E-03
    0.10684046605120661960E-03
   -0.27666590805484154655E-04
    0.50182939411869984328E-04
    0.38384730805023385344E-03
    0.38380180920794139789E-03
    0.39911051528886644564E-04
    0.27723912082649087495E-04
   -0.14948005593399737857E-04
   -0.36478976227160841712E-04
    0.25889509285067641255E-05
   -0.39884943661622001502E-04
   -0.10878583093137982399E-04
    0.25711962846070717681E-04
    0.37432999101359177294E-04
    0.52028171634449495392E-04
    0.45097509325529775532E-04
    0.53711397827930010274E-04
    0.52228496441577068192E-05
   -0.47061471305551142680E-05
   -0.69598027983938347816E-04
   -0.68963256704522219224E-04
   -0.10610916059213942311E-03
   -0.49262454025167448375E-04
   -0.45868286672603660081E-04
   -0.47425510167818567893E-04
   -0.70572481391004791428E-04
   -0.73941428717341198176E-04
   -0.86507045232193753776E-04
   -0.67103583397454244822E-04
   -0.42001888707881360598E-04
   -0.48525572251762788187E-04
   -0.11595069118646248861E-03
   -0.11004833240349142442E-03
    0.40579955317352844977E-04
    0.29815214475894775639E-04
   -0.93010198593145301333E-05
   -0.28539275654613090557E-04
    0.77378151428695791968E-05
   -0.31980736803791111041E-04
   -0.80184333560481746217E-05
    0.28009368843102815002E-04
    0.37632616696676223574E-04
    0.52174272791430942862E-04
    0.45454678825628651859E-04
    0.53817129980082222364E-04
    0.89175739565777111347E-05
   -0.18411074867510531950E-05
   -0.57013808152461053027E-04
   -0.55453375476792967258E-04
   -0.11351906480763074682E-03
   -0.54500806339480127333E-04
   -0.80548846787432954028E-04
   -0.47614108227759031997E-04
   -0.11201828464161704994E-03
   -0.64533834209185874015E-04
   -0.79251667018500414450E-04
   -0.58822701468820692687E-04
   -0.32010279445506428125E-04
   -0.37969787674451259559E-04
   -0.11835533031342304481E-03
   -0.11828944173710366115E-03
   -0.46724774109827104231E-04
   -0.16264075421104503904E-04
    0.95400626093880807731E-03
    0.67548856134136076382E-02
    0.87567105935483970786E-02
    0.15909055330229803643E-01
    0.88827751943731051570E-02
    0.18153128995000685289E-02
   -0.13280808604512562768E-04
   -0.46651123058628409543E-04
   -0.35843682272120462096E-04
   -0.46516232985163815294E-04
    0.82553824499782013668E-04
    0.19003924792814535973E-02
    0.11149235786432627748E-01
    0.16675459649417013336E-01
    0.14915645789686725678E-01
    0.15898146848750380894E-01
    0.19413591446446457067E-01
    0.17851211499908037350E-01
    0.23056863462096417045E-01
    0.23815413931913907708E-01
    0.22591159759979259625E-01
    0.19497725651759268556E-01
    0.18586308909670237743E-01
    0.11082433870608901852E-01
    0.20365294199147412901E-01
    0.21504754377004404314E-01
   -0.46778351975835032216E-04
   -0.37390363477693797794E-04
   -0.46907364913121865288E-04
   -0.44806719804257239047E-04
   -0.37325971391447516977E-04
    0.15796777943264321109E-04
   -0.32033790916013295356E-04
   -0.37346102331701419368E-04
   -0.46802037809781954112E-04
   -0.46991657139094548208E-04
   -0.36711624366286829744E-04
   -0.46337443851797506414E-04
   -0.31206277526274041963E-04
   -0.31431007708744305496E-04
   -0.27899147724348641461E-04
   -0.33133694123975876867E-04
    0.60674492018336164030E-04
    0.16441530628573492400E-03
    0.27450095761863920786E-02
    0.74099792513151897105E-02
    0.12490518206271629051E-01
    0.83799327109390798346E-02
    0.73900775550249514501E-02
    0.13751715654125547857E-02
    0.50646720558016556301E-05
   -0.43572100468689549575E-04
    0.66917060273778618696E-03
    0.29221396679810045238E-02
    0.40966406973240501721E-04
    0.31553604024732087975E-04
   -0.57280620262593313644E-05
   -0.22716952156238606660E-04
    0.12023926400176182251E-04
   -0.23322167263236235393E-04
   -0.29549722906391890003E-05
    0.30263627912074618362E-04
    0.38479297113710000163E-04
    0.52268819980399181327E-04
    0.46006378697470131029E-04
    0.53844978130168313457E-04
    0.11876539021164950045E-04
    0.14166848298502612526E-05
   -0.49358729008316838541E-04
   -0.44522865605142737634E-04
   -0.10737240886467508232E-03
   -0.11421748477332649657E-03
   -0.68840271805178568755E-04
   -0.49724707058002465829E-04
   -0.10398797316712539483E-03
   -0.50497893654495376050E-04
   -0.66877373194399405043E-04
   -0.48349468023881505380E-04
   -0.23146957907972952372E-04
   -0.30646485250067332404E-04
   -0.11198989429188497202E-03
   -0.11590719801853092096E-03
    0.49400352976294617763E-04
    0.32744198702854575343E-04
    0.29521492712330100593E-04
   -0.20321271994469943613E-04
    0.13714144629587948139E-04
   -0.19073818314292757001E-04
    0.28633186153692086896E-06
    0.31316935655437469878E-04
    0.39213179007605930776E-04
    0.52277602984597414560E-04
    0.46388327926733128259E-04
    0.53822284143381418360E-04
    0.13122543566723135741E-04
    0.32250882146203153299E-05
    0.14481700163653271239E-04
   -0.37015209785499787049E-04
   -0.23734860712424886295E-04
   -0.11151527545126531805E-03
   -0.63060157839377509702E-04
   -0.68852691574726221412E-04
   -0.96198643720977078950E-04
   -0.42825297797698546503E-04
   -0.59380630627959361920E-04
   -0.42977934396228670560E-04
   -0.19198113889043945689E-04
   -0.26762159464439844403E-04
   -0.10740056005979592522E-03
   -0.11215276790747569138E-03
   -0.46644451778104390621E-04
   -0.37488100382228527966E-04
   -0.44803732070374424797E-04
   -0.33852548642978948939E-04
   -0.38483538851585385836E-04
   -0.44097554790397685306E-04
   -0.47041031335336356525E-04
   -0.37474976245655747112E-04
   -0.46813720521803795069E-04
   -0.46943896205680828257E-04
   -0.36426894438896910162E-04
   -0.45290957023065526663E-04
   -0.31222327555114224250E-04
   -0.31107309271987623213E-04
   -0.27442997989778771293E-04
   -0.38661048057046130076E-04
    0.59400273978492712003E-04
    0.83704472142306571292E-04
   -0.33873281566348354158E-04
    0.45581087692926355404E-04
    0.17543116064384921043E-04
   -0.39387951357013120657E-04
   -0.84892825964150335976E-05
   -0.20555252478078166883E-04
   -0.33130584196009529873E-04
   -0.36560302218716356746E-04