# vtk DataFile Version 3.0
LAPLACIEN  2D
ASCII
DATASET UNSTRUCTURED_GRID
 POINTS         481  float
   6.2500000000000000E-002  0.87500000000000000        0.0000000000000000     
  0.12500000000000000       0.87500000000000000        0.0000000000000000     
  0.12500000000000000       0.93750000000000000        0.0000000000000000     
   3.7499999999999999E-002  0.91249999999999998        0.0000000000000000     
   8.1250000000000003E-002  0.91874999999999996        0.0000000000000000     
   8.7499999999999994E-002  0.96250000000000002        0.0000000000000000     
   4.3749999999999997E-002  0.95625000000000004        0.0000000000000000     
  0.18750000000000000       0.87500000000000000        0.0000000000000000     
  0.25000000000000000       0.87500000000000000        0.0000000000000000     
  0.25000000000000000       0.93750000000000000        0.0000000000000000     
  0.16250000000000001       0.91249999999999998        0.0000000000000000     
  0.20624999999999999       0.91874999999999996        0.0000000000000000     
  0.21249999999999999       0.96250000000000002        0.0000000000000000     
  0.16875000000000001       0.95625000000000004        0.0000000000000000     
   6.2500000000000000E-002  0.75000000000000000        0.0000000000000000     
  0.12500000000000000       0.75000000000000000        0.0000000000000000     
  0.12500000000000000       0.81250000000000000        0.0000000000000000     
   3.7499999999999999E-002  0.78749999999999998        0.0000000000000000     
   8.1250000000000003E-002  0.79374999999999996        0.0000000000000000     
   8.7499999999999994E-002  0.83750000000000002        0.0000000000000000     
   4.3749999999999997E-002  0.83125000000000004        0.0000000000000000     
  0.18750000000000000       0.75000000000000000        0.0000000000000000     
  0.25000000000000000       0.75000000000000000        0.0000000000000000     
  0.25000000000000000       0.81250000000000000        0.0000000000000000     
  0.16250000000000001       0.78749999999999998        0.0000000000000000     
  0.20624999999999999       0.79374999999999996        0.0000000000000000     
  0.21249999999999999       0.83750000000000002        0.0000000000000000     
  0.16875000000000001       0.83125000000000004        0.0000000000000000     
  0.31250000000000000       0.87500000000000000        0.0000000000000000     
  0.37500000000000000       0.87500000000000000        0.0000000000000000     
  0.37500000000000000       0.93750000000000000        0.0000000000000000     
  0.28749999999999998       0.91249999999999998        0.0000000000000000     
  0.33124999999999999       0.91874999999999996        0.0000000000000000     
  0.33750000000000002       0.96250000000000002        0.0000000000000000     
  0.29375000000000001       0.95625000000000004        0.0000000000000000     
  0.43750000000000000       0.87500000000000000        0.0000000000000000     
  0.50000000000000000       0.87500000000000000        0.0000000000000000     
  0.50000000000000000       0.93750000000000000        0.0000000000000000     
  0.41249999999999998       0.91249999999999998        0.0000000000000000     
  0.45624999999999999       0.91874999999999996        0.0000000000000000     
  0.46250000000000002       0.96250000000000002        0.0000000000000000     
  0.41875000000000001       0.95625000000000004        0.0000000000000000     
  0.31250000000000000       0.75000000000000000        0.0000000000000000     
  0.37500000000000000       0.75000000000000000        0.0000000000000000     
  0.37500000000000000       0.81250000000000000        0.0000000000000000     
  0.28749999999999998       0.78749999999999998        0.0000000000000000     
  0.33124999999999999       0.79374999999999996        0.0000000000000000     
  0.33750000000000002       0.83750000000000002        0.0000000000000000     
  0.29375000000000001       0.83125000000000004        0.0000000000000000     
  0.43750000000000000       0.75000000000000000        0.0000000000000000     
  0.50000000000000000       0.75000000000000000        0.0000000000000000     
  0.50000000000000000       0.81250000000000000        0.0000000000000000     
  0.41249999999999998       0.78749999999999998        0.0000000000000000     
  0.45624999999999999       0.79374999999999996        0.0000000000000000     
  0.46250000000000002       0.83750000000000002        0.0000000000000000     
  0.41875000000000001       0.83125000000000004        0.0000000000000000     
   6.2500000000000000E-002  0.62500000000000000        0.0000000000000000     
  0.12500000000000000       0.62500000000000000        0.0000000000000000     
  0.12500000000000000       0.68750000000000000        0.0000000000000000     
   3.7499999999999999E-002  0.66249999999999998        0.0000000000000000     
   8.1250000000000003E-002  0.66874999999999996        0.0000000000000000     
   8.7499999999999994E-002  0.71250000000000002        0.0000000000000000     
   4.3749999999999997E-002  0.70625000000000004        0.0000000000000000     
  0.18750000000000000       0.62500000000000000        0.0000000000000000     
  0.25000000000000000       0.62500000000000000        0.0000000000000000     
  0.25000000000000000       0.68750000000000000        0.0000000000000000     
  0.16250000000000001       0.66249999999999998        0.0000000000000000     
  0.20624999999999999       0.66874999999999996        0.0000000000000000     
  0.21249999999999999       0.71250000000000002        0.0000000000000000     
  0.16875000000000001       0.70625000000000004        0.0000000000000000     
   6.2500000000000000E-002  0.50000000000000000        0.0000000000000000     
  0.12500000000000000       0.50000000000000000        0.0000000000000000     
  0.12500000000000000       0.56250000000000000        0.0000000000000000     
   3.7499999999999999E-002  0.53749999999999998        0.0000000000000000     
   8.1250000000000003E-002  0.54374999999999996        0.0000000000000000     
   8.7499999999999994E-002  0.58750000000000002        0.0000000000000000     
   4.3749999999999997E-002  0.58125000000000004        0.0000000000000000     
  0.18750000000000000       0.50000000000000000        0.0000000000000000     
  0.25000000000000000       0.50000000000000000        0.0000000000000000     
  0.25000000000000000       0.56250000000000000        0.0000000000000000     
  0.16250000000000001       0.53749999999999998        0.0000000000000000     
  0.20624999999999999       0.54374999999999996        0.0000000000000000     
  0.21249999999999999       0.58750000000000002        0.0000000000000000     
  0.16875000000000001       0.58125000000000004        0.0000000000000000     
  0.31250000000000000       0.62500000000000000        0.0000000000000000     
  0.37500000000000000       0.62500000000000000        0.0000000000000000     
  0.37500000000000000       0.68750000000000000        0.0000000000000000     
  0.28749999999999998       0.66249999999999998        0.0000000000000000     
  0.33124999999999999       0.66874999999999996        0.0000000000000000     
  0.33750000000000002       0.71250000000000002        0.0000000000000000     
  0.29375000000000001       0.70625000000000004        0.0000000000000000     
  0.43750000000000000       0.62500000000000000        0.0000000000000000     
  0.50000000000000000       0.62500000000000000        0.0000000000000000     
  0.50000000000000000       0.68750000000000000        0.0000000000000000     
  0.41249999999999998       0.66249999999999998        0.0000000000000000     
  0.45624999999999999       0.66874999999999996        0.0000000000000000     
  0.46250000000000002       0.71250000000000002        0.0000000000000000     
  0.41875000000000001       0.70625000000000004        0.0000000000000000     
  0.31250000000000000       0.50000000000000000        0.0000000000000000     
  0.37500000000000000       0.50000000000000000        0.0000000000000000     
  0.37500000000000000       0.56250000000000000        0.0000000000000000     
  0.28749999999999998       0.53749999999999998        0.0000000000000000     
  0.33124999999999999       0.54374999999999996        0.0000000000000000     
  0.33750000000000002       0.58750000000000002        0.0000000000000000     
  0.29375000000000001       0.58125000000000004        0.0000000000000000     
  0.43750000000000000       0.50000000000000000        0.0000000000000000     
  0.50000000000000000       0.50000000000000000        0.0000000000000000     
  0.50000000000000000       0.56250000000000000        0.0000000000000000     
  0.41249999999999998       0.53749999999999998        0.0000000000000000     
  0.45624999999999999       0.54374999999999996        0.0000000000000000     
  0.46250000000000002       0.58750000000000002        0.0000000000000000     
  0.41875000000000001       0.58125000000000004        0.0000000000000000     
  0.56250000000000000       0.87500000000000000        0.0000000000000000     
  0.62500000000000000       0.87500000000000000        0.0000000000000000     
  0.62500000000000000       0.93750000000000000        0.0000000000000000     
  0.53749999999999998       0.91249999999999998        0.0000000000000000     
  0.58125000000000004       0.91874999999999996        0.0000000000000000     
  0.58750000000000002       0.96250000000000002        0.0000000000000000     
  0.54374999999999996       0.95625000000000004        0.0000000000000000     
  0.68750000000000000       0.87500000000000000        0.0000000000000000     
  0.75000000000000000       0.87500000000000000        0.0000000000000000     
  0.75000000000000000       0.93750000000000000        0.0000000000000000     
  0.66249999999999998       0.91249999999999998        0.0000000000000000     
  0.70625000000000004       0.91874999999999996        0.0000000000000000     
  0.71250000000000002       0.96250000000000002        0.0000000000000000     
[...]
 CELL_DATA         896
 SCALARS Tumor_cells float
 LOOKUP_TABLE default
    0.12208225948259139100E-05
    0.99638710924590492624E-06
   -0.50705137958629422657E-07
   -0.48039515713171160673E-06
    0.48821702163322749162E-06
   -0.40447273726502464193E-06
    0.10506999321176633815E-05
    0.96884198910632116445E-06
    0.14270033569205096185E-05
    0.15431055121559429782E-05
    0.13817014730343181627E-05
    0.15869497325663852958E-05
    0.44949010362277143208E-06
    0.16881295027515208333E-06
   -0.12438927364154486720E-05
   -0.94944627238989042815E-06
   -0.28434049594446864208E-05
   -0.31251154210281988724E-05
   -0.15793763187345464781E-05
   -0.29330480871740658711E-05
   -0.86681278820973061818E-07
   -0.97646883593124265075E-06
    0.26900980762185785359E-06
   -0.10722356920285462424E-05
   -0.34835703226990615936E-06
   -0.68384896861921230652E-06
   -0.29227923335700008970E-05
   -0.31145053849153495874E-05
    0.12143080404345809569E-05
    0.99023306112406092542E-06
   -0.73177632075842175714E-07
   -0.50219348648405298378E-06
    0.47718568256789398733E-06
   -0.42250238621306632467E-06
    0.12121789972744200472E-06
    0.96179775115777200054E-06
    0.11816986896495112788E-05
    0.15435281385362509741E-05
    0.13786518012204756835E-05
    0.15872496305649911556E-05
    0.43734912585817252673E-06
    0.16086045408017098514E-06
   -0.12872747543869384661E-05
   -0.98706189686091845884E-06
   -0.28931882160036978502E-05
   -0.31607248540294049882E-05
   -0.16150356097043660179E-05
   -0.29568102403485228122E-05
   -0.25332828987800660601E-05
   -0.10051441898923208489E-05
   -0.15297628656638347802E-05
   -0.10924867967003788094E-05
   -0.36839099858073865207E-06
   -0.71080750173588934478E-06
   -0.29570031979433019197E-05
   -0.31367262580450614470E-05
   -0.31990954322430505446E-05
   -0.27029698467462253198E-05
   -0.27909527933935092803E-05
   -0.23400081635626209962E-05
   -0.30695116870061225064E-05
   -0.28528874337461689823E-05
   -0.13541447392569860504E-05
   -0.26689024421757404311E-05
   -0.12346414058669263210E-05
   -0.32109158926057091141E-05
   -0.23099984723074901930E-05
   -0.29640141815029927306E-05
   -0.21226816452485870551E-05
   -0.13608605841448258243E-05
   -0.19473944137528277859E-05
   -0.32077062742262843275E-05
    0.39124954034974181614E-05
    0.58072213456214188317E-05
   -0.28933699598984462432E-05
    0.27685110705873355804E-05
   -0.24815829263039918565E-05
   -0.32076124889923668469E-05
   -0.25501961084276580634E-05
   -0.14722421320085309034E-05
   -0.32484940944300499249E-05
   -0.26140964960852243094E-05
    0.11233854133163501587E-04
    0.13237451425726522367E-04
   -0.32224718963325046612E-05
   -0.26074036490782648022E-05
   -0.29075753542651628980E-05
   -0.23402813860302292172E-05
   -0.30692361832341400740E-05
   -0.28528524923787311610E-05
   -0.31776215718034618663E-05
   -0.25977928146853092781E-05
   -0.32979923357813877416E-05
   -0.32270423663160838206E-05
   -0.23448042888779105503E-05
   -0.30004867266839128559E-05
   -0.22068116199933876367E-05
   -0.16834881484332919229E-05
   -0.19473887377507514473E-05
   -0.32076917242401353816E-05
    0.39125000190508621954E-05
    0.58072298823286511561E-05
   -0.28933748161754097508E-05
    0.27684726325574845603E-05
    0.99320799342540107888E-06
   -0.32004547444661953388E-05
   -0.60553686018677780540E-06
   -0.14707400407002388941E-05
   -0.32484434627206806205E-05
   -0.26140667498819494126E-05
    0.11233860748509386606E-04
    0.13237455152332829573E-04
    0.12092585801126859819E-05
    0.97782109338688542011E-06
   -0.10446262035508424348E-06
   -0.54209371210737246163E-06
    0.45079924420448465629E-06
   -0.45951414246640779359E-06
    0.10399750688595508785E-06
    0.94857069340605870339E-06
    0.11786417495549350809E-05
    0.15430665710338633862E-05
    0.13752712860840686673E-05
    0.15868887369724579976E-05
    0.41458615248274575502E-06
    0.14356143521605543405E-06
   -0.13554075297708239852E-05
   -0.10669870538314338340E-05
   -0.29839135653765293368E-05
   -0.32327243407785462826E-05
   -0.17034397651598395708E-05
   -0.30230348342267926985E-05
   -0.25926611732211961393E-05
   -0.10696071764989033391E-05
   -0.15703195030146356100E-05
   -0.11358622268255185052E-05
   -0.41223604750087678485E-06
   -0.76435692140101922351E-06
   -0.30300167041165566353E-05
   -0.31890840041578929620E-05
    0.12108880728706895779E-05
    0.96606388452549142218E-06
   -0.12094762867678068079E-06
   -0.57585665140465818242E-06
    0.42685913186420095149E-06
   -0.50904157125943014305E-06
    0.75149719801777003605E-07
    0.93524923481832534727E-06
    0.11747379113958861946E-05
    0.15416393158365976958E-05
    0.13737528126777483429E-05
    0.15857619773665335545E-05
    0.39567110827343493213E-06
    0.12433090410115862950E-06
   -0.13894772174993253284E-05
   -0.11395223568940621742E-05
   -0.30430277772389380300E-05
   -0.32902321083939129557E-05
   -0.18114447118167722876E-05
   -0.31176710463577820847E-05
   -0.26957041195413498649E-05
   -0.11620654138186974314E-05
   -0.16389017963676083234E-05
   -0.11926116404237694221E-05
   -0.46180976350966625371E-06
   -0.80549284638102924378E-06
   -0.31007584149018263944E-05
   -0.32455141588619746064E-05
   -0.32491908441852299963E-05
   -0.25725324031567149151E-05
   -0.32160827524987839407E-05
   -0.25339029308959819617E-05
   -0.28109116231802418084E-05
   -0.28535090745406805746E-05
   -0.32112066863559958401E-05
   -0.25718824594424339998E-05
   -0.32956854755961494012E-05
   -0.32528494274068598356E-05
   -0.24316870571306941166E-05
   -0.30697133560501885827E-05
   -0.22294039936260104701E-05
   -0.20977746181163769204E-05
   -0.15748432344037974050E-05
   -0.27707834911722400707E-05
    0.24364118030701598853E-03
    0.58549391262702546457E-05
   -0.28919066152987262486E-05
    0.27685078081030875053E-05
    0.99320831085269488118E-06
   -0.31998480807991859349E-05
   -0.60555729878012176131E-06
   -0.14707339892180302040E-05
   -0.32476168800234338789E-05
   -0.26142200212134793970E-05
    0.11231534050331194556E-04
    0.13237443657714373995E-04
   -0.32529880224996185580E-05
   -0.25696944737025324119E-05
   -0.31838724772894435725E-05
    0.75840931517811148335E-04
   -0.25848459900015741846E-05
   -0.25576484907846847689E-05
   -0.32866343181395450613E-05
   -0.25680221530812414880E-05
   -0.32869206518124632893E-05
   -0.32734633883832415851E-05
   -0.24896543792697925526E-05
   -0.31235514559512940458E-05
   -0.22358590693684895297E-05
   -0.22010533048023168076E-05
    0.51308464016343230396E-01
    0.86344962426369228914E-01
    0.53952166243650304112E-01
    0.51158372760235590326E-01
    0.79464831576623942699E-01
    0.48731320997605180600E-01
    0.98130988812410099853E-02
    0.20713309282579264736E-01
    0.42279536863424666991E-03
    0.29212702277170947548E-03
    0.20062290267865358351E-01
    0.64217305071032470404E-02
    0.68959021872251072272E-01
    0.68154479876254683846E-01
    0.32508195031940781038E-05
   -0.25009410297565479383E-05
    0.72471041935000771346E-05
    0.72437282245333517553E-05
   -0.25070157123055609103E-05
    0.32611158476550469917E-05
   -0.27204150755678148679E-05
   -0.25067190286800599468E-05
   -0.31825809902252579292E-05
    0.72263729276660284773E-05
   -0.24551603695460248982E-05
    0.32509057577576829344E-05
    0.27087681481950941784E-04
    0.27056925145356993187E-04
    0.32550212778471644093E-05
   -0.25111179701194953290E-05
    0.72476594863553259518E-05
    0.72465590920863859735E-05
   -0.25131066897499859893E-05
    0.32584132146946045819E-05
   -0.27233330980840339629E-05
   -0.25130324887373807437E-05
   -0.31836010999001382759E-05
    0.72408958256165442609E-05
   -0.24961170751054207853E-05
    0.32552222620289154298E-05
    0.27096484795593903610E-04
    0.27086438084337995851E-04
    0.32508845874112744853E-05
   -0.25009409138831433677E-05
    0.72471152622608464675E-05
    0.72437317918846780680E-05
   -0.25070065517611552774E-05
    0.32610864608226011392E-05
    0.32570668013975187802E-05
   -0.25006930989397578516E-05
    0.72357839092673432955E-05
    0.72402600993417178118E-05
   -0.24551555793722423133E-05
    0.32509170173432032198E-05
    0.27087644589964659912E-04
    0.27056893294775569316E-04
    0.32550278688663190866E-05
   -0.25111167347618158346E-05
    0.72476596284782116776E-05
    0.72465593233345561359E-05
   -0.25131044858950018933E-05
    0.32583878126367001083E-05
    0.32570805571185170636E-05
   -0.25110225283322831438E-05
    0.72439474805411385150E-05
    0.72454393446720822191E-05
   -0.24961081598474693489E-05
    0.32552241471224024118E-05
    0.27096475865011935229E-04
    0.27086427171420321430E-04
    0.32564172810768688447E-05
   -0.25144909200954833913E-05
    0.72478376537249750611E-05
    0.72475072550746043527E-05
   -0.25151392519915207182E-05
    0.32574964802316885870E-05
   -0.27243064959629602706E-05
   -0.25151303498056894199E-05
   -0.31839327706488244775E-05
    0.72456611300924639839E-05
   -0.25096425518598074292E-05
    0.32564847371822587053E-05
    0.27099369235233452017E-04
    0.27096226564266790902E-04
    0.32569105534171829500E-05
   -0.25157092511916946751E-05
    0.72478387071973614264E-05
   -0.31840559978486559446E-05
   -0.25160797050066499534E-05
   -0.27247173891345590327E-05
   -0.27247157091417251900E-05
   -0.25158670379689807971E-05
   -0.31840369851451303511E-05
    0.72472883849543582170E-05
   -0.25143642259830826881E-05
    0.32569170383268343057E-05
    0.27100319155121084725E-04
    0.27099774702357974816E-04
    0.32564180577207458721E-05
   -0.25144915943267497595E-05
    0.72478377720680740195E-05
    0.72475075280761896122E-05
   -0.25151392624158120515E-05
    0.32574735237402563246E-05
    0.32570855483987655370E-05
   -0.25144502156903705562E-05
    0.72466470087571005493E-05
    0.72471179963532306219E-05
   -0.25096435302644040992E-05
    0.32564852538728249396E-05
    0.27099368712060052205E-04
    0.27096226298877287451E-04
    0.32569102735448713040E-05
   -0.25157098689817324841E-05
    0.72478379793013701963E-05
   -0.31840560611312345170E-05
   -0.25160795051119625283E-05
   -0.27247152503058597695E-05
    0.32570899571958954346E-05
   -0.25156741775757902714E-05
    0.72475885256426723316E-05
    0.72476853911825298037E-05
   -0.25143636747257053873E-05
    0.32569168746267392783E-05
    0.27100322929240011041E-04
    0.27099773363746224345E-04
    0.23140001899206829434E-03
   -0.24606037725171783282E-05
    0.72504742241607591933E-05
    0.72445726762182537545E-05
   -0.25067997986396142546E-05
    0.32610821155586030069E-05
    0.32570604081625956715E-05
   -0.24996377865831133864E-05
    0.72358312566856860010E-05
    0.72399039729820994783E-05
   -0.24561120136116140473E-05
    0.34916450194971868388E-05
    0.27083493418522746829E-04
    0.27059239793455213167E-04
    0.32555571312062650547E-05
   -0.25112293184279795256E-05
    0.72476800243733531049E-05
    0.72465710093345343641E-05
   -0.25131070205180006417E-05
    0.32583875620020824238E-05
    0.32570801688804972804E-05
   -0.25109946714600333516E-05
    0.72439573849153817393E-05
    0.72454320229933329262E-05
   -0.24963461985279109638E-05
    0.32554358878470952525E-05
    0.27096467986327010845E-04
    0.27086528574801530634E-04
    0.41110871392836069449E-01
    0.28716379802886268097E-01
    0.13706487148134008369E-01
    0.37139544674859516389E-02
    0.35758786808013729580E-02
    0.18953816475478243542E-04
    0.18704014982211667937E-04
    0.36995984320098316764E-02
    0.78208208217346326246E-02
    0.38488976137667031685E-01
    0.32657116889379396441E-01
    0.45011822306444598807E-01
    0.23892423530186578107E-01
    0.19011683922544302811E-01
    0.32701494050196081800E-05
   -0.25124296221224885452E-05
    0.72478603276780967455E-05
    0.72466705750242066069E-05
   -0.25132855465412701643E-05
    0.32583815214000267643E-05
    0.32570882330437061593E-05
   -0.25107325317623782573E-05
    0.72448160568247020673E-05
    0.72468253544334962981E-05
   -0.24817978492602278255E-05
    0.80182722935392931407E-04
    0.27099075929718962952E-04
    0.27089157283617896902E-04
    0.32564200504751151351E-05
   -0.25144920432769631092E-05
    0.72478377989103533004E-05
    0.72475078809565766057E-05
   -0.25151395408978707334E-05
    0.32574730831364794793E-05
    0.32570854723277614540E-05
   -0.25144499522324266391E-05
    0.72466476219778563938E-05
    0.72471181107279963160E-05
   -0.25096474073178751535E-05
    0.32564872625371203536E-05
    0.27099368161480975924E-04
    0.27096229118290996298E-04
    0.32569115809718883296E-05
   -0.25157094499931098990E-05
    0.72478393411774074182E-05
   -0.31840562212495727999E-05
   -0.25160799390899622101E-05
   -0.27247154888217310146E-05
    0.32570905377803108851E-05
   -0.25156734922417562145E-05
    0.72475889851581478610E-05
    0.72476853656682702822E-05
   -0.25143657096638498238E-05
    0.32569174397889454902E-05
    0.27100319865938980832E-04
    0.27099775332245074598E-04
    0.32564233494068775284E-05
   -0.25144936406672862372E-05
    0.72478380864114663387E-05
    0.72475077094676108641E-05
   -0.25151391902268171404E-05
    0.32574731468702038931E-05
    0.32570851149091595469E-05
   -0.25144489947487462848E-05
    0.72466516358808630239E-05
    0.72471313191079376578E-05
   -0.25096703995732547106E-05
    0.32565046880383453231E-05
    0.27099376436350880611E-04
    0.27096233026824019085E-04
    0.32569115526551466102E-05
   -0.25157090458324245893E-05
    0.72478394023034316366E-05
   -0.31840560982047019480E-05
   -0.25160797847618001236E-05
   -0.27247153507991818617E-05
    0.32570890899333390751E-05
   -0.25156696170340885369E-05
    0.72475885936139467265E-05
    0.72476846359449562403E-05
   -0.25143644097482879402E-05
    0.32569175928388916606E-05
    0.27100317354071097001E-04
    0.27099773854143264135E-04
    0.12183248484422943240E-05
    0.96669535084554011855E-06
   -0.10200647297088843274E-06
   -0.56466424484542143210E-06
    0.42861356412250540479E-06
   -0.52206776627996928211E-06
    0.55882151131544655652E-07
    0.93465337130702061195E-06
    0.11680310625270767321E-05
    0.15414763395977022520E-05
    0.13731175004332539513E-05
    0.15858917610323981671E-05
    0.40038393500031406018E-06
    0.11999919942269389409E-06
   -0.13435785663513910928E-05
   -0.11113074969851835303E-05
   -0.29964134374617800779E-05
   -0.32682037881475456013E-05
   -0.18097297021875307361E-05
   -0.31443708748140104469E-05
   -0.27525738650195241905E-05
   -0.11883668080364552472E-05
   -0.16792533345421835423E-05
   -0.12097850854703360549E-05
   -0.46099005085763687002E-06
   -0.78771688370253742249E-06
   -0.30933330266006643529E-05
   -0.32502946944662980470E-05
    0.12216258355811114998E-05
    0.97784649317196099764E-06
   -0.70051591624322517719E-07
   -0.52556466058404416492E-06
    0.45612497904526659842E-06
   -0.48073500423042645688E-06
    0.68053404264109932374E-07
    0.94913017072790285611E-06
    0.11677191330242633729E-05
    0.15428387228933446189E-05
    0.13740364450790748227E-05
    0.15871108802911774138E-05
    0.42413671392849514909E-06
    0.13366786358739665839E-06
   -0.12751469401817911613E-05
   -0.10254332504961570413E-05
   -0.29034253026216752828E-05
   -0.31938200988351987116E-05
   -0.17008140296133594783E-05
   -0.30681092827569331048E-05
   -0.26880099797633425153E-05
   -0.11084934071620862851E-05
   -0.16392591122245232722E-05
   -0.11645171859024104862E-05
   -0.41209747284804126626E-06
   -0.73349204514696402033E-06
   -0.30156789273989284711E-05
   -0.31979969960044501305E-05
   -0.32508412816354796919E-05
   -0.25642529924159210264E-05
   -0.32394366358253707923E-05
   -0.28591961133436847448E-05
   -0.25648044944437986648E-05
    0.89309974282161818954E-04
   -0.32038366259313515966E-05
   -0.25618947724414389220E-05
   -0.32900713085259402859E-05
   -0.32743846497716191146E-05
   -0.24897643789737834084E-05
   -0.31017656572461265284E-05
   -0.22358125515871439128E-05
   -0.22013553902654270578E-05
    0.35325355862688354849E-04
    0.66373819134225566993E-02
    0.93084499655906351168E-02
    0.45046914018966856263E-01
    0.80195138712436608852E-01
    0.50211001021038925707E-01
    0.54123137369574858546E-01
    0.86922442692352247517E-01
    0.47086991421836948968E-01
    0.61801080919351237056E-02
    0.67087487848312057220E-02
    0.29749216431373764845E-04
    0.50762084011491605262E-01
    0.74512065013550982107E-01
   -0.32284502410575498618E-05
   -0.25694560541929068437E-05
   -0.29761370577172169274E-05
   -0.23418766056353256615E-05
   -0.28002746226458009528E-05
   -0.29533895690113762113E-05
   -0.32737025644998418472E-05
   -0.25733185358860616807E-05
   -0.32896614160137950291E-05
   -0.32663262778357080051E-05
   -0.24241412241530862168E-05
   -0.30298042675940433757E-05
   -0.22305867983212533879E-05
   -0.21299512156666268918E-05
   -0.19473898716460739353E-05
   -0.32077825462464226558E-05
    0.39125654092929520794E-05
    0.58073724229898780584E-05
   -0.28932647725143459416E-05
    0.28106019204053116292E-05
    0.27541632997529275680E-03
   -0.27679445933481285099E-05
   -0.60000242114512381596E-06
   -0.14711599624002677690E-05
   -0.32480055655713277837E-05
   -0.26140332090167635853E-05
    0.11235043864501239249E-04
    0.13238414621991509402E-04
    0.12243195843804016169E-05
    0.98991034528687225386E-06
   -0.48660541491006448215E-07
   -0.49254238413615986551E-06
    0.48023671647946846877E-06
   -0.43325424703512756038E-06
    0.96008061312653537190E-07
    0.96287029033269096894E-06
    0.11731779095369833785E-05
    0.15434064669933289504E-05
    0.13780331154083411726E-05
    0.15871867010456889149E-05
    0.44362816684769477153E-06
    0.15339344613673367563E-06
   -0.12373584544458737632E-05
   -0.96623406016136957120E-06
   -0.28470977800910960816E-05
   -0.31390942659489661557E-05
   -0.16128832775412087929E-05
   -0.29808348311107636852E-05
   -0.25879550988207156335E-05
   -0.10245661126413748301E-05
   -0.15717147241774792041E-05
   -0.11080413409383622148E-05
   -0.37012400349105098995E-06
   -0.69368728482665890075E-06
   -0.29481449529631469742E-05
   -0.31428406538291806527E-05
    0.14613650963622108900E-05
    0.99656039528686689973E-06
    0.92053118683692261547E-06
   -0.47629867912390765470E-06
    0.48965625706796188032E-06
   -0.40830293876256633222E-06
    0.11729022670635042228E-06
    0.96927569684924043332E-06
    0.11792777105777149177E-05
    0.15433698499082199773E-05
    0.13814593595277191958E-05
    0.15866268316991105075E-05
    0.45212018601089547845E-06
    0.16712447245535993588E-06
    0.52575645521229718383E-06
   -0.93783871303071815509E-06
   -0.48066961468042644180E-06
   -0.31187887196532897799E-05
   -0.15786201891785971956E-05
   -0.29394072576440403736E-05
   -0.25323444875473124572E-05
   -0.98619982399431447670E-06
   -0.15300854207243158934E-05
   -0.10792734330954846093E-05
   -0.34863351856639925415E-06
   -0.67529930879781805301E-06
   -0.29204198075770170377E-05
   -0.31164760679778985234E-05
   -0.32009200725954286873E-05
   -0.25894578179469516239E-05
   -0.28129863276280474633E-05
   -0.23400590392392105871E-05
   -0.30617977187640970277E-05
   -0.28528647329706588917E-05
   -0.32049763821704991572E-05
   -0.26121771740808820655E-05
   -0.32980163822089659323E-05
   -0.32384381999099831235E-05
   -0.23415690620253639333E-05
   -0.29767073123280703341E-05
   -0.21874276922376525493E-05
   -0.18128262458714093363E-05
   -0.19473908438896659256E-05
   -0.32077075749668495255E-05
    0.39124946027512122671E-05
    0.58072250257378932819E-05
   -0.28933779442810960810E-05
    0.27684730770399921366E-05
    0.99322945877631967215E-06
   -0.32004430391526656675E-05
   -0.60553463679917466460E-06
   -0.14707285342418284532E-05
   -0.32484435064541639809E-05
   -0.26140830736982693938E-05