# vtk DataFile Version 3.0
LAPLACIEN  2D
ASCII
DATASET UNSTRUCTURED_GRID
 POINTS         481  float
   6.2500000000000000E-002  0.87500000000000000        0.0000000000000000     
  0.12500000000000000       0.87500000000000000        0.0000000000000000     
  0.12500000000000000       0.93750000000000000        0.0000000000000000     
   3.7499999999999999E-002  0.91249999999999998        0.0000000000000000     
   8.1250000000000003E-002  0.91874999999999996        0.0000000000000000     
   8.7499999999999994E-002  0.96250000000000002        0.0000000000000000     
   4.3749999999999997E-002  0.95625000000000004        0.0000000000000000     
  0.18750000000000000       0.87500000000000000        0.0000000000000000     
  0.25000000000000000       0.87500000000000000        0.0000000000000000     
  0.25000000000000000       0.93750000000000000        0.0000000000000000     
  0.16250000000000001       0.91249999999999998        0.0000000000000000     
  0.20624999999999999       0.91874999999999996        0.0000000000000000     
  0.21249999999999999       0.96250000000000002        0.0000000000000000     
  0.16875000000000001       0.95625000000000004        0.0000000000000000     
   6.2500000000000000E-002  0.75000000000000000        0.0000000000000000     
  0.12500000000000000       0.75000000000000000        0.0000000000000000     
  0.12500000000000000       0.81250000000000000        0.0000000000000000     
   3.7499999999999999E-002  0.78749999999999998        0.0000000000000000     
   8.1250000000000003E-002  0.79374999999999996        0.0000000000000000     
   8.7499999999999994E-002  0.83750000000000002        0.0000000000000000     
   4.3749999999999997E-002  0.83125000000000004        0.0000000000000000     
  0.18750000000000000       0.75000000000000000        0.0000000000000000     
  0.25000000000000000       0.75000000000000000        0.0000000000000000     
  0.25000000000000000       0.81250000000000000        0.0000000000000000     
  0.16250000000000001       0.78749999999999998        0.0000000000000000     
  0.20624999999999999       0.79374999999999996        0.0000000000000000     
  0.21249999999999999       0.83750000000000002        0.0000000000000000     
  0.16875000000000001       0.83125000000000004        0.0000000000000000     
  0.31250000000000000       0.87500000000000000        0.0000000000000000     
  0.37500000000000000       0.87500000000000000        0.0000000000000000     
  0.37500000000000000       0.93750000000000000        0.0000000000000000     
  0.28749999999999998       0.91249999999999998        0.0000000000000000     
  0.33124999999999999       0.91874999999999996        0.0000000000000000     
  0.33750000000000002       0.96250000000000002        0.0000000000000000     
  0.29375000000000001       0.95625000000000004        0.0000000000000000     
  0.43750000000000000       0.87500000000000000        0.0000000000000000     
  0.50000000000000000       0.87500000000000000        0.0000000000000000     
  0.50000000000000000       0.93750000000000000        0.0000000000000000     
  0.41249999999999998       0.91249999999999998        0.0000000000000000     
  0.45624999999999999       0.91874999999999996        0.0000000000000000     
  0.46250000000000002       0.96250000000000002        0.0000000000000000     
  0.41875000000000001       0.95625000000000004        0.0000000000000000     
  0.31250000000000000       0.75000000000000000        0.0000000000000000     
  0.37500000000000000       0.75000000000000000        0.0000000000000000     
  0.37500000000000000       0.81250000000000000        0.0000000000000000     
  0.28749999999999998       0.78749999999999998        0.0000000000000000     
  0.33124999999999999       0.79374999999999996        0.0000000000000000     
  0.33750000000000002       0.83750000000000002        0.0000000000000000     
  0.29375000000000001       0.83125000000000004        0.0000000000000000     
  0.43750000000000000       0.75000000000000000        0.0000000000000000     
  0.50000000000000000       0.75000000000000000        0.0000000000000000     
  0.50000000000000000       0.81250000000000000        0.0000000000000000     
  0.41249999999999998       0.78749999999999998        0.0000000000000000     
  0.45624999999999999       0.79374999999999996        0.0000000000000000     
  0.46250000000000002       0.83750000000000002        0.0000000000000000     
  0.41875000000000001       0.83125000000000004        0.0000000000000000     
   6.2500000000000000E-002  0.62500000000000000        0.0000000000000000     
  0.12500000000000000       0.62500000000000000        0.0000000000000000     
  0.12500000000000000       0.68750000000000000        0.0000000000000000     
   3.7499999999999999E-002  0.66249999999999998        0.0000000000000000     
   8.1250000000000003E-002  0.66874999999999996        0.0000000000000000     
   8.7499999999999994E-002  0.71250000000000002        0.0000000000000000     
   4.3749999999999997E-002  0.70625000000000004        0.0000000000000000     
  0.18750000000000000       0.62500000000000000        0.0000000000000000     
  0.25000000000000000       0.62500000000000000        0.0000000000000000     
  0.25000000000000000       0.68750000000000000        0.0000000000000000     
  0.16250000000000001       0.66249999999999998        0.0000000000000000     
  0.20624999999999999       0.66874999999999996        0.0000000000000000     
  0.21249999999999999       0.71250000000000002        0.0000000000000000     
  0.16875000000000001       0.70625000000000004        0.0000000000000000     
   6.2500000000000000E-002  0.50000000000000000        0.0000000000000000     
  0.12500000000000000       0.50000000000000000        0.0000000000000000     
  0.12500000000000000       0.56250000000000000        0.0000000000000000     
   3.7499999999999999E-002  0.53749999999999998        0.0000000000000000     
   8.1250000000000003E-002  0.54374999999999996        0.0000000000000000     
   8.7499999999999994E-002  0.58750000000000002        0.0000000000000000     
   4.3749999999999997E-002  0.58125000000000004        0.0000000000000000     
  0.18750000000000000       0.50000000000000000        0.0000000000000000     
  0.25000000000000000       0.50000000000000000        0.0000000000000000     
  0.25000000000000000       0.56250000000000000        0.0000000000000000     
  0.16250000000000001       0.53749999999999998        0.0000000000000000     
  0.20624999999999999       0.54374999999999996        0.0000000000000000     
  0.21249999999999999       0.58750000000000002        0.0000000000000000     
  0.16875000000000001       0.58125000000000004        0.0000000000000000     
  0.31250000000000000       0.62500000000000000        0.0000000000000000     
  0.37500000000000000       0.62500000000000000        0.0000000000000000     
  0.37500000000000000       0.68750000000000000        0.0000000000000000     
  0.28749999999999998       0.66249999999999998        0.0000000000000000     
  0.33124999999999999       0.66874999999999996        0.0000000000000000     
  0.33750000000000002       0.71250000000000002        0.0000000000000000     
  0.29375000000000001       0.70625000000000004        0.0000000000000000     
  0.43750000000000000       0.62500000000000000        0.0000000000000000     
  0.50000000000000000       0.62500000000000000        0.0000000000000000     
  0.50000000000000000       0.68750000000000000        0.0000000000000000     
  0.41249999999999998       0.66249999999999998        0.0000000000000000     
  0.45624999999999999       0.66874999999999996        0.0000000000000000     
  0.46250000000000002       0.71250000000000002        0.0000000000000000     
  0.41875000000000001       0.70625000000000004        0.0000000000000000     
  0.31250000000000000       0.50000000000000000        0.0000000000000000     
  0.37500000000000000       0.50000000000000000        0.0000000000000000     
  0.37500000000000000       0.56250000000000000        0.0000000000000000     
  0.28749999999999998       0.53749999999999998        0.0000000000000000     
  0.33124999999999999       0.54374999999999996        0.0000000000000000     
  0.33750000000000002       0.58750000000000002        0.0000000000000000     
  0.29375000000000001       0.58125000000000004        0.0000000000000000     
  0.43750000000000000       0.50000000000000000        0.0000000000000000     
  0.50000000000000000       0.50000000000000000        0.0000000000000000     
  0.50000000000000000       0.56250000000000000        0.0000000000000000     
  0.41249999999999998       0.53749999999999998        0.0000000000000000     
  0.45624999999999999       0.54374999999999996        0.0000000000000000     
  0.46250000000000002       0.58750000000000002        0.0000000000000000     
  0.41875000000000001       0.58125000000000004        0.0000000000000000     
  0.56250000000000000       0.87500000000000000        0.0000000000000000     
  0.62500000000000000       0.87500000000000000        0.0000000000000000     
  0.62500000000000000       0.93750000000000000        0.0000000000000000     
  0.53749999999999998       0.91249999999999998        0.0000000000000000     
  0.58125000000000004       0.91874999999999996        0.0000000000000000     
  0.58750000000000002       0.96250000000000002        0.0000000000000000     
  0.54374999999999996       0.95625000000000004        0.0000000000000000     
  0.68750000000000000       0.87500000000000000        0.0000000000000000     
  0.75000000000000000       0.87500000000000000        0.0000000000000000     
  0.75000000000000000       0.93750000000000000        0.0000000000000000     
  0.66249999999999998       0.91249999999999998        0.0000000000000000     
  0.70625000000000004       0.91874999999999996        0.0000000000000000     
  0.71250000000000002       0.96250000000000002        0.0000000000000000     
[...]
 CELL_DATA         896
 SCALARS Tumor_cells float
 LOOKUP_TABLE default
    0.42554005633024103079E-04
    0.33761232633761881260E-04
   -0.59421630906946629284E-05
   -0.22009246012865212554E-04
    0.14234421305072761111E-04
   -0.19279122794430402095E-04
    0.35726121021984429257E-04
    0.33198089703016908755E-04
    0.50473939457429285586E-04
    0.54747881663133826798E-04
    0.48603131045958666390E-04
    0.56379203725088140105E-04
    0.13552895160128778331E-04
    0.35606375964950944179E-05
   -0.52051373210288384480E-04
   -0.44081971425878736478E-04
   -0.11144898747420106254E-03
   -0.11763536481738427687E-03
   -0.66389222517678007354E-04
   -0.88205139520881013782E-04
   -0.10433462688738737560E-04
   -0.40292345872964579936E-04
    0.56413125729513873680E-05
   -0.42701105760582695021E-04
   -0.20271699781499751317E-04
   -0.30416095515230617401E-04
   -0.11273118217991705519E-03
   -0.11724145573590291148E-03
    0.41743223372699043647E-04
    0.32686718408846929425E-04
   -0.95269089904897019373E-05
   -0.25969103952270956561E-04
    0.12248948352781758689E-04
   -0.22091086374463705689E-04
    0.48880001459084447797E-06
    0.31927100592686721891E-04
    0.41311528055797166179E-04
    0.54748796931957489443E-04
    0.48232818176038456926E-04
    0.56400034636785276892E-04
    0.11825047011281301159E-04
    0.22268167641701920455E-05
   -0.60332263611226703544E-04
   -0.52203607023895465429E-04
   -0.11806701418269824875E-03
   -0.66684306324276451227E-04
   -0.72450249581739470600E-04
   -0.54640516785992171986E-04
   -0.10088735945074801391E-03
   -0.48234723118508159847E-04
   -0.62766890680171139234E-04
   -0.47165428352652569708E-04
   -0.24546015964997710803E-04
   -0.35786030295773647251E-04
   -0.11785783173628675707E-03
   -0.12086394430678592160E-03
   -0.47659619412278479765E-04
   -0.38439873827794068209E-04
   -0.45985247151444581576E-04
   -0.34223739824911965921E-04
   -0.43572977743879745007E-04
   -0.40306795382916955981E-04
   -0.18627301782689583337E-04
   -0.37313706909107510767E-04
   -0.20810237703597255963E-04
   -0.47119597902091756210E-04
   -0.36522055180173249739E-04
   -0.45635021202421457097E-04
   -0.31731693837102645337E-04
   -0.30491655610645199739E-04
   -0.28054130206998330110E-04
   -0.39347690909428011845E-04
    0.60721281406805088419E-04
    0.85517076372375547418E-04
   -0.34488700344050445261E-04
    0.46448190859590399984E-04
   -0.33627747810706697725E-04
   -0.42869188915218808095E-04
   -0.37933088372297229780E-04
   -0.21184550866507139658E-04
   -0.33847787090822622428E-04
   -0.37347333099869525655E-04
    0.16669926031236928683E-03
    0.18292496050424769715E-03
   -0.47716165894084326324E-04
   -0.38335442988176541418E-04
   -0.47737031783811152078E-04
   -0.42816232570980768764E-04
   -0.39391595396445270552E-04
   -0.40542632800720548023E-04
   -0.47803912730781338816E-04
   -0.38377119572275348377E-04
   -0.47898969120401090201E-04
   -0.48026245616237672883E-04
   -0.37246340153894433506E-04
   -0.47119334246139542310E-04
   -0.31930493050672068434E-04
   -0.31735039408645712743E-04
   -0.28083570528345262236E-04
   -0.39074076167854750728E-04
    0.60627996798428223464E-04
    0.85497831796245513797E-04
   -0.34317489368498649196E-04
    0.46637130233651331195E-04
    0.17870779794690096627E-04
   -0.40163767200468391790E-04
   -0.85905904965058732796E-05
   -0.20097962281452767455E-04
   -0.33546743644697084091E-04
   -0.37911717430377533413E-04
    0.16660081748534193592E-03
    0.18267843790838761311E-03
    0.40905246206780673237E-04
    0.30516211302166062363E-04
   -0.15369567496531312453E-04
   -0.33806490955180360555E-04
    0.75673419035859304011E-05
   -0.29187496830232038963E-04
   -0.27581226950349597623E-05
    0.29877410964122909544E-04
    0.40839373718714320257E-04
    0.54668073332473691669E-04
    0.47709270176899556764E-04
    0.56335428680928186396E-04
    0.83349917784710962832E-05
   -0.82208356507923646625E-06
   -0.73541739529064660639E-04
   -0.66572250006769015818E-04
   -0.12207751587554822913E-03
   -0.51373097837998300309E-04
   -0.84534021381612735433E-04
   -0.49230584055721871484E-04
   -0.10968401533804444893E-03
   -0.60455732916635913313E-04
   -0.71416867549993197448E-04
   -0.55565919779276933259E-04
   -0.34314170517135747756E-04
   -0.46409338078157465050E-04
   -0.12379219361105691147E-03
   -0.12399316918473060048E-03
    0.40864985489193600659E-04
    0.28499270964135019755E-04
   -0.19014467533386064576E-04
   -0.40751634986236331601E-04
    0.24115571309328014334E-05
   -0.39182231487377401711E-04
   -0.81925092838144634945E-05
    0.27338951990493284052E-04
    0.40042561023270083946E-04
    0.54518602338908143728E-04
    0.47268852602035002454E-04
    0.56234791890059985901E-04
    0.49221909356959348781E-05
   -0.43555790583336957369E-05
   -0.80420869382859613448E-04
   -0.75551647769389677608E-04
   -0.73305646431116159071E-04
   -0.49793531591471277425E-04
   -0.46652428540757953570E-04
   -0.48382997561087200209E-04
   -0.10507515875628450539E-03
   -0.74844445207772439558E-04
   -0.84564026840032162249E-04
   -0.66903205250366364889E-04
   -0.44611963544862580919E-04
   -0.54906462993796892119E-04
   -0.12042276134446936852E-03
   -0.11556942939573064649E-03
   -0.47848795107909118933E-04
   -0.37763850341311630608E-04
    0.13788027311548243375E-04
    0.97382411497660501128E-04
   -0.37660868759084882421E-04
   -0.46300506281087766352E-04
   -0.48120403969773607462E-04
   -0.38138132179031649304E-04
   -0.47931688340762101117E-04
   -0.47934494990373348127E-04
   -0.37484803248356692929E-04
   -0.47568281865573459606E-04
   -0.31935458146442453442E-04
   -0.32110942296326297008E-04
    0.95038904019596522760E-02
    0.85707703424583048940E-02
    0.11545694653895920492E-01
    0.79613387489086331200E-02
    0.31947172880344293366E-02
    0.18724122789262430530E-03
    0.19911944835350284548E-04
   -0.26702908557836844180E-04
   -0.91260742864846551689E-05
   -0.29406072155818083349E-04
    0.32005721711835080677E-03
    0.22710793636475387972E-02
    0.28126947168754935606E-02
    0.89350329312916365598E-03
   -0.17831232856237783557E-05
    0.20638517189437142509E-02
    0.88920691707822015898E-02
    0.14108552225499528671E-01
    0.86085279555947417235E-02
    0.93664676231792840660E-02
    0.19324638537212125797E-02
    0.67872154579164074633E-04
   -0.47182609252071688259E-04
   -0.47959690278886736537E-04
   -0.36358115055979100790E-04
   -0.47391610062597655279E-04
    0.10524471992840630217E-03
    0.17305609529587370060E-02
    0.22406333603714051472E-01
    0.23771276241677467139E-01
    0.23081167723791370244E-01
    0.19636404928084869037E-01
    0.19699835660015575789E-01
    0.15652298679009205018E-01
    0.14136678038845147329E-01
    0.17040394638253457404E-01
    0.12396984226990053271E-01
    0.12599997000521301685E-01
    0.18870117765351041711E-01
    0.18124796194314930775E-01
    0.21677037027573068523E-01
    0.20909335655396824732E-01
    0.49482575188413620315E-04
   -0.24580233332223895310E-04
    0.10881803654279831545E-03
    0.10804867409969906773E-03
   -0.26239091338730660550E-04
    0.52162199203915169819E-04
   -0.38880989064818375516E-04
   -0.27211601993797083826E-04
   -0.45754983452817652291E-04
    0.10258870274404393371E-03
   -0.13862942020521730195E-04
    0.49213393779003522847E-04
    0.38780264664878413231E-03
    0.38153863296200838696E-03
    0.50787058970803568661E-04
   -0.27027474141672725534E-04
    0.10911295267625721280E-03
    0.10887309138306861911E-03
   -0.27566725041430959722E-04
    0.51620333836467669506E-04
   -0.39755981560855864325E-04
   -0.28243056233587123221E-04
   -0.46140994194928160860E-04
    0.10675153677514155560E-03
   -0.23441367644136350794E-04
    0.50783581372450037122E-04
    0.39057507398641074133E-03
    0.38856561423842960043E-03
    0.49782657634202172889E-04
   -0.24560156331728278940E-04
    0.10873351613115795830E-03
    0.10810261659438418250E-03
   -0.26170202331236490595E-04
    0.52219284543754168788E-04
    0.51207803040180901229E-04
   -0.24327593422307962421E-04
    0.10578431491016393354E-03
    0.10679778173984000344E-03
   -0.13727678667522900217E-04
    0.49286518433485345737E-04
    0.38727122961291994465E-03
    0.38154118368158252902E-03
    0.50939183552680482293E-04
   -0.27090225344714323930E-04
    0.10909644421499553059E-03
    0.10890449981121304659E-03
   -0.27568199714599991748E-04
    0.51650751689114194210E-04
    0.51328319550890611411E-04
   -0.26830314820350434872E-04
    0.10812296776648963235E-03
    0.10842819608477157454E-03
   -0.23579739887173317453E-04
    0.50857320348124340846E-04
    0.39040024175083978125E-03
    0.38868403142679620443E-03
    0.51201814821793303336E-04
   -0.27843549127950089234E-04
    0.10921007029865290516E-03
    0.10914167060964721724E-03
   -0.28014736013567658325E-04
    0.51430036159484390312E-04
   -0.40046543733728054806E-04
   -0.28615216034071992284E-04
   -0.46263232669613170683E-04
    0.10815927187696226049E-03
   -0.26676189159777407504E-04
    0.51194296436155981749E-04
    0.39150536090612470105E-03
    0.39090215061158011152E-03
    0.51339939716194809964E-04
   -0.28139399137957158282E-04
    0.10879665867402846659E-03
   -0.46311202018216449984E-04
   -0.28851784691606389293E-04
   -0.40201171226318941135E-04
   -0.40200909358978059846E-04
   -0.28747831985116574337E-04
   -0.46302136082350518634E-04
    0.10863748151476596351E-03
   -0.27796661524910451952E-04
    0.51331880255126975134E-04
    0.39181168494016718534E-03
    0.39173310783921440380E-03
    0.51244958632181013985E-04
   -0.27872148879312906984E-04
    0.10920873759989538907E-03
    0.10915260452682713072E-03
   -0.28020547595675400802E-04
    0.51460843885632900658E-04
    0.51367399327456360477E-04
   -0.27750423143795268309E-04
    0.10890149200661797572E-03
    0.10899141786235771252E-03
   -0.26758277740535292880E-04
    0.51223334574086840272E-04
    0.39147499853341984847E-03
    0.39096166390951774764E-03
    0.51349863763957033090E-04
   -0.28145515332592861501E-04
    0.10880160933751225477E-03
   -0.46312039657247043025E-04
   -0.28852146708316631812E-04
   -0.40168434811852849527E-04
    0.51337186762548223009E-04
   -0.28070690261614794040E-04
    0.10916282777324045163E-03
    0.10917746178905034650E-03
   -0.27819426204036895660E-04
    0.51339882690161242921E-04
    0.39181061307014692632E-03
    0.39174906920478756375E-03
    0.94695224113752855810E-02
    0.52100971800018956726E-02
    0.14919302116278413718E-02
    0.15869068044577447373E-03
   -0.23909856266138740551E-04
    0.52129292934199136539E-04
    0.51216269495509918446E-04
   -0.20577195524191394259E-04
    0.10598516620579285813E-03
    0.16037886206520825510E-03
    0.20259958650652495210E-02
    0.70683457159852521728E-02
    0.16336162453779959781E-02
    0.51474266657328376483E-03
    0.51111264176679473083E-04
   -0.27322481918368336914E-04
    0.10910984277608810867E-03
    0.10896927586617210257E-03
   -0.27649653515179111666E-04
    0.51614032452879153676E-04
    0.51333167142035547950E-04
   -0.26652405325306265647E-04
    0.10820862013896102090E-03
    0.10838717004178192885E-03
   -0.24350432834833291669E-04
    0.51400903037775317391E-04
    0.39036923063813587075E-03
    0.38915681255573302466E-03
    0.10752926440504975703E-01
    0.67203334451876334948E-02
    0.11467154122926355529E-02
    0.96490735633814549675E-03
    0.39108401013044965383E-02
    0.11965670002694183283E-02
    0.32577559857241192819E-02
    0.82684256497156140286E-02
    0.11301908164606877874E-01
    0.14161425108385930494E-01
    0.13212059611521808841E-01
    0.16200137100303716592E-01
    0.87711659876818243858E-02
    0.75481871698908969623E-02
    0.56809200514553004715E-04
   -0.27457413406975771401E-04
    0.10915772434231563214E-03
    0.10901059499802715435E-03
   -0.27804269722457612072E-04
    0.51558013245616493971E-04
    0.51339565143089475473E-04
   -0.27142534500432326418E-04
    0.10894235423751174826E-03
    0.18002740998160560648E-03
   -0.17201719465692429713E-04
    0.30787183215670078668E-03
    0.39092752621109439848E-03
    0.38974609393693532972E-03
    0.51279512605870451649E-04
   -0.27932560903701536586E-04
    0.10921471973223006069E-03
    0.10916968170744967032E-03
   -0.28045953035575824498E-04
    0.51450939755000681987E-04
    0.51369385853885811877E-04
   -0.27742533996028056277E-04
    0.10893791966638684515E-03
    0.10900285683262181922E-03
   -0.26986343846394237396E-04
    0.51266250700598742403E-04
    0.39150293861732183946E-03
    0.39110430182321618805E-03
    0.51356356355390462155E-04
   -0.28156774984060790944E-04
    0.10880624163176715448E-03
   -0.46312196525977674419E-04
   -0.28851891948622009185E-04
   -0.40169166663670529684E-04
    0.51338346426609670476E-04
   -0.28071344008767807877E-04
    0.10917288353270341130E-03
    0.10918340275185312320E-03
   -0.27872292420739502085E-04
    0.51349758154493672479E-04
    0.39182301249257258822E-03
    0.39177820314840349674E-03
    0.51257906904753389827E-04
   -0.27982470385200063887E-04
    0.10922777202784745643E-03
    0.10918114168257453736E-03
   -0.28083564032291594381E-04
    0.51438615487133411820E-04
    0.51371682072053696778E-04
   -0.27853640309525174844E-04
    0.10899978656991227588E-03
    0.10906237513427148610E-03
   -0.27224465148183512410E-04
    0.51272566659140685009E-04
    0.39163977239100537103E-03
    0.39125905497573140778E-03
    0.51350310121881586017E-04
   -0.28161201514761536013E-04
    0.10880729498560263936E-03
   -0.46313590128402099737E-04
   -0.28850676568774362906E-04
   -0.40170015220772779178E-04
    0.51342168367602694038E-04
   -0.28098682927785172028E-04
    0.10918725643456047235E-03
    0.10919879475252245338E-03
   -0.27923774984374840973E-04
    0.51351446320562393931E-04
    0.39185495473087066142E-03
    0.39180809230853646564E-03
    0.41798652345130234229E-04
    0.29001942021062394948E-04
   -0.15724456090479440690E-04
   -0.38321772415620825177E-04
    0.26201870101720751853E-05
   -0.41934672318234567914E-04
   -0.11479684609587530785E-04
    0.26889450450341543424E-04
    0.39200285027562191593E-04
    0.54488928218364635677E-04
    0.47223110094987087097E-04
    0.56252243934107914775E-04
    0.54360124991543410985E-05
   -0.49707774487399546945E-05
   -0.73046013030181092241E-04
   -0.72394417431749795606E-04
   -0.10708092776275179392E-03
   -0.50278448118299278629E-04
   -0.46660009635324971788E-04
   -0.48459585825076767333E-04
   -0.71575263905039441690E-04
   -0.77559000449648355453E-04
   -0.90773920771743281713E-04
   -0.70457259109614467623E-04
   -0.44236478911049131456E-04
   -0.50969743818964455848E-04
   -0.12130714016684378503E-03
   -0.11489597673991894299E-03
    0.42502914365773235630E-04
    0.31207793806764103550E-04
   -0.97723942245172195292E-05
   -0.29946007020209901262E-04
    0.80496738999772562804E-05
   -0.33601792595432420719E-04
   -0.84556660423743814167E-05
    0.29308982549992239168E-04
    0.39412086549272124783E-04
    0.54642500529185308357E-04
    0.47601128062220205046E-04
    0.56363110471852235790E-04
    0.93235660411216389406E-05
   -0.19454888770564653753E-05
   -0.59789568767588582019E-04
   -0.58230254506483457180E-04
   -0.11887749933210483254E-03
   -0.55498592402322125992E-04
   -0.84377799612445154235E-04
   -0.48625636509087098833E-04
   -0.11730221629219995320E-03
   -0.67760509276527580908E-04
   -0.83136906953412150444E-04
   -0.61733900628689139674E-04
   -0.33709307018777729520E-04
   -0.39841546574797195445E-04
   -0.12400433309977146692E-03
   -0.12382505683115942207E-03
   -0.47722692470597276467E-04
   -0.13342728018230105768E-04
    0.10431596389514222536E-02
    0.69136116858068055041E-02
    0.88561285709682080469E-02
    0.15847088439832124340E-01
    0.90288012581627181269E-02
    0.19487404329527975490E-02
   -0.91274434124278985858E-05
   -0.47639431857680308705E-04
   -0.36439119886690047407E-04
   -0.47534756541729290228E-04
    0.10032996182037353045E-03
    0.20193315135028475256E-02
    0.11145869848089786855E-01
    0.16545419156592352378E-01
    0.14798672582117295901E-01
    0.15764068709827137177E-01
    0.19251906208773067464E-01
    0.17760368077884596677E-01
    0.22900554411821764239E-01
    0.23615889460539118277E-01
    0.22396298225225881595E-01
    0.19354227594335596252E-01
    0.18444193440753181568E-01
    0.11095997469645806424E-01
    0.20180309538666618696E-01
    0.21303582557300228262E-01
   -0.47801413270690752320E-04
   -0.38221366640767698774E-04
   -0.47943552353029056411E-04
   -0.45856001104937717987E-04
   -0.38080241022123715103E-04
    0.24886702310026644487E-04
   -0.29423733379784543180E-04
   -0.38144215944679468690E-04
   -0.47833671768485254189E-04
   -0.48018698573817397474E-04
   -0.37514311635266170018E-04
   -0.47358756806282365913E-04
   -0.31883014378339176334E-04
   -0.32128032982495079866E-04
   -0.28528344073334831475E-04
   -0.32577273481011576018E-04
    0.62248066812364198598E-04
    0.17718893558320685249E-03
    0.28611560866838351390E-02
    0.74523407915988194861E-02
    0.12418595176157575660E-01
    0.84064260891602640702E-02
    0.74994403600315657707E-02
    0.14750531582112854766E-02
    0.11732329613759845356E-04
   -0.44549632493402850078E-04
    0.72631848344715881863E-03
    0.30195976747045970463E-02
    0.42909483534489959778E-04
    0.33037606497297088777E-04
   -0.60078338274941296831E-05
   -0.23810475559129514822E-04
    0.12567595522426807430E-04
   -0.24475021479934305259E-04
   -0.31178816396066786998E-05
    0.31683919536108486005E-04
    0.40302860142881421243E-04
    0.54741845516274219578E-04
    0.48181635762710243434E-04
    0.56392301962158610906E-04
    0.12437265646311991476E-04
    0.14863982606587046047E-05
   -0.51717635711558460456E-04
   -0.46726128297132432123E-04
   -0.11250237255672413316E-03
   -0.11956203456516223361E-03
   -0.72129640406163307055E-04
   -0.50735863346617796716E-04
   -0.10892305734239458642E-03
   -0.53010332542296524378E-04
   -0.70102806634309410157E-04
   -0.50694193453508427070E-04
   -0.24358508767959198690E-04
   -0.32124701245464331017E-04
   -0.11735360021306960718E-03
   -0.12139842701220946515E-03
    0.51739324625845031563E-04
    0.34299763024919308085E-04
    0.30906369575743691217E-04
   -0.21287974588700650275E-04
    0.14348982264334627355E-04
   -0.19999567930577409912E-04
    0.29366385318839791300E-06
    0.32793529352529132270E-04
    0.41073735926609932715E-04
    0.54750954114043742446E-04
    0.48582543142615122408E-04
    0.56368836967132088570E-04
    0.13748600285295669597E-04
    0.33882228687470563407E-05
    0.15133252222614869821E-04
   -0.38754869999662516832E-04
   -0.24931674963688943148E-04
   -0.11674182026825147425E-03
   -0.66068018760608414742E-04
   -0.69795759150741000054E-04
   -0.10075446728005771064E-03
   -0.44926768724371894399E-04
   -0.62206742117327829293E-04
   -0.45031606652036842661E-04
   -0.20194547868380965716E-04
   -0.28008988939565055304E-04
   -0.11252023337110604996E-03
   -0.11745464345040513090E-03
   -0.47668607966357933175E-04
   -0.38318625085638897921E-04
   -0.45828915140612753337E-04
   -0.34625306311229366398E-04
   -0.39312338667152860086E-04
   -0.45102745241097893570E-04
   -0.48084484119475677435E-04
   -0.38300271711262785475E-04
   -0.47841179088526423178E-04
   -0.47973236268822611191E-04
   -0.37228469826361575341E-04
   -0.46278904263729833159E-04
   -0.31902708438725496253E-04
   -0.31803211769153476112E-04
   -0.28048049659963193822E-04
   -0.39312074793438477212E-04
    0.60745687482506919002E-04
    0.85501668266723933483E-04
   -0.34407625319382318394E-04
    0.46703675164629875592E-04
    0.17989094472072698845E-04
   -0.40072923435178914591E-04
   -0.86923403983228753945E-05
   -0.21033807653328022636E-04
   -0.33513369780880824568E-04
   -0.37351911789023930458E-04