# vtk DataFile Version 3.0
LAPLACIEN  2D
ASCII
DATASET UNSTRUCTURED_GRID
 POINTS         481  float
   6.2500000000000000E-002  0.87500000000000000        0.0000000000000000     
  0.12500000000000000       0.87500000000000000        0.0000000000000000     
  0.12500000000000000       0.93750000000000000        0.0000000000000000     
   3.7499999999999999E-002  0.91249999999999998        0.0000000000000000     
   8.1250000000000003E-002  0.91874999999999996        0.0000000000000000     
   8.7499999999999994E-002  0.96250000000000002        0.0000000000000000     
   4.3749999999999997E-002  0.95625000000000004        0.0000000000000000     
  0.18750000000000000       0.87500000000000000        0.0000000000000000     
  0.25000000000000000       0.87500000000000000        0.0000000000000000     
  0.25000000000000000       0.93750000000000000        0.0000000000000000     
  0.16250000000000001       0.91249999999999998        0.0000000000000000     
  0.20624999999999999       0.91874999999999996        0.0000000000000000     
  0.21249999999999999       0.96250000000000002        0.0000000000000000     
  0.16875000000000001       0.95625000000000004        0.0000000000000000     
   6.2500000000000000E-002  0.75000000000000000        0.0000000000000000     
  0.12500000000000000       0.75000000000000000        0.0000000000000000     
  0.12500000000000000       0.81250000000000000        0.0000000000000000     
   3.7499999999999999E-002  0.78749999999999998        0.0000000000000000     
   8.1250000000000003E-002  0.79374999999999996        0.0000000000000000     
   8.7499999999999994E-002  0.83750000000000002        0.0000000000000000     
   4.3749999999999997E-002  0.83125000000000004        0.0000000000000000     
  0.18750000000000000       0.75000000000000000        0.0000000000000000     
  0.25000000000000000       0.75000000000000000        0.0000000000000000     
  0.25000000000000000       0.81250000000000000        0.0000000000000000     
  0.16250000000000001       0.78749999999999998        0.0000000000000000     
  0.20624999999999999       0.79374999999999996        0.0000000000000000     
  0.21249999999999999       0.83750000000000002        0.0000000000000000     
  0.16875000000000001       0.83125000000000004        0.0000000000000000     
  0.31250000000000000       0.87500000000000000        0.0000000000000000     
  0.37500000000000000       0.87500000000000000        0.0000000000000000     
  0.37500000000000000       0.93750000000000000        0.0000000000000000     
  0.28749999999999998       0.91249999999999998        0.0000000000000000     
  0.33124999999999999       0.91874999999999996        0.0000000000000000     
  0.33750000000000002       0.96250000000000002        0.0000000000000000     
  0.29375000000000001       0.95625000000000004        0.0000000000000000     
  0.43750000000000000       0.87500000000000000        0.0000000000000000     
  0.50000000000000000       0.87500000000000000        0.0000000000000000     
  0.50000000000000000       0.93750000000000000        0.0000000000000000     
  0.41249999999999998       0.91249999999999998        0.0000000000000000     
  0.45624999999999999       0.91874999999999996        0.0000000000000000     
  0.46250000000000002       0.96250000000000002        0.0000000000000000     
  0.41875000000000001       0.95625000000000004        0.0000000000000000     
  0.31250000000000000       0.75000000000000000        0.0000000000000000     
  0.37500000000000000       0.75000000000000000        0.0000000000000000     
  0.37500000000000000       0.81250000000000000        0.0000000000000000     
  0.28749999999999998       0.78749999999999998        0.0000000000000000     
  0.33124999999999999       0.79374999999999996        0.0000000000000000     
  0.33750000000000002       0.83750000000000002        0.0000000000000000     
  0.29375000000000001       0.83125000000000004        0.0000000000000000     
  0.43750000000000000       0.75000000000000000        0.0000000000000000     
  0.50000000000000000       0.75000000000000000        0.0000000000000000     
  0.50000000000000000       0.81250000000000000        0.0000000000000000     
  0.41249999999999998       0.78749999999999998        0.0000000000000000     
  0.45624999999999999       0.79374999999999996        0.0000000000000000     
  0.46250000000000002       0.83750000000000002        0.0000000000000000     
  0.41875000000000001       0.83125000000000004        0.0000000000000000     
   6.2500000000000000E-002  0.62500000000000000        0.0000000000000000     
  0.12500000000000000       0.62500000000000000        0.0000000000000000     
  0.12500000000000000       0.68750000000000000        0.0000000000000000     
   3.7499999999999999E-002  0.66249999999999998        0.0000000000000000     
   8.1250000000000003E-002  0.66874999999999996        0.0000000000000000     
   8.7499999999999994E-002  0.71250000000000002        0.0000000000000000     
   4.3749999999999997E-002  0.70625000000000004        0.0000000000000000     
  0.18750000000000000       0.62500000000000000        0.0000000000000000     
  0.25000000000000000       0.62500000000000000        0.0000000000000000     
  0.25000000000000000       0.68750000000000000        0.0000000000000000     
  0.16250000000000001       0.66249999999999998        0.0000000000000000     
  0.20624999999999999       0.66874999999999996        0.0000000000000000     
  0.21249999999999999       0.71250000000000002        0.0000000000000000     
  0.16875000000000001       0.70625000000000004        0.0000000000000000     
   6.2500000000000000E-002  0.50000000000000000        0.0000000000000000     
  0.12500000000000000       0.50000000000000000        0.0000000000000000     
  0.12500000000000000       0.56250000000000000        0.0000000000000000     
   3.7499999999999999E-002  0.53749999999999998        0.0000000000000000     
   8.1250000000000003E-002  0.54374999999999996        0.0000000000000000     
   8.7499999999999994E-002  0.58750000000000002        0.0000000000000000     
   4.3749999999999997E-002  0.58125000000000004        0.0000000000000000     
  0.18750000000000000       0.50000000000000000        0.0000000000000000     
  0.25000000000000000       0.50000000000000000        0.0000000000000000     
  0.25000000000000000       0.56250000000000000        0.0000000000000000     
  0.16250000000000001       0.53749999999999998        0.0000000000000000     
  0.20624999999999999       0.54374999999999996        0.0000000000000000     
  0.21249999999999999       0.58750000000000002        0.0000000000000000     
  0.16875000000000001       0.58125000000000004        0.0000000000000000     
  0.31250000000000000       0.62500000000000000        0.0000000000000000     
  0.37500000000000000       0.62500000000000000        0.0000000000000000     
  0.37500000000000000       0.68750000000000000        0.0000000000000000     
  0.28749999999999998       0.66249999999999998        0.0000000000000000     
  0.33124999999999999       0.66874999999999996        0.0000000000000000     
  0.33750000000000002       0.71250000000000002        0.0000000000000000     
  0.29375000000000001       0.70625000000000004        0.0000000000000000     
  0.43750000000000000       0.62500000000000000        0.0000000000000000     
  0.50000000000000000       0.62500000000000000        0.0000000000000000     
  0.50000000000000000       0.68750000000000000        0.0000000000000000     
  0.41249999999999998       0.66249999999999998        0.0000000000000000     
  0.45624999999999999       0.66874999999999996        0.0000000000000000     
  0.46250000000000002       0.71250000000000002        0.0000000000000000     
  0.41875000000000001       0.70625000000000004        0.0000000000000000     
  0.31250000000000000       0.50000000000000000        0.0000000000000000     
  0.37500000000000000       0.50000000000000000        0.0000000000000000     
  0.37500000000000000       0.56250000000000000        0.0000000000000000     
  0.28749999999999998       0.53749999999999998        0.0000000000000000     
  0.33124999999999999       0.54374999999999996        0.0000000000000000     
  0.33750000000000002       0.58750000000000002        0.0000000000000000     
  0.29375000000000001       0.58125000000000004        0.0000000000000000     
  0.43750000000000000       0.50000000000000000        0.0000000000000000     
  0.50000000000000000       0.50000000000000000        0.0000000000000000     
  0.50000000000000000       0.56250000000000000        0.0000000000000000     
  0.41249999999999998       0.53749999999999998        0.0000000000000000     
  0.45624999999999999       0.54374999999999996        0.0000000000000000     
  0.46250000000000002       0.58750000000000002        0.0000000000000000     
  0.41875000000000001       0.58125000000000004        0.0000000000000000     
  0.56250000000000000       0.87500000000000000        0.0000000000000000     
  0.62500000000000000       0.87500000000000000        0.0000000000000000     
  0.62500000000000000       0.93750000000000000        0.0000000000000000     
  0.53749999999999998       0.91249999999999998        0.0000000000000000     
  0.58125000000000004       0.91874999999999996        0.0000000000000000     
  0.58750000000000002       0.96250000000000002        0.0000000000000000     
  0.54374999999999996       0.95625000000000004        0.0000000000000000     
  0.68750000000000000       0.87500000000000000        0.0000000000000000     
  0.75000000000000000       0.87500000000000000        0.0000000000000000     
  0.75000000000000000       0.93750000000000000        0.0000000000000000     
  0.66249999999999998       0.91249999999999998        0.0000000000000000     
  0.70625000000000004       0.91874999999999996        0.0000000000000000     
  0.71250000000000002       0.96250000000000002        0.0000000000000000     
[...]
 CELL_DATA         896
 SCALARS VEGF float
 LOOKUP_TABLE default
    0.16350193200223193254E-05
    0.17655604878889983558E-05
    0.21902181765810409726E-05
    0.23453824586000975624E-05
    0.19689700085407862371E-05
    0.20969434687597228184E-05
    0.17656448548806531197E-05
    0.16310586521897720961E-05
    0.14662236862163029788E-05
    0.14261367882421985156E-05
    0.15060507820342970463E-05
    0.14671187211969439915E-05
    0.16629313033814286147E-05
    0.17101004418934636458E-05
    0.40090980528367283687E-05
    0.48211696616668746039E-05
    0.74872267816049718154E-05
    0.77487103622289777046E-05
    0.50286963264137792321E-05
    0.41655454219407491893E-05
    0.35071920998395412499E-05
    0.31928790923322799366E-05
    0.25037819595238809343E-05
    0.23330946249710924969E-05
    0.28352486027302718821E-05
    0.27638630406406649012E-05
    0.37232770518367511005E-05
    0.38106994761578911782E-05
    0.23076171628139846219E-05
    0.27558535831478708013E-05
    0.41648601662515809146E-05
    0.47867109503297181273E-05
    0.33145468985515813582E-05
    0.34304148465977321723E-05
    0.23848140364110461446E-05
    0.20663689664615729243E-05
    0.16982503531585553696E-05
    0.16346821371875452642E-05
    0.18907276888761054685E-05
    0.19033752762609278153E-05
    0.23096758479168409983E-05
    0.24118356737560921580E-05
    0.11401396152911106997E-04
    0.15412792025891094148E-04
    0.27392947055930264987E-04
    0.28743736953110948058E-04
    0.17285582840162795230E-04
    0.15438362870300058517E-04
    0.90773056751988874053E-05
    0.77610296732571467737E-05
    0.45869091090340269884E-05
    0.42250637275199323575E-05
    0.66823871738008176847E-05
    0.64203072242729776668E-05
    0.10554585764900127674E-04
    0.10984366884332889841E-04
    0.17484646999756231207E-04
    0.23126975854138861420E-04
    0.40131977615492010379E-04
    0.44598398103308262586E-04
    0.30220877605416976284E-04
    0.34562276410446945432E-04
    0.23255841400191219813E-04
    0.15422068085150553613E-04
    0.84305927238873925645E-05
    0.59948764078505824922E-05
    0.10054679367225838321E-04
    0.96988963665278109597E-05
    0.16893342009591609239E-04
    0.18685792125039506477E-04
    0.94168795881621725728E-04
    0.10848319019704203315E-03
    0.15273449670645300501E-03
    0.14948792656673494579E-03
    0.11635440024671453289E-03
    0.11633895851788307639E-03
    0.94115010805476118343E-04
    0.77071894070755426857E-04
    0.52612460459735672328E-04
    0.44222623304465886497E-04
    0.61865207561590627593E-04
    0.57981409235017366654E-04
    0.89151637573971117537E-04
    0.92676356440755768137E-04
    0.73412829706688873628E-04
    0.89862573526839451899E-04
    0.15493838822727473616E-03
    0.15735792456403723265E-03
    0.95294512538585303147E-04
    0.87800617837844707313E-04
    0.49203308186333640536E-04
    0.41000115073056281735E-04
    0.21319792478122350123E-04
    0.20070056040562048828E-04
    0.37170335121060850349E-04
    0.38978761836434491772E-04
    0.59328058105692937669E-04
    0.60657910884210857849E-04
    0.35358774655804079811E-03
    0.36090878220949217320E-03
    0.51719154934225556545E-03
    0.44697014586080318363E-03
    0.30630565361536266859E-03
    0.24890125299174072375E-03
    0.17743265134383028937E-03
    0.17287836625692702946E-03
    0.11089955322294825621E-03
    0.10947649750214211010E-03
    0.18152060785423169455E-03
    0.20244143624916600488E-03
    0.25235582880058806104E-03
    0.24353362599994463110E-03
    0.36691197597270739655E-05
    0.51159418396219519978E-05
    0.88109091442677038369E-05
    0.11405776098358005711E-04
    0.74265675499825862681E-05
    0.84212698130151879673E-05
    0.48083234679147005919E-05
    0.36566042201506256671E-05
    0.24854375850606503395E-05
    0.23691788493622670417E-05
    0.29514469043699697185E-05
    0.28885745559340294680E-05
    0.41083406106699309009E-05
    0.45319117528059230866E-05
    0.30405353162516488095E-04
    0.46969067181101987064E-04
    0.85307138050655571229E-04
    0.10386643878215116822E-03
    0.62857598220506170059E-04
    0.63936819268701361061E-04
    0.34399575553739698461E-04
    0.26512613377768681332E-04
    0.13455510461284519961E-04
    0.11442345553630424687E-04
    0.19454798874954907253E-04
    0.16591739785464645543E-04
    0.33801315394346040052E-04
    0.37103111993309937321E-04
    0.46235227029508421814E-05
    0.73042275476573945142E-05
    0.12752885431893194227E-04
    0.18776911765432608488E-04
    0.13377814745514495933E-04
    0.18016616535276958554E-04
    0.98608468163711097938E-05
    0.64572038978685677399E-05
    0.39010156572004155617E-05
    0.35065611531628586289E-05
    0.42561388576590750954E-05
    0.37836755832367473251E-05
    0.63743029028441452482E-05
    0.75379154154933034987E-05
    0.47024241986693232046E-04
    0.85220968820686124876E-04
    0.14987328788818084376E-03
    0.21370099705414583339E-03
    0.14996056741197098610E-03
    0.18697238014993541378E-03
    0.10049444460969502520E-03
    0.68556407119836797258E-04
    0.34005494280021287992E-04
    0.25765965712449855399E-04
    0.39951491068497122416E-04
    0.28143793898657264852E-04
    0.72062927044043868091E-04
    0.85442372570250895163E-04
    0.27097762442085924790E-03
    0.37182741601638310191E-03
    0.66512510450538473231E-03
    0.69913113136776017416E-03
    0.41192199395756332525E-03
    0.36170468763769224839E-03
    0.19830275860685989239E-03
    0.17190255529002975961E-03
    0.90775015699373669677E-04
    0.84755117597592495712E-04
    0.15205380226631086838E-03
    0.14655108036401432565E-03
    0.24877139432251426428E-03
    0.25735046665599400602E-03
    0.15244943571976617928E-02
    0.16260143895601225032E-02
    0.21165239774812998237E-02
    0.19169843224596239389E-02
    0.13409395451220002503E-02
    0.95166381042934499682E-03
    0.65113851613814372529E-03
    0.71320115824976821998E-03
    0.44072837707140490168E-03
    0.45296449267680824035E-03
    0.81743045354035854741E-03
    0.91138806807858460841E-03
    0.11508019583113154091E-02
    0.10876854398650819856E-02
    0.50934216012059351820E-03
    0.89462128643222186587E-03
    0.14675229247367422257E-02
    0.17445694991381191421E-02
    0.13473999115128430619E-02
    0.14312783065134808500E-02
    0.83233067480830184252E-03
    0.62394376723158301995E-03
    0.31715571318132406396E-03
    0.25915143651430869393E-03
    0.41365104810001113037E-03
    0.31015718264638291379E-03
    0.72520895132369990986E-03
    0.83159146451732479308E-03
    0.23212068765786578878E-02
    0.24136310520740983550E-02
    0.25214749913595475156E-02
    0.25662531623133672844E-02
    0.25372147627478677800E-02
    0.25819354087010032081E-02
    0.23229378800967937987E-02
    0.22022145367410518590E-02
    0.17367128323149563871E-02
    0.16935328304660639525E-02
    0.21062849660641361736E-02
    0.20157325660056899137E-02
    0.23973480214107821019E-02
    0.24265048504358193229E-02
    0.20829538628816727619E-03
    0.19366066774565739161E-03
    0.21201156709591378034E-03
    0.19241449352590039509E-03
    0.16971472721551372721E-03
    0.15569566865319118512E-03
    0.14693025468885816966E-03
    0.14669741143374199696E-03
    0.13089473617820964434E-03
    0.12789524839920180964E-03
    0.15228209718735541607E-03
    0.16316383074514557668E-03
    0.17213589203765434599E-03
    0.16779687123310172564E-03
    0.20745643957105266704E-03
    0.18449794918775299269E-03
    0.18279627159181678804E-03
    0.16710920339151405511E-03
    0.15766771065331530830E-03
    0.14392915384292274592E-03
    0.14302533374617172439E-03
    0.15192584343768210267E-03
    0.15047140499740082622E-03
    0.15637258713301928608E-03
    0.17051167330338541130E-03
    0.19002168451616869823E-03
    0.17408662333262393362E-03
    0.16745190833226605842E-03
    0.62859278784027075235E-03
    0.49621923260223564991E-03
    0.51565351661178289791E-03
    0.41865249884629748356E-03
    0.34224492535764398362E-03
    0.26807340531434932333E-03
    0.23591392082302265246E-03
    0.27266017127063540493E-03
    0.23780623521509137498E-03
    0.26530316844898511148E-03
    0.36510339396110568552E-03
    0.46887297963898061934E-03
    0.38624058010799027863E-03
    0.35029097059151992474E-03
    0.41879605481211809419E-03
    0.33029517351076129530E-03
    0.30653522598577743249E-03
    0.26181017886199261548E-03
    0.24072641508317328967E-03
    0.20091948859622118595E-03
    0.19474716679624405028E-03
    0.22739238496806695334E-03
    0.22726737109452294018E-03
    0.25992962901815006450E-03
    0.30647241729918133727E-03
    0.39111657926952769077E-03
    0.29052507657283604481E-03
    0.26592235335148905247E-03
    0.16434476095679255696E-03
    0.14945959935872495691E-03
    0.14464464146492003326E-03
    0.13546259493453345298E-03
    0.13159132356833984053E-03
    0.12142011679524902248E-03
    0.12177262084769095122E-03
    0.13107237017905302772E-03
    0.13340754982386541063E-03
    0.14086902885795875664E-03
    0.14728283345137883876E-03
    0.16118479705359329982E-03
    0.14754735034890672108E-03
    0.14257079901284198616E-03
    0.13140198429218878174E-03
    0.12301289779395382516E-03
    0.11967970909369367869E-03
    0.11312034154280586570E-03
    0.11114845414147171622E-03
    0.10341629245165996252E-03
    0.10332846957388053624E-03
    0.11087927446343993801E-03
    0.11238991444691505178E-03
    0.11868011920821637290E-03
    0.12255488956342379674E-03
    0.13099894816664096756E-03
    0.12429691520603327682E-03
    0.12086714113962676673E-03
    0.24081679471641906235E-03
    0.20555059863624613320E-03
    0.19153846031791848864E-03
    0.17424621272241642153E-03
    0.16833694261775969457E-03
    0.15012916056670160274E-03
    0.14972441597210298645E-03
    0.16796428772677414855E-03
    0.17356533275212244214E-03
    0.19196222437545208597E-03
    0.20633984093179660022E-03
    0.24301335362579727715E-03
    0.19680637292688902152E-03
    0.18576905481157508153E-03
    0.16408307677361847615E-03
    0.15070469911374374263E-03
    0.14573549341764373841E-03
    0.13759644374129929531E-03
    0.13398783143455609418E-03
    0.12388089712727279237E-03
    0.12279827319528879154E-03
    0.13312439606893552361E-03
    0.13621172065708713394E-03
    0.14539665991462899313E-03
    0.15107178086868480803E-03
    0.16581799696449797828E-03
    0.15000942601689780430E-03
    0.14494788966368081246E-03
    0.21597200833075331367E-02
    0.16288802077265936066E-02
    0.14095247333670158762E-02
    0.10727116824222765207E-02
    0.93478063928561301761E-03
    0.65591711214517758616E-03
    0.60403043596813363932E-03
    0.81742223248588356636E-03
    0.76550233008802390754E-03
    0.96151468355171632475E-03
    0.13819721000461135125E-02
    0.19119809398243003875E-02
    0.12829998501972513045E-02
    0.10923135443174133291E-02
    0.83708796826501604815E-03
    0.61919804857269063192E-03
    0.50991847957602401322E-03
    0.42367910451839702318E-03
    0.41315497449820467405E-03
    0.32686319731365444689E-03
    0.33352889678285764508E-03
    0.43151845739116973660E-03
    0.47335366013259315334E-03
    0.59110331535178314757E-03
    0.67102411925749796528E-03
    0.91965212488080119897E-03
    0.56187896820028505798E-03
    0.49692416587211079345E-03
    0.26185401979421716982E-02
    0.23038327205175284686E-02
    0.18091423943822101776E-02
    0.15471775538401062126E-02
    0.17379112187074275721E-02
    0.13583153632203844551E-02
    0.15524380720134997157E-02
    0.21081370608781175961E-02
    0.23661504963017336751E-02
    0.26036459138539698455E-02
    0.26054388516435684521E-02
    0.25981978139987551256E-02
    0.23535210650105103415E-02
    0.21926739034208559374E-02
    0.10470362917338598297E-02
    0.81124637523797107127E-03
    0.62204165016667433991E-03
    0.53433752797406482149E-03
    0.57943448011315277536E-03
    0.47445612722095609941E-03
    0.53755908359980129722E-03
    0.71995960935169447861E-03
    0.90192848933608486470E-03
    0.11354684800504079994E-02
    0.10603280479915689737E-02
    0.13085195771980996041E-02
    0.82363125272820318125E-03
    0.74022862554474241729E-03
    0.34354460948911178441E-03
    0.28322046764278917307E-03
    0.24877328483782719165E-03
    0.22365929353360402025E-03
    0.22278260725471993385E-03
    0.19473031225813666615E-03
    0.19967266381678175726E-03
    0.23526797146052904047E-03
    0.25700106714225353678E-03
    0.29794407432385503235E-03
    0.30942769960488154465E-03
    0.37641404245983251615E-03
    0.27518736772376482889E-03
    0.25554913625674459138E-03
    0.19924533956285092151E-03
    0.18176036508539352462E-03
    0.17286691847641621469E-03
    0.16468493385455248187E-03
    0.16203419083413514315E-03
    0.15088020503925501643E-03
    0.14975159775254393815E-03
    0.16347808759876699455E-03
    0.17034856353088947641E-03
    0.18476224111648134499E-03
    0.18856363194158173597E-03
    0.20884078236560024212E-03
    0.18204707842307542060E-03
    0.17550530388628541949E-03
    0.39547751206078530237E-03
    0.33104168478907713188E-03
    0.27858901222839086527E-03
    0.25425286502773222861E-03
    0.26690906841431367210E-03
    0.23703338454577030001E-03
    0.25548497003343779337E-03
    0.30671747015990034890E-03
    0.35776936662048637984E-03
    0.41701622363756048976E-03
    0.39847431696651543307E-03
    0.46687467831577484896E-03
    0.33850850599086412243E-03
    0.31577301187113172290E-03
    0.21580269508789082819E-03
    0.19930971081222713793E-03
    0.18617011878896039972E-03
    0.18041194260433524770E-03
    0.18253704625094440339E-03
    0.17401899291578026233E-03
    0.17575069601457460463E-03
    0.19084031447759962352E-03
    0.20409525594419249258E-03
    0.22113496018677367876E-03
    0.21676015749355170663E-03
    0.23520545358104432841E-03
    0.20496697642518848159E-03
    0.19873925701500367636E-03
    0.37779575813781987774E-05
    0.60990527241381974535E-05
    0.97817240510931651359E-05
    0.15470119455040791699E-04
    0.13336181012343837404E-04
    0.21345034952770956186E-04
    0.12819395481277118314E-04
    0.75311348476590446514E-05
    0.46032062046723606566E-05
    0.38517617327866740193E-05
    0.41821833336533554282E-05
    0.33852213183654335625E-05
    0.61596400330301748333E-05
    0.76479799702667690636E-05
    0.32068220380607628079E-04
    0.63678199431603998634E-04
    0.99996201664364253768E-04
    0.16093274928499372084E-03
    0.14916741584773161931E-03
    0.23947394642851081389E-03
    0.15035629198724626606E-03
    0.87684780252560067730E-04
    0.46590707906993779537E-04
    0.30951083276347842452E-04
    0.38697567528783631075E-04
    0.22740131970476595694E-04
    0.68070002789586829843E-04
    0.87346590507482457528E-04
    0.23846222882423712410E-05
    0.34384132080377171394E-05
    0.47679234997859723817E-05
    0.72816055646693188122E-05
    0.73407305570948580195E-05
    0.12442555591667064328E-04
    0.88389317914442205024E-05
    0.51411253034937259634E-05
    0.35323305502496503709E-05
    0.28848136839810933563E-05
    0.28439018285984540381E-05
    0.22851943297323546624E-05
    0.38033018906269910956E-05
    0.46736221868787774516E-05
    0.12263476822692962286E-04
    0.24110803984240776406E-04
    0.34196542300135030618E-04
    0.54812453060982295136E-04
    0.61515384816474255169E-04
    0.11067321755370377332E-03
    0.85829794654409828137E-04
    0.46797936167388441751E-04
    0.28246529422675102937E-04
    0.17561280416163647618E-04
    0.18086908583452912649E-04
    0.10055160685336563770E-04
    0.29522186664486113822E-04
    0.38999671306884406798E-04
    0.29129739859844498099E-03
    0.57114563607035557374E-03
    0.83262569614440007804E-03
    0.12813930641934817220E-02
    0.13291905666208043719E-02
    0.18372161022801394587E-02
    0.14652324225179101051E-02
    0.91214662414904035780E-03
    0.50338056170791747879E-03
    0.33800049211598996984E-03
    0.39493193370543133508E-03
    0.22807651146534383552E-03
    0.66584471886884386352E-03
    0.86202404904532137827E-03
    0.16153714489073548594E-02
    0.22035772491977964789E-02
    0.23949435114591958139E-02
    0.25829089149778184167E-02
    0.25485765622810128625E-02
    0.25856757492722327527E-02
    0.25232704736818083874E-02
    0.24284733298104051180E-02
    0.23219571430217493188E-02
    0.21068483967572495912E-02
    0.20854916521313394615E-02
    0.15531875482875095052E-02
    0.23568700229822251227E-02
    0.24599154247780439207E-02
    0.80558311124557320688E-04
    0.15541855219722926196E-03
    0.19860250592782828440E-03
    0.31548919391388474719E-03
    0.39993332221360919539E-03
    0.71710080570524972580E-03
    0.67271475592092701973E-03
    0.36467582791894180561E-03
    0.24517681024996808379E-03
    0.15197361355661113350E-03
    0.13869817889389411615E-03
    0.73906835085329995066E-04
    0.20824718800661830330E-03
    0.27552058580388626629E-03
    0.39337721879678107890E-03
    0.66758709478213621759E-03
    0.67208098521260098424E-03
    0.90530622450410826521E-03
    0.13189726829581813975E-02
    0.18664614144534874031E-02
    0.21684316359257419307E-02
    0.15958977049175006573E-02
    0.13870654254934942137E-02
    0.92139651395461443471E-03
    0.74322905304767062154E-03
    0.40021618270834943137E-03
    0.96229129858360726735E-03
    0.11927429253724998719E-02
    0.16585392501951127222E-05
    0.19823334573356247189E-05
    0.23530979183327757784E-05
    0.30502406287978707614E-05
    0.32449765674626744608E-05
    0.50041204255544533198E-05
    0.41670465453386664785E-05
    0.27357943945550059702E-05
    0.22147674342021717114E-05
    0.18898123476177035379E-05
    0.18377227637663393856E-05
    0.15993745936107543167E-05
    0.21628437867137850088E-05
    0.24650597101542134445E-05
    0.40421933633228811081E-05
    0.65741218961647996804E-05
    0.78140036553797658268E-05
    0.11333429196257176371E-04
    0.16039786695839446768E-04
    0.29661475914213998828E-04
    0.27687436182904757802E-04
    0.15003559948027559692E-04
    0.10259254196968231127E-04
    0.65520051761079757847E-05
    0.60371082491603483532E-05
    0.37383139187622811002E-05
    0.86865538789406704915E-05
    0.11317908338881348850E-04
    0.14430271410418706156E-05
    0.16172733773103946379E-05
    0.17952980020223364116E-05
    0.20328609243474967191E-05
    0.19621185235776567621E-05
    0.23825766473517769692E-05
    0.21739031477672273409E-05
    0.17593899294100910419E-05
    0.16046572447902046386E-05
    0.14657099569028997592E-05
    0.14942677969322022141E-05
    0.14105847553622558341E-05
    0.16387678942718527758E-05
    0.17204099148481430273E-05
    0.25932804881543689636E-05
    0.33829540633805718661E-05
    0.43169296387331902975E-05
    0.52819056864079309295E-05
    0.50084232940251909602E-05
    0.66044582111013951008E-05
    0.65569976578560584427E-05
    0.44046782146127651329E-05
    0.35507042217556424432E-05
    0.27486006775606774215E-05
    0.27497244800592016541E-05
    0.22868362696976760779E-05
    0.34664043513419482311E-05
    0.39341700420872121235E-05
    0.18478286916984970720E-04
    0.37215146862986617660E-04
    0.49395416883421681064E-04
    0.77628739963984925185E-04
    0.93237455607841196979E-04
    0.16220097574363715929E-03
    0.15800838524688141560E-03
    0.87773192038212387018E-04
    0.64330657512377812019E-04
    0.39341822538048626683E-04
    0.33398796038113120099E-04
    0.16345060632620411745E-04
    0.49435798082220356318E-04
    0.65226451479292213193E-04
    0.10199557436591007316E-03
    0.16412184674917149421E-03
    0.18152728391239162840E-03
    0.23597272745916141436E-03
    0.30213973502639065224E-03
    0.44117250573728260211E-03
    0.53898614531892115494E-03
    0.35406414431416360954E-03
    0.31299096931365860512E-03
    0.20578065965115495970E-03
    0.16974282034977331620E-03
    0.98545399004152606855E-04
    0.21696695524480526284E-03