# vtk DataFile Version 3.0
LAPLACIEN  2D
ASCII
DATASET UNSTRUCTURED_GRID
 POINTS         481  float
   6.2500000000000000E-002  0.87500000000000000        0.0000000000000000     
  0.12500000000000000       0.87500000000000000        0.0000000000000000     
  0.12500000000000000       0.93750000000000000        0.0000000000000000     
   3.7499999999999999E-002  0.91249999999999998        0.0000000000000000     
   8.1250000000000003E-002  0.91874999999999996        0.0000000000000000     
   8.7499999999999994E-002  0.96250000000000002        0.0000000000000000     
   4.3749999999999997E-002  0.95625000000000004        0.0000000000000000     
  0.18750000000000000       0.87500000000000000        0.0000000000000000     
  0.25000000000000000       0.87500000000000000        0.0000000000000000     
  0.25000000000000000       0.93750000000000000        0.0000000000000000     
  0.16250000000000001       0.91249999999999998        0.0000000000000000     
  0.20624999999999999       0.91874999999999996        0.0000000000000000     
  0.21249999999999999       0.96250000000000002        0.0000000000000000     
  0.16875000000000001       0.95625000000000004        0.0000000000000000     
   6.2500000000000000E-002  0.75000000000000000        0.0000000000000000     
  0.12500000000000000       0.75000000000000000        0.0000000000000000     
  0.12500000000000000       0.81250000000000000        0.0000000000000000     
   3.7499999999999999E-002  0.78749999999999998        0.0000000000000000     
   8.1250000000000003E-002  0.79374999999999996        0.0000000000000000     
   8.7499999999999994E-002  0.83750000000000002        0.0000000000000000     
   4.3749999999999997E-002  0.83125000000000004        0.0000000000000000     
  0.18750000000000000       0.75000000000000000        0.0000000000000000     
  0.25000000000000000       0.75000000000000000        0.0000000000000000     
  0.25000000000000000       0.81250000000000000        0.0000000000000000     
  0.16250000000000001       0.78749999999999998        0.0000000000000000     
  0.20624999999999999       0.79374999999999996        0.0000000000000000     
  0.21249999999999999       0.83750000000000002        0.0000000000000000     
  0.16875000000000001       0.83125000000000004        0.0000000000000000     
  0.31250000000000000       0.87500000000000000        0.0000000000000000     
  0.37500000000000000       0.87500000000000000        0.0000000000000000     
  0.37500000000000000       0.93750000000000000        0.0000000000000000     
  0.28749999999999998       0.91249999999999998        0.0000000000000000     
  0.33124999999999999       0.91874999999999996        0.0000000000000000     
  0.33750000000000002       0.96250000000000002        0.0000000000000000     
  0.29375000000000001       0.95625000000000004        0.0000000000000000     
  0.43750000000000000       0.87500000000000000        0.0000000000000000     
  0.50000000000000000       0.87500000000000000        0.0000000000000000     
  0.50000000000000000       0.93750000000000000        0.0000000000000000     
  0.41249999999999998       0.91249999999999998        0.0000000000000000     
  0.45624999999999999       0.91874999999999996        0.0000000000000000     
  0.46250000000000002       0.96250000000000002        0.0000000000000000     
  0.41875000000000001       0.95625000000000004        0.0000000000000000     
  0.31250000000000000       0.75000000000000000        0.0000000000000000     
  0.37500000000000000       0.75000000000000000        0.0000000000000000     
  0.37500000000000000       0.81250000000000000        0.0000000000000000     
  0.28749999999999998       0.78749999999999998        0.0000000000000000     
  0.33124999999999999       0.79374999999999996        0.0000000000000000     
  0.33750000000000002       0.83750000000000002        0.0000000000000000     
  0.29375000000000001       0.83125000000000004        0.0000000000000000     
  0.43750000000000000       0.75000000000000000        0.0000000000000000     
  0.50000000000000000       0.75000000000000000        0.0000000000000000     
  0.50000000000000000       0.81250000000000000        0.0000000000000000     
  0.41249999999999998       0.78749999999999998        0.0000000000000000     
  0.45624999999999999       0.79374999999999996        0.0000000000000000     
  0.46250000000000002       0.83750000000000002        0.0000000000000000     
  0.41875000000000001       0.83125000000000004        0.0000000000000000     
   6.2500000000000000E-002  0.62500000000000000        0.0000000000000000     
  0.12500000000000000       0.62500000000000000        0.0000000000000000     
  0.12500000000000000       0.68750000000000000        0.0000000000000000     
   3.7499999999999999E-002  0.66249999999999998        0.0000000000000000     
   8.1250000000000003E-002  0.66874999999999996        0.0000000000000000     
   8.7499999999999994E-002  0.71250000000000002        0.0000000000000000     
   4.3749999999999997E-002  0.70625000000000004        0.0000000000000000     
  0.18750000000000000       0.62500000000000000        0.0000000000000000     
  0.25000000000000000       0.62500000000000000        0.0000000000000000     
  0.25000000000000000       0.68750000000000000        0.0000000000000000     
  0.16250000000000001       0.66249999999999998        0.0000000000000000     
  0.20624999999999999       0.66874999999999996        0.0000000000000000     
  0.21249999999999999       0.71250000000000002        0.0000000000000000     
  0.16875000000000001       0.70625000000000004        0.0000000000000000     
   6.2500000000000000E-002  0.50000000000000000        0.0000000000000000     
  0.12500000000000000       0.50000000000000000        0.0000000000000000     
  0.12500000000000000       0.56250000000000000        0.0000000000000000     
   3.7499999999999999E-002  0.53749999999999998        0.0000000000000000     
   8.1250000000000003E-002  0.54374999999999996        0.0000000000000000     
   8.7499999999999994E-002  0.58750000000000002        0.0000000000000000     
   4.3749999999999997E-002  0.58125000000000004        0.0000000000000000     
  0.18750000000000000       0.50000000000000000        0.0000000000000000     
  0.25000000000000000       0.50000000000000000        0.0000000000000000     
  0.25000000000000000       0.56250000000000000        0.0000000000000000     
  0.16250000000000001       0.53749999999999998        0.0000000000000000     
  0.20624999999999999       0.54374999999999996        0.0000000000000000     
  0.21249999999999999       0.58750000000000002        0.0000000000000000     
  0.16875000000000001       0.58125000000000004        0.0000000000000000     
  0.31250000000000000       0.62500000000000000        0.0000000000000000     
  0.37500000000000000       0.62500000000000000        0.0000000000000000     
  0.37500000000000000       0.68750000000000000        0.0000000000000000     
  0.28749999999999998       0.66249999999999998        0.0000000000000000     
  0.33124999999999999       0.66874999999999996        0.0000000000000000     
  0.33750000000000002       0.71250000000000002        0.0000000000000000     
  0.29375000000000001       0.70625000000000004        0.0000000000000000     
  0.43750000000000000       0.62500000000000000        0.0000000000000000     
  0.50000000000000000       0.62500000000000000        0.0000000000000000     
  0.50000000000000000       0.68750000000000000        0.0000000000000000     
  0.41249999999999998       0.66249999999999998        0.0000000000000000     
  0.45624999999999999       0.66874999999999996        0.0000000000000000     
  0.46250000000000002       0.71250000000000002        0.0000000000000000     
  0.41875000000000001       0.70625000000000004        0.0000000000000000     
  0.31250000000000000       0.50000000000000000        0.0000000000000000     
  0.37500000000000000       0.50000000000000000        0.0000000000000000     
  0.37500000000000000       0.56250000000000000        0.0000000000000000     
  0.28749999999999998       0.53749999999999998        0.0000000000000000     
  0.33124999999999999       0.54374999999999996        0.0000000000000000     
  0.33750000000000002       0.58750000000000002        0.0000000000000000     
  0.29375000000000001       0.58125000000000004        0.0000000000000000     
  0.43750000000000000       0.50000000000000000        0.0000000000000000     
  0.50000000000000000       0.50000000000000000        0.0000000000000000     
  0.50000000000000000       0.56250000000000000        0.0000000000000000     
  0.41249999999999998       0.53749999999999998        0.0000000000000000     
  0.45624999999999999       0.54374999999999996        0.0000000000000000     
  0.46250000000000002       0.58750000000000002        0.0000000000000000     
  0.41875000000000001       0.58125000000000004        0.0000000000000000     
  0.56250000000000000       0.87500000000000000        0.0000000000000000     
  0.62500000000000000       0.87500000000000000        0.0000000000000000     
  0.62500000000000000       0.93750000000000000        0.0000000000000000     
  0.53749999999999998       0.91249999999999998        0.0000000000000000     
  0.58125000000000004       0.91874999999999996        0.0000000000000000     
  0.58750000000000002       0.96250000000000002        0.0000000000000000     
  0.54374999999999996       0.95625000000000004        0.0000000000000000     
  0.68750000000000000       0.87500000000000000        0.0000000000000000     
  0.75000000000000000       0.87500000000000000        0.0000000000000000     
  0.75000000000000000       0.93750000000000000        0.0000000000000000     
  0.66249999999999998       0.91249999999999998        0.0000000000000000     
  0.70625000000000004       0.91874999999999996        0.0000000000000000     
  0.71250000000000002       0.96250000000000002        0.0000000000000000     
[...]
 CELL_DATA         896
 SCALARS VEGF float
 LOOKUP_TABLE default
    0.20035083530861098785E-05
    0.23123548041330790794E-05
    0.31174572239604711489E-05
    0.36053320663100611565E-05
    0.29174823927014852553E-05
    0.34038655239834616967E-05
    0.25801230451025538054E-05
    0.21399333595672579984E-05
    0.17758334679289755141E-05
    0.16959399452646981039E-05
    0.18255238735534507169E-05
    0.17594155635053742270E-05
    0.21363814746376611429E-05
    0.22674369032619011270E-05
    0.68954101980839909588E-05
    0.95024895830437408682E-05
    0.15215531961747278354E-04
    0.17707700890615933072E-04
    0.13201506362635577672E-04
    0.15552848613104316804E-04
    0.10974505095316165293E-04
    0.78168960053951326946E-05
    0.50496437969020917342E-05
    0.41562766987687572407E-05
    0.53022721234400673154E-05
    0.45598536529859389036E-05
    0.78791607165708266169E-05
    0.87764816028374984517E-05
    0.28240996394350274964E-05
    0.35158030952046907794E-05
    0.54408704602891396360E-05
    0.65031786701698544276E-05
    0.45753163176181162094E-05
    0.50756128063288531566E-05
    0.33666015317124074682E-05
    0.27124459210727619228E-05
    0.20855526402429092814E-05
    0.19868961739032314376E-05
    0.23281877329419031484E-05
    0.23146207689347713625E-05
    0.29553912243119660884E-05
    0.31584950204016169203E-05
    0.15241903701410362373E-04
    0.21551476649940966925E-04
    0.37387856523316600468E-04
    0.41751588704781545313E-04
    0.27363738183742175743E-04
    0.28188918285773506838E-04
    0.17220745934153679842E-04
    0.13195026303083795378E-04
    0.75909492133739143690E-05
    0.64923785477986920182E-05
    0.98891842316090431428E-05
    0.88377467235388919699E-05
    0.15884051683721212402E-04
    0.17201235409999989060E-04
    0.36351707846143087050E-04
    0.48709545286889112110E-04
    0.77179236327740147324E-04
    0.88196330974112734460E-04
    0.65726724386068084227E-04
    0.76113765452725856480E-04
    0.54511028635422612855E-04
    0.38689762477292494311E-04
    0.24604731461328502003E-04
    0.19570855861150980207E-04
    0.26284168006713759980E-04
    0.22853587909062290066E-04
    0.39645680868856809616E-04
    0.43887355848720893713E-04
    0.16587841941397382011E-03
    0.19585383334614218432E-03
    0.26719353085498403653E-03
    0.26980283384955914671E-03
    0.21933377742648041907E-03
    0.22506180450073716556E-03
    0.18797163886538026888E-03
    0.15407868304027406460E-03
    0.11100547664674586146E-03
    0.93986950522288487293E-04
    0.12128868938087017360E-03
    0.11101637446557116346E-03
    0.16589553184111124071E-03
    0.17433292554508645136E-03
    0.96122935663143439420E-04
    0.12186495300263280644E-03
    0.20051098115722414128E-03
    0.21420200880914203479E-03
    0.14163865431912798804E-03
    0.14262486759170824187E-03
    0.88295151471198452431E-04
    0.70412239683611787242E-04
    0.40957985677681403591E-04
    0.36330109863603795976E-04
    0.57709792078804170103E-04
    0.55724077911249152043E-04
    0.88527408841475459765E-04
    0.93210311542481181515E-04
    0.44749355768656520153E-03
    0.48427914852199348055E-03
    0.68060052587734867508E-03
    0.62608135291839493199E-03
    0.45657438008585223303E-03
    0.40228856732181419564E-03
    0.29947339156604133427E-03
    0.27734526072197528135E-03
    0.18639409254776620820E-03
    0.17578808926619474205E-03
    0.26414329876012107535E-03
    0.27340714030759625001E-03
    0.36234333574945877662E-03
    0.36074080793776412777E-03
    0.42685823571074041398E-05
    0.60029516964082089614E-05
    0.10200393982144758962E-04
    0.13362232528258943042E-04
    0.89999587381280055765E-05
    0.10583063957526781608E-04
    0.61438191131738972720E-05
    0.45288711690562598027E-05
    0.30228201684839175319E-05
    0.28520008023703809510E-05
    0.35191216890036635379E-05
    0.33985511780775836522E-05
    0.49257454350615173324E-05
    0.54906716121915325149E-05
    0.34237372671683000635E-04
    0.53957855517447437534E-04
    0.96735450419501434736E-04
    0.11641908650557658490E-03
    0.75220083520173390557E-04
    0.78742408055987734693E-04
    0.44598154661691950459E-04
    0.33402812030245002995E-04
    0.17404191285858736186E-04
    0.14393724916222533450E-04
    0.23370649566331615866E-04
    0.19293902582284156989E-04
    0.40258379723707311533E-04
    0.44760539509197826602E-04
    0.51946611147417194091E-05
    0.80775324946590277208E-05
    0.13825666586327921346E-04
    0.20092489684354145074E-04
    0.14643116847979781913E-04
    0.19825095707000983328E-04
    0.11191746212050850202E-04
    0.73321632942965927321E-05
    0.44959979489676161273E-05
    0.40324762848225925341E-05
    0.48250892789398330739E-05
    0.42917213064458755210E-05
    0.71317443910896580485E-05
    0.84102539735926896844E-05
    0.48815490367335624005E-04
    0.87443554420347369268E-04
    0.15198524063465013449E-03
    0.21376239693551748588E-03
    0.15357365845067248700E-03
    0.19268677494283279568E-03
    0.11028879687887752623E-03
    0.73735979483211956773E-04
    0.37456331094728906078E-04
    0.28104934138668948512E-04
    0.42122593888010906782E-04
    0.29715334204219466980E-04
    0.74845546132414498414E-04
    0.88896131718142127991E-04
    0.28068514828145035107E-03
    0.38724286196955811160E-03
    0.67587075755387582277E-03
    0.72662502899176271542E-03
    0.44888723641648391053E-03
    0.41957424331763972306E-03
    0.24322927184762725239E-03
    0.20282514958007351693E-03
    0.11323614292506229979E-03
    0.10266480174363302254E-03
    0.17029441360265649757E-03
    0.15976787286066883829E-03
    0.27168018141725659795E-03
    0.28521732239656261577E-03
    0.16749044641746397601E-02
    0.18316270845721651945E-02
    0.25012727224633011201E-02
    0.22193787104939624241E-02
    0.15207745807484266895E-02
    0.11534494104503442528E-02
    0.81765753580495656363E-03
    0.83848080283871386648E-03
    0.53399186876249493065E-03
    0.52576438361900783292E-03
    0.88702479387427462382E-03
    0.95431481813943266380E-03
    0.12629933575999141050E-02
    0.12063161637753312162E-02
    0.49187094561597304899E-03
    0.85810222040700494858E-03
    0.14980368306136792982E-02
    0.19208620683260498561E-02
    0.13855469360184223624E-02
    0.15093134951708420208E-02
    0.83246771005815423886E-03
    0.61419478088150613986E-03
    0.32197919745812067028E-03
    0.26277050175485810058E-03
    0.40566321531005695598E-03
    0.30549088966521514583E-03
    0.69861900959291114207E-03
    0.80668921268659433011E-03
    0.28986283541066050311E-02
    0.30813814631529190188E-02
    0.31903044007055452770E-02
    0.32175984568437025236E-02
    0.32033370676025321906E-02
    0.32192320155560593016E-02
    0.28157392700265421875E-02
    0.26813742513671096762E-02
    0.19543299941621396394E-02
    0.18725738952050418121E-02
    0.25049437990521624710E-02
    0.23522189276153657005E-02
    0.29901269944292378083E-02
    0.30285900932093537050E-02
    0.36532458401381456359E-03
    0.35036198932627014629E-03
    0.38399780867514688235E-03
    0.35472329216409016067E-03
    0.31713550423427604250E-03
    0.29564720979188884118E-03
    0.28449816946015131416E-03
    0.28060013299581530559E-03
    0.25534694683191158518E-03
    0.24574296973113606869E-03
    0.28260546372722026090E-03
    0.29492087817416018283E-03
    0.31211261194715215431E-03
    0.30691341742645307034E-03
    0.38215730952132739894E-03
    0.33863068414671191339E-03
    0.33402434786830039436E-03
    0.30079458748689561843E-03
    0.28383463239659375730E-03
    0.25618099998780176916E-03
    0.26224577961941246493E-03
    0.28076407791329503500E-03
    0.28563448115972555740E-03
    0.29522889455271063329E-03
    0.31644914780023201961E-03
    0.35202604113443490899E-03
    0.31277366457961293476E-03
    0.29948013178325181768E-03
    0.86535412326619828328E-03
    0.74199068421803942002E-03
    0.79088663518665943113E-03
    0.68188418312690611458E-03
    0.57244731999674190303E-03
    0.47436795850459118843E-03
    0.42077184587050830804E-03
    0.46352891623609513002E-03
    0.40528261847778366276E-03
    0.43252713597906854159E-03
    0.56201474750727320549E-03
    0.66789068894940867554E-03
    0.60381102924633278228E-03
    0.56460232176725919876E-03
    0.70720926305788058431E-03
    0.58793958091893740777E-03
    0.56316883919763050751E-03
    0.48925572039430569558E-03
    0.44596923378377006496E-03
    0.37100599472004688103E-03
    0.35834434694697399511E-03
    0.41723557706928993518E-03
    0.41519482919351113166E-03
    0.46562458846779476978E-03
    0.53949194439213568955E-03
    0.65604479163550166732E-03
    0.51749131422528936615E-03
    0.47873470522364323671E-03
    0.29194095440731384098E-03
    0.25371442741095053507E-03
    0.24034913390590405052E-03
    0.21734908254015920543E-03
    0.21028199687649225778E-03
    0.18971361854520400682E-03
    0.19713142429509907579E-03
    0.21723896038578231673E-03
    0.23099576783542252918E-03
    0.24616514267124863392E-03
    0.25429712246395261548E-03
    0.28731988512489006716E-03
    0.24091873703220286016E-03
    0.22910609838442305675E-03
    0.20792522730918934666E-03
    0.18728842807929764968E-03
    0.18357172828232325005E-03
    0.17228361050837279569E-03
    0.16481894883019259030E-03
    0.15439117517247063788E-03
    0.15424727755717875378E-03
    0.16434157748329108984E-03
    0.17094823362708214793E-03
    0.18163543953216479258E-03
    0.18636276468430269739E-03
    0.20695742967229315131E-03
    0.18031604270730530238E-03
    0.17380353645277341404E-03
    0.46092058688873923820E-03
    0.38658756585394397302E-03
    0.35996714870612986619E-03
    0.31836275981064770689E-03
    0.30015975484938502192E-03
    0.25539611589245461492E-03
    0.25393606049471244583E-03
    0.29747170567294238790E-03
    0.31158489422728944231E-03
    0.35214691365487513089E-03
    0.38327099607454257141E-03
    0.45858941055318435450E-03
    0.35537804955333387362E-03
    0.33008392892368938407E-03
    0.30006176850693312523E-03
    0.26494487390167691067E-03
    0.25945530426874595636E-03
    0.24158814368958363345E-03
    0.22419484834405368524E-03
    0.20164571459260223875E-03
    0.19255422820472844299E-03
    0.21387364130476615802E-03
    0.21924924317892540240E-03
    0.24269617764744914152E-03
    0.25928914476603651031E-03
    0.29983987001636021102E-03
    0.24782807785123046667E-03
    0.23518774708832822294E-03
    0.26089599193136084158E-02
    0.19915950287273274585E-02
    0.17746736547773591178E-02
    0.14398956001886165351E-02
    0.12693467722040836353E-02
    0.97809802077821481406E-03
    0.89524918835875294532E-03
    0.11008448613501978924E-02
    0.10110683561096727324E-02
    0.11892963704561055217E-02
    0.16377254649860490451E-02
    0.22268228767776264594E-02
    0.15797700479125633289E-02
    0.13935309584387916854E-02
    0.12379146148770649605E-02
    0.99735927991710768455E-03
    0.88367016411606191459E-03
    0.76842653302281686140E-03
    0.73842297194983861838E-03
    0.60958064186167326953E-03
    0.60877952651947682839E-03
    0.74188661201111158038E-03
    0.78043536909982752937E-03
    0.91710346619682707806E-03
    0.10257967613374527598E-02
    0.12967076277692660656E-02
    0.91301411146079249678E-03
    0.83358262843136513541E-03
    0.30724904218314944178E-02
    0.26940887193132655002E-02
    0.21934391308998037358E-02
    0.19583373127382086923E-02
    0.21488249708781709604E-02
    0.17622208913728859819E-02
    0.19410028245422064792E-02
    0.25668893847705276552E-02
    0.28903261316733266754E-02
    0.32178491188857966630E-02
    0.31764468669867587311E-02
    0.32029356122620917906E-02
    0.28036646834963905445E-02
    0.26289924307287249571E-02
    0.14939183844772060440E-02
    0.12533768831073735257E-02
    0.10525979407785528846E-02
    0.94749623987782792458E-03
    0.99202552326534913091E-03
    0.85721895020356695706E-03
    0.92473473291298537418E-03
    0.11343341684125964487E-02
    0.13143727464655066608E-02
    0.15508570915318455746E-02
    0.14923583597002368795E-02
    0.17373723738774060794E-02
    0.12570112515803365770E-02
    0.11665061092567734300E-02
    0.66646213978687623720E-03
    0.56042342110979893877E-03
    0.50220066352299453337E-03
    0.44884998478764262563E-03
    0.43918222250399833713E-03
    0.37561651990239820851E-03
    0.38151649749221624346E-03
    0.45596985929223217502E-03
    0.49330731984796648368E-03
    0.56610190633230050329E-03
    0.59370884948268328081E-03
    0.70503667124313608352E-03
    0.53196976528998576265E-03
    0.49394230528057613602E-03
    0.40303455103230401840E-03
    0.35984258721436559450E-03
    0.34563457568764907255E-03
    0.32780621334153398549E-03
    0.31152731139721853140E-03
    0.28458990972943302945E-03
    0.27288311000725023981E-03
    0.30422010521673279859E-03
    0.31683111062122854299E-03
    0.35285502367571694058E-03
    0.36720638980027215954E-03
    0.41881838805015456431E-03
    0.34447266119647297102E-03
    0.32812973686643454388E-03
    0.76650555019199331785E-03
    0.66362468420090180068E-03
    0.57513913364636828820E-03
    0.52850705492399157031E-03
    0.54809104428494605232E-03
    0.48772665555396529100E-03
    0.51928746254677714267E-03
    0.61299759713317135933E-03
    0.69271808260992556380E-03
    0.78206895259463860785E-03
    0.76241417234903282717E-03
    0.86213302961139607911E-03
    0.66675427318054511332E-03
    0.62786169023821354791E-03
    0.45194815388183119057E-03
    0.41460638024676916506E-03
    0.38915434481306883938E-03
    0.37956592655765276217E-03
    0.37785779214585677377E-03
    0.35972826830398251527E-03
    0.35586505196166101639E-03
    0.38884113692632039276E-03
    0.41579984717424612727E-03
    0.45467892460390984654E-03
    0.44886706397252891781E-03
    0.49129398948296156349E-03
    0.41513402216357474066E-03
    0.40091576259324132776E-03
    0.43853703711594943610E-05
    0.69734832705550919271E-05
    0.11142652454356781881E-04
    0.17192917428324435081E-04
    0.14623716346193613161E-04
    0.22786097156372650129E-04
    0.13900184341719590245E-04
    0.83341427695010047359E-05
    0.51754280770117531391E-05
    0.43722288984708408883E-05
    0.47613660477166305633E-05
    0.39091080388953469842E-05
    0.69412283617506926854E-05
    0.85226690383897345439E-05
    0.35840325070132672699E-04
    0.69227647670847000465E-04
    0.11007718819262443091E-03
    0.16821574747997899675E-03
    0.15317563466282844552E-03
    0.23878609290949021461E-03
    0.15249780043469717515E-03
    0.90207062638635312026E-04
    0.48433353300105752809E-04
    0.32670703894687576840E-04
    0.41132053983585551403E-04
    0.25030420428285290942E-04
    0.71598728475875136976E-04
    0.90714998525961187720E-04
    0.29233416614292782701E-05
    0.42970490794166211506E-05
    0.61416207693085758467E-05
    0.92572477190775027251E-05
    0.89545334732051227582E-05
    0.14699395382833032136E-04
    0.10268059064921630024E-04
    0.60777520749819628247E-05
    0.41408683945261386895E-05
    0.34133899552213393342E-05
    0.34182817090595701193E-05
    0.27628015243215901002E-05
    0.46283883128248207519E-05
    0.56593313407403516267E-05
    0.16325182338738926217E-04
    0.30980887121848357173E-04
    0.44890155412630951162E-04
    0.69044434829460834234E-04
    0.74210857121214304625E-04
    0.12432846649799333049E-03
    0.97443888530474994324E-04
    0.54222657831755462037E-04
    0.32311789964060653459E-04
    0.20619712047845585676E-04
    0.22097288253564611641E-04
    0.12823480221609144015E-04
    0.36108267674376960785E-04
    0.46916972779846065149E-04
    0.29977844306763526275E-03
    0.56737322909268604176E-03
    0.83173758188210080745E-03
    0.13196921468833649766E-02
    0.13766880273068601587E-02
    0.20770628644586029699E-02
    0.14983444833220874084E-02
    0.87633604026014463081E-03
    0.48685956390043672991E-03
    0.33254772599005646885E-03
    0.38980949649115913345E-03
    0.23378842893469352804E-03
    0.64732879588112800327E-03
    0.83618701932093109433E-03
    0.18103955041676403782E-02
    0.26928795849315047273E-02
    0.29320332621779231566E-02
    0.32201396320284641876E-02
    0.32013795298324824318E-02
    0.32070974478014134708E-02
    0.31863372505111305262E-02
    0.30869078829342112662E-02
    0.29003328704924353360E-02
    0.25051317130351034683E-02
    0.24794908909895811526E-02
    0.16940151698563105445E-02
    0.29118433958606011400E-02
    0.30783777151718325418E-02
    0.10396633705777351072E-03
    0.18720545722922151939E-03
    0.24482037656355315697E-03
    0.37130646908589817539E-03
    0.43967226999825736837E-03
    0.75363032444720665613E-03
    0.68494292257886705069E-03
    0.38324586186427498334E-03
    0.25816645651965502680E-03
    0.16675714041367172718E-03
    0.15848238821538723721E-03
    0.91412890536435553431E-04
    0.23501979631398393087E-03
    0.30334578587508441265E-03
    0.49029531967111051292E-03
    0.79648201563505222154E-03
    0.84501552619360720004E-03
    0.11050375910525648670E-02
    0.15039805098992680213E-02
    0.21772886390438645800E-02
    0.26001594944522264490E-02
    0.18151673146118308538E-02
    0.15084237998283433688E-02
    0.97225053979926054446E-03
    0.82340913235311240063E-03
    0.47091109528814897173E-03
    0.10755538691558214591E-02
    0.13302995332375607256E-02
    0.20445027851562647819E-05
    0.26207225885989441394E-05
    0.33820254413483268837E-05
    0.45988995831055657127E-05
    0.45669873983353673287E-05
    0.70085748076085007381E-05
    0.54993754002062338255E-05
    0.35382525199114861139E-05
    0.27297271850521371329E-05
    0.23141081797845915038E-05
    0.22764907523396395124E-05
    0.19462855938530532813E-05
    0.28034876712199157874E-05
    0.32551210192165720156E-05
    0.72865166304698466407E-05
    0.12522834898662403425E-04
    0.17517749893436465537E-04
    0.25816571193791489059E-04
    0.27488844126863120124E-04
    0.44663022801868922801E-04
    0.38252129695096485419E-04
    0.21740393628269690641E-04
    0.14211858748885600163E-04
    0.93256970631071237949E-05
    0.94692930068719953827E-05
    0.59553496115614981858E-05
    0.14422018321572857715E-04
    0.18325214034929941578E-04
    0.17453626751281707711E-05
    0.20934709694929265745E-05
    0.25740880917849337326E-05
    0.31589752867428780513E-05
    0.29139417498891867038E-05
    0.38421216379367232065E-05
    0.31480225036466048035E-05
    0.23328232937289316014E-05
    0.19686507360117423242E-05
    0.17631516898674052489E-05
    0.18079673555393500785E-05
    0.16691254550058256230E-05
    0.20990537370641811116E-05
    0.22850734214421041700E-05
    0.49971977548222753311E-05
    0.74702839180816613601E-05
    0.10789635210212542200E-04
    0.14094134742000146015E-04
    0.12888441425149923085E-04
    0.18178921166139489006E-04
    0.15393482268891024164E-04
    0.96035565228538417014E-05
    0.65927350900923863291E-05
    0.47926631928788553081E-05
    0.51870353525667929159E-05
    0.38917933038728984822E-05
    0.74876977051348501268E-05
    0.88982398713956618934E-05
    0.38796067610667640151E-04
    0.66630102970255224225E-04
    0.89514888308352301622E-04
    0.12955236439033868579E-03
    0.14087227444763364827E-03
    0.22512525383171065217E-03
    0.20492339713625552463E-03
    0.12144219646109785833E-03
    0.87823779426068638307E-04
    0.58137853997441301833E-04
    0.54914595657024026947E-04
    0.33313800578024999792E-04
    0.79002474630153566313E-04
    0.99209937706251830991E-04
    0.17732534681662152388E-03
    0.26818379426005829400E-03
    0.30775838977367041488E-03
    0.38642054930944954704E-03
    0.45603895768205065945E-03
    0.63089007536914337975E-03
    0.70828972968670544843E-03
    0.48280361533653706014E-03
    0.40937422702082564181E-03
    0.28340457533420981102E-03
    0.25340711716995378789E-03
    0.16203321831183032254E-03
    0.32587212414905496844E-03