# vtk DataFile Version 3.0
LAPLACIEN  2D
ASCII
DATASET UNSTRUCTURED_GRID
 POINTS         481  float
   6.2500000000000000E-002  0.87500000000000000        0.0000000000000000     
  0.12500000000000000       0.87500000000000000        0.0000000000000000     
  0.12500000000000000       0.93750000000000000        0.0000000000000000     
   3.7499999999999999E-002  0.91249999999999998        0.0000000000000000     
   8.1250000000000003E-002  0.91874999999999996        0.0000000000000000     
   8.7499999999999994E-002  0.96250000000000002        0.0000000000000000     
   4.3749999999999997E-002  0.95625000000000004        0.0000000000000000     
  0.18750000000000000       0.87500000000000000        0.0000000000000000     
  0.25000000000000000       0.87500000000000000        0.0000000000000000     
  0.25000000000000000       0.93750000000000000        0.0000000000000000     
  0.16250000000000001       0.91249999999999998        0.0000000000000000     
  0.20624999999999999       0.91874999999999996        0.0000000000000000     
  0.21249999999999999       0.96250000000000002        0.0000000000000000     
  0.16875000000000001       0.95625000000000004        0.0000000000000000     
   6.2500000000000000E-002  0.75000000000000000        0.0000000000000000     
  0.12500000000000000       0.75000000000000000        0.0000000000000000     
  0.12500000000000000       0.81250000000000000        0.0000000000000000     
   3.7499999999999999E-002  0.78749999999999998        0.0000000000000000     
   8.1250000000000003E-002  0.79374999999999996        0.0000000000000000     
   8.7499999999999994E-002  0.83750000000000002        0.0000000000000000     
   4.3749999999999997E-002  0.83125000000000004        0.0000000000000000     
  0.18750000000000000       0.75000000000000000        0.0000000000000000     
  0.25000000000000000       0.75000000000000000        0.0000000000000000     
  0.25000000000000000       0.81250000000000000        0.0000000000000000     
  0.16250000000000001       0.78749999999999998        0.0000000000000000     
  0.20624999999999999       0.79374999999999996        0.0000000000000000     
  0.21249999999999999       0.83750000000000002        0.0000000000000000     
  0.16875000000000001       0.83125000000000004        0.0000000000000000     
  0.31250000000000000       0.87500000000000000        0.0000000000000000     
  0.37500000000000000       0.87500000000000000        0.0000000000000000     
  0.37500000000000000       0.93750000000000000        0.0000000000000000     
  0.28749999999999998       0.91249999999999998        0.0000000000000000     
  0.33124999999999999       0.91874999999999996        0.0000000000000000     
  0.33750000000000002       0.96250000000000002        0.0000000000000000     
  0.29375000000000001       0.95625000000000004        0.0000000000000000     
  0.43750000000000000       0.87500000000000000        0.0000000000000000     
  0.50000000000000000       0.87500000000000000        0.0000000000000000     
  0.50000000000000000       0.93750000000000000        0.0000000000000000     
  0.41249999999999998       0.91249999999999998        0.0000000000000000     
  0.45624999999999999       0.91874999999999996        0.0000000000000000     
  0.46250000000000002       0.96250000000000002        0.0000000000000000     
  0.41875000000000001       0.95625000000000004        0.0000000000000000     
  0.31250000000000000       0.75000000000000000        0.0000000000000000     
  0.37500000000000000       0.75000000000000000        0.0000000000000000     
  0.37500000000000000       0.81250000000000000        0.0000000000000000     
  0.28749999999999998       0.78749999999999998        0.0000000000000000     
  0.33124999999999999       0.79374999999999996        0.0000000000000000     
  0.33750000000000002       0.83750000000000002        0.0000000000000000     
  0.29375000000000001       0.83125000000000004        0.0000000000000000     
  0.43750000000000000       0.75000000000000000        0.0000000000000000     
  0.50000000000000000       0.75000000000000000        0.0000000000000000     
  0.50000000000000000       0.81250000000000000        0.0000000000000000     
  0.41249999999999998       0.78749999999999998        0.0000000000000000     
  0.45624999999999999       0.79374999999999996        0.0000000000000000     
  0.46250000000000002       0.83750000000000002        0.0000000000000000     
  0.41875000000000001       0.83125000000000004        0.0000000000000000     
   6.2500000000000000E-002  0.62500000000000000        0.0000000000000000     
  0.12500000000000000       0.62500000000000000        0.0000000000000000     
  0.12500000000000000       0.68750000000000000        0.0000000000000000     
   3.7499999999999999E-002  0.66249999999999998        0.0000000000000000     
   8.1250000000000003E-002  0.66874999999999996        0.0000000000000000     
   8.7499999999999994E-002  0.71250000000000002        0.0000000000000000     
   4.3749999999999997E-002  0.70625000000000004        0.0000000000000000     
  0.18750000000000000       0.62500000000000000        0.0000000000000000     
  0.25000000000000000       0.62500000000000000        0.0000000000000000     
  0.25000000000000000       0.68750000000000000        0.0000000000000000     
  0.16250000000000001       0.66249999999999998        0.0000000000000000     
  0.20624999999999999       0.66874999999999996        0.0000000000000000     
  0.21249999999999999       0.71250000000000002        0.0000000000000000     
  0.16875000000000001       0.70625000000000004        0.0000000000000000     
   6.2500000000000000E-002  0.50000000000000000        0.0000000000000000     
  0.12500000000000000       0.50000000000000000        0.0000000000000000     
  0.12500000000000000       0.56250000000000000        0.0000000000000000     
   3.7499999999999999E-002  0.53749999999999998        0.0000000000000000     
   8.1250000000000003E-002  0.54374999999999996        0.0000000000000000     
   8.7499999999999994E-002  0.58750000000000002        0.0000000000000000     
   4.3749999999999997E-002  0.58125000000000004        0.0000000000000000     
  0.18750000000000000       0.50000000000000000        0.0000000000000000     
  0.25000000000000000       0.50000000000000000        0.0000000000000000     
  0.25000000000000000       0.56250000000000000        0.0000000000000000     
  0.16250000000000001       0.53749999999999998        0.0000000000000000     
  0.20624999999999999       0.54374999999999996        0.0000000000000000     
  0.21249999999999999       0.58750000000000002        0.0000000000000000     
  0.16875000000000001       0.58125000000000004        0.0000000000000000     
  0.31250000000000000       0.62500000000000000        0.0000000000000000     
  0.37500000000000000       0.62500000000000000        0.0000000000000000     
  0.37500000000000000       0.68750000000000000        0.0000000000000000     
  0.28749999999999998       0.66249999999999998        0.0000000000000000     
  0.33124999999999999       0.66874999999999996        0.0000000000000000     
  0.33750000000000002       0.71250000000000002        0.0000000000000000     
  0.29375000000000001       0.70625000000000004        0.0000000000000000     
  0.43750000000000000       0.62500000000000000        0.0000000000000000     
  0.50000000000000000       0.62500000000000000        0.0000000000000000     
  0.50000000000000000       0.68750000000000000        0.0000000000000000     
  0.41249999999999998       0.66249999999999998        0.0000000000000000     
  0.45624999999999999       0.66874999999999996        0.0000000000000000     
  0.46250000000000002       0.71250000000000002        0.0000000000000000     
  0.41875000000000001       0.70625000000000004        0.0000000000000000     
  0.31250000000000000       0.50000000000000000        0.0000000000000000     
  0.37500000000000000       0.50000000000000000        0.0000000000000000     
  0.37500000000000000       0.56250000000000000        0.0000000000000000     
  0.28749999999999998       0.53749999999999998        0.0000000000000000     
  0.33124999999999999       0.54374999999999996        0.0000000000000000     
  0.33750000000000002       0.58750000000000002        0.0000000000000000     
  0.29375000000000001       0.58125000000000004        0.0000000000000000     
  0.43750000000000000       0.50000000000000000        0.0000000000000000     
  0.50000000000000000       0.50000000000000000        0.0000000000000000     
  0.50000000000000000       0.56250000000000000        0.0000000000000000     
  0.41249999999999998       0.53749999999999998        0.0000000000000000     
  0.45624999999999999       0.54374999999999996        0.0000000000000000     
  0.46250000000000002       0.58750000000000002        0.0000000000000000     
  0.41875000000000001       0.58125000000000004        0.0000000000000000     
  0.56250000000000000       0.87500000000000000        0.0000000000000000     
  0.62500000000000000       0.87500000000000000        0.0000000000000000     
  0.62500000000000000       0.93750000000000000        0.0000000000000000     
  0.53749999999999998       0.91249999999999998        0.0000000000000000     
  0.58125000000000004       0.91874999999999996        0.0000000000000000     
  0.58750000000000002       0.96250000000000002        0.0000000000000000     
  0.54374999999999996       0.95625000000000004        0.0000000000000000     
  0.68750000000000000       0.87500000000000000        0.0000000000000000     
  0.75000000000000000       0.87500000000000000        0.0000000000000000     
  0.75000000000000000       0.93750000000000000        0.0000000000000000     
  0.66249999999999998       0.91249999999999998        0.0000000000000000     
  0.70625000000000004       0.91874999999999996        0.0000000000000000     
  0.71250000000000002       0.96250000000000002        0.0000000000000000     
[...]
 CELL_DATA         896
 SCALARS VEGF float
 LOOKUP_TABLE default
    0.16227462370283568140E-05
    0.17456420010033231870E-05
    0.21566112130147613945E-05
    0.22956326467926891525E-05
    0.19296978467265725235E-05
    0.20392651851783088258E-05
    0.17303356893967311217E-05
    0.16097908256005409521E-05
    0.14536187956308716600E-05
    0.14154372983856568733E-05
    0.14938229813281397490E-05
    0.14568295480428325546E-05
    0.16443907498906234730E-05
    0.16875399111946790650E-05
    0.38969411087076523547E-05
    0.46199370611522381729E-05
    0.71512223568604436205E-05
    0.72862996123104620190E-05
    0.46427401065162657759E-05
    0.36110697509590138741E-05
    0.31470358624869799601E-05
    0.29751877424243809928E-05
    0.23864833752245538141E-05
    0.22512781886098819508E-05
    0.27268862534204956314E-05
    0.26913904234370908785E-05
    0.35360455204604560671E-05
    0.35813261299579617998E-05
    0.23013712873672982916E-05
    0.27443446273165945764E-05
    0.41500840268251893987E-05
    0.47576224977501583847E-05
    0.32844785099569730904E-05
    0.33796290323649581985E-05
    0.23520996927812104863E-05
    0.20473028219816292733E-05
    0.16863267692200293735E-05
    0.16249329676900986487E-05
    0.18808497827799257171E-05
    0.18962549860999277962E-05
    0.22954615444125305933E-05
    0.23937023278718926473E-05
    0.11363149613608436442E-04
    0.15299993273986044288E-04
    0.27226988293167863448E-04
    0.28408200087349456324E-04
    0.16961547105138156396E-04
    0.14919039309265766738E-04
    0.87406532598340758611E-05
    0.75648018731964890857E-05
    0.44781518828428523157E-05
    0.41530010651745216459E-05
    0.65997058460326047603E-05
    0.63794188005398639398E-05
    0.10412009979795614972E-04
    0.10795332695493163250E-04
    0.16650968322488746034E-04
    0.22027532455314059598E-04
    0.38708176922381655005E-04
    0.42905220485513706973E-04
    0.28694058280888538111E-04
    0.32754162498839869445E-04
    0.21828837413736395400E-04
    0.14308984989777949150E-04
    0.76124466298699797149E-05
    0.53011708339498463680E-05
    0.92569983142022190312E-05
    0.90720799776886365485E-05
    0.15839301979882067705E-04
    0.17523609977326195256E-04
    0.91874726555799066802E-04
    0.10562448924630800742E-03
    0.14922344455784567244E-03
    0.14552217023313700141E-03
    0.11262475612429110662E-03
    0.11208707715241161536E-03
    0.90320274692059858944E-04
    0.74018875069593252202E-04
    0.50159156631722076820E-04
    0.42130906690270326768E-04
    0.59632263682729467439E-04
    0.56027199412504850612E-04
    0.86500435607870225052E-04
    0.89772120522902605394E-04
    0.73073942500209221936E-04
    0.89280227838213016773E-04
    0.15442467814019562020E-03
    0.15642234824552283309E-03
    0.94155217804817661225E-04
    0.86210318213208742954E-04
    0.47816591539332414318E-04
    0.39973354614632619164E-04
    0.20501737911619858425E-04
    0.19415333807530380460E-04
    0.36530657956449622318E-04
    0.38554285041265531019E-04
    0.58544740987928202522E-04
    0.59737925178875934452E-04
    0.35296761594148828075E-03
    0.35934073091597096197E-03
    0.51544602398312855049E-03
    0.44407467735926950837E-03
    0.30318887808967180013E-03
    0.24497160605115513932E-03
    0.17395734601153428622E-03
    0.17018113030614083936E-03
    0.10868349651545641083E-03
    0.10765739338235098864E-03
    0.17985746910881920935E-03
    0.20136091841213476432E-03
    0.25040865415445719751E-03
    0.24120387647277966329E-03
    0.36848366456120690906E-05
    0.51415544709647369048E-05
    0.88725629894222144496E-05
    0.11479472101465044244E-04
    0.74542269741297802118E-05
    0.84320212062546324663E-05
    0.48020823637316439975E-05
    0.36561065238206924197E-05
    0.24815450559416388428E-05
    0.23675510024503398130E-05
    0.29557071956777134740E-05
    0.28959318666707834542E-05
    0.41192951660618784383E-05
    0.45424845352297132592E-05
    0.30667008611429396204E-04
    0.47290029502745593176E-04
    0.85878060073390970696E-04
    0.10447016782227930157E-03
    0.63053458941695201797E-04
    0.63926367074763703366E-04
    0.34314379852731595726E-04
    0.26529950775152259199E-04
    0.13445224045548361840E-04
    0.11458943043959274194E-04
    0.19546957512357182184E-04
    0.16707064499642776628E-04
    0.33964797242592698176E-04
    0.37238627683835563373E-04
    0.46581824279821072021E-05
    0.73731162048220180431E-05
    0.12892691384814499589E-04
    0.18992602308718688366E-04
    0.13518024997333342131E-04
    0.18199887215659470114E-04
    0.99423187402045680737E-05
    0.65067876344206924000E-05
    0.39212210381973045887E-05
    0.35249087506256118596E-05
    0.42849422412314098940E-05
    0.38083916571153988687E-05
    0.64285929413062806246E-05
    0.76052663331490562054E-05
    0.47576224652314532489E-04
    0.86138160159362749200E-04
    0.15146494873881515583E-03
    0.21608047320693257341E-03
    0.15149929061909981069E-03
    0.18879836730570151025E-03
    0.10130519672137541581E-03
    0.69209953843303774089E-04
    0.34331900766521831082E-04
    0.26034053647293687922E-04
    0.40402727983853554928E-04
    0.28474046910911901011E-04
    0.72844186068852636380E-04
    0.86323929892699239165E-04
    0.27336064744947841457E-03
    0.37477340156157138698E-03
    0.67085099888110376939E-03
    0.70414053841040709619E-03
    0.41412092193101078053E-03
    0.36252319421562888844E-03
    0.19821079446273180864E-03
    0.17218234999087663850E-03
    0.90630683238370615749E-04
    0.84785104869478019338E-04
    0.15276292323013261447E-03
    0.14751266388879230866E-03
    0.25018083860899303222E-03
    0.25859005210803132557E-03
    0.15147747403008429614E-02
    0.16145476125172279411E-02
    0.20904165480608947331E-02
    0.19013641629710520235E-02
    0.13388079796021661125E-02
    0.95127855386337384705E-03
    0.65025743498260343573E-03
    0.71432507297773271873E-03
    0.44083316816809339561E-03
    0.45391623167283148138E-03
    0.82133092235218854802E-03
    0.91488912280608019386E-03
    0.11519378866940866574E-02
    0.10904922070413124603E-02
    0.51572914500755959785E-03
    0.90297031026506430120E-03
    0.14640119551360955205E-02
    0.17280336754427231497E-02
    0.13444485611998088868E-02
    0.14252651575750964127E-02
    0.83815101891794303694E-03
    0.63085529634681811444E-03
    0.32030328344715894556E-03
    0.26180970990021695290E-03
    0.41853866664784118799E-03
    0.31380366702305834614E-03
    0.73402441091673749016E-03
    0.83938016774519244156E-03
    0.22686190963420184950E-02
    0.23592950973549495913E-02
    0.24677377048534124108E-02
    0.25137026631433618748E-02
    0.24830147736753815403E-02
    0.25311563464484321262E-02
    0.22857280446918208823E-02
    0.21659055105281875206E-02
    0.17203047921288639951E-02
    0.16787636980798092360E-02
    0.20717764292598663672E-02
    0.19850320834705011998E-02
    0.23470813732853683213E-02
    0.23768181198967879703E-02
    0.20337045970353036847E-03
    0.18820852084409247606E-03
    0.20591254131033964085E-03
    0.18613675292263224897E-03
    0.16370613693498934282E-03
    0.14938211432657919650E-03
    0.14074905345591589927E-03
    0.14111225291494694728E-03
    0.12573517094309095564E-03
    0.12325484861573299191E-03
    0.14752443019811468613E-03
    0.15876817353192856789E-03
    0.16707680780819934461E-03
    0.16253155082008690887E-03
    0.20057198015712836780E-03
    0.17776351565594247783E-03
    0.17592606479866095318E-03
    0.16050531449363523106E-03
    0.15121102739350380595E-03
    0.13756013489989136491E-03
    0.13640342434374772332E-03
    0.14536860219797832685E-03
    0.14380892501891681364E-03
    0.14992571351889026491E-03
    0.16404941423163330256E-03
    0.18351720406227267938E-03
    0.16783668207446367877E-03
    0.16122989718535667169E-03
    0.62486261843723144710E-03
    0.49097714025023967040E-03
    0.50928723959285594931E-03
    0.41166430460923741832E-03
    0.33574457185590682838E-03
    0.26129463145109412675E-03
    0.22969658285207814291E-03
    0.26706594987497173392E-03
    0.23292229023567925729E-03
    0.26094008653608795258E-03
    0.36065977696567137019E-03
    0.46536815322206575261E-03
    0.38117904312255093072E-03
    0.34487415744847201710E-03
    0.41054393068026676962E-03
    0.32192474525058321260E-03
    0.29763226082364370147E-03
    0.25322655990135911315E-03
    0.23278413440628017224E-03
    0.19350287796319305070E-03
    0.18761463413013743464E-03
    0.22006626514053546635E-03
    0.22023725200786493299E-03
    0.25290619849230815521E-03
    0.29898412069163775046E-03
    0.38362088552854284405E-03
    0.28294245719792676403E-03
    0.25842909505222684714E-03
    0.15773633471883103025E-03
    0.14342917597980634143E-03
    0.13875574068194647631E-03
    0.12993904527097563861E-03
    0.12616454153956810553E-03
    0.11614288891679801241E-03
    0.11617335374630304327E-03
    0.12532211967539524868E-03
    0.12723337650648146183E-03
    0.13465139181059149437E-03
    0.14117083082074253098E-03
    0.15466660178770948045E-03
    0.14201544953623329907E-03
    0.13718267695197547558E-03
    0.12585956591843467495E-03
    0.11782579031716342878E-03
    0.11429990179391242373E-03
    0.10780362637503110507E-03
    0.10614161031348085039E-03
    0.98302733647336913779E-04
    0.98234350928293106349E-04
    0.10593983014670528694E-03
    0.10725732673910032787E-03
    0.11355815605100360720E-03
    0.11749284077411510337E-03
    0.12558267355868043386E-03
    0.11964086041228226098E-03
    0.11625725493017592248E-03
    0.23182624128754270683E-03
    0.19732112411455443937E-03
    0.18327592343736481958E-03
    0.16658065732793570185E-03
    0.16126196474350364411E-03
    0.14376721766579429133E-03
    0.14354522477561410540E-03
    0.16122174375095721811E-03
    0.16672556586450732428E-03
    0.18467730062006140366E-03
    0.19856900638773189861E-03
    0.23444189594349054066E-03
    0.18950903972723905392E-03
    0.17879542613531465545E-03
    0.15615996790563078695E-03
    0.14339412887752643806E-03
    0.13808794588545658384E-03
    0.13023140541963486891E-03
    0.12741086758627894328E-03
    0.11771602149913917531E-03
    0.11715141510675348567E-03
    0.12724761193263440314E-03
    0.13044592452151926613E-03
    0.13921351323422251974E-03
    0.14437060748431112048E-03
    0.15827862468840108280E-03
    0.14365977306551874640E-03
    0.13882923665918398470E-03
    0.21358436751366194697E-02
    0.16182937765705810926E-02
    0.14033203211513568115E-02
    0.10665986654966211171E-02
    0.92923025963791670845E-03
    0.64880216098362245535E-03
    0.59779386705089310617E-03
    0.81318180335301860819E-03
    0.76243752575700523850E-03
    0.96031053931198550461E-03
    0.13787469414486520306E-02
    0.18974763118246886200E-02
    0.12793266673070482781E-02
    0.10889828645353797579E-02
    0.82835315060514292870E-03
    0.60942165474362137208E-03
    0.49909675925190384073E-03
    0.41282546676308951592E-03
    0.40300639408729564380E-03
    0.31702923527352351281E-03
    0.32426559928899517833E-03
    0.42238427476910746401E-03
    0.46498865143784301425E-03
    0.58324569642849693335E-03
    0.66267732483015373991E-03
    0.91229630780667570443E-03
    0.55275720582870148823E-03
    0.48763580449507129815E-03
    0.25803121583387114701E-02
    0.22843292011686432488E-02
    0.18044023426725854919E-02
    0.15415905209610553453E-02
    0.17283634582306341143E-02
    0.13515308752337920010E-02
    0.15440257979966907301E-02
    0.20876436186125363337E-02
    0.23345051585688179722E-02
    0.25585923653683685305E-02
    0.25631683635001594433E-02
    0.25483964858934835158E-02
    0.23294287187771173936E-02
    0.21732706725817452220E-02
    0.10382730349287781161E-02
    0.80093005015732007378E-03
    0.61039370345775372656E-03
    0.52230123915932165878E-03
    0.56794198033039095062E-03
    0.46274088862519226076E-03
    0.52652030837100748800E-03
    0.70979281187892129344E-03
    0.89325407043813482687E-03
    0.11281048302533617199E-02
    0.10520865263432895194E-02
    0.13017252767155830604E-02
    0.81388447397900650412E-03
    0.73002867758927524056E-03
    0.33207540283560632458E-03
    0.27230748383536636410E-03
    0.23782263085279768157E-03
    0.21322284733513868511E-03
    0.21292697007354929460E-03
    0.18566886560404725990E-03
    0.19095074959902703514E-03
    0.22586976010276991209E-03
    0.24763363993752238526E-03
    0.28811983748790610240E-03
    0.29902772110628351304E-03
    0.36540274778766482049E-03
    0.26514924816372763706E-03
    0.24581734797102217614E-03
    0.18867977970075684030E-03
    0.17175114500392094194E-03
    0.16258504101781200667E-03
    0.15462494905849253593E-03
    0.15276136891771837853E-03
    0.14211602448166256647E-03
    0.14166714641305390584E-03
    0.15500259471873137850E-03
    0.16203350986870651215E-03
    0.17589149028573162386E-03
    0.17910441242723418114E-03
    0.19853808383793876370E-03
    0.17295958623805967875E-03
    0.16667294363129992255E-03
    0.38291591904125699911E-03
    0.31866963382335604469E-03
    0.26633610694957478553E-03
    0.24221948524131458377E-03
    0.25503910518967964818E-03
    0.22560034462017688616E-03
    0.24419570862855969652E-03
    0.29498155306308213464E-03
    0.34605324805412419941E-03
    0.40513507641999570077E-03
    0.38628232360139882302E-03
    0.45455319240837326099E-03
    0.32660668461945228502E-03
    0.30401547412155693808E-03
    0.20402807237623500213E-03
    0.18779166244389949056E-03
    0.17459314503187806826E-03
    0.16877817297670957798E-03
    0.17126925140089938222E-03
    0.16293336757944570231E-03
    0.16514203022217229769E-03
    0.17998237017231819858E-03
    0.19325523127993135563E-03
    0.20989117090611724781E-03
    0.20530234970870693263E-03
    0.22330407231363477781E-03
    0.19394545829990426661E-03
    0.18784479698158738697E-03
    0.37940454267942960878E-05
    0.61411057979111958164E-05
    0.98572285937019329228E-05
    0.15615187039544604181E-04
    0.13472679572131629553E-04
    0.21591201863276095191E-04
    0.12959722456508453465E-04
    0.76019350952138096955E-05
    0.46373575682755034823E-05
    0.38767968138649943531E-05
    0.42086716141043203505E-05
    0.34008740779322243495E-05
    0.62081595687231196440E-05
    0.77161271462748610452E-05
    0.32341991395987704705E-04
    0.64254239985653608096E-04
    0.10075707756088505326E-03
    0.16238350409905846924E-03
    0.15066021544188820387E-03
    0.24214603770379079556E-03
    0.15194771911147589272E-03
    0.88608308155077074113E-04
    0.47135131305141051241E-04
    0.31313420862415694535E-04
    0.39119255251882140330E-04
    0.22960579774853096566E-04
    0.68771869789580484448E-04
    0.88234998602190883453E-04
    0.23742682406637632468E-05
    0.34284954113479376875E-05
    0.47480708098930655899E-05
    0.72704807225863401845E-05
    0.73565897635856193431E-05
    0.12508965114239138029E-04
    0.88949267060797526565E-05
    0.51612744703668516255E-05
    0.35433812512411660503E-05
    0.28893381950924834783E-05
    0.28429882414924553675E-05
    0.22792467252960427891E-05
    0.38037751703014851123E-05
    0.46806156469896850766E-05
    0.12201628658440323065E-04
    0.24062405527893937013E-04
    0.34039835645325008441E-04
    0.54688889150640209314E-04
    0.61638517175797340533E-04
    0.11122530370656138479E-03
    0.86364127170505302212E-04
    0.47067495661186880683E-04
    0.28452379556037452898E-04
    0.17662811101893448698E-04
    0.18134670462730767500E-04
    0.10041934258338031279E-04
    0.29586485531773214561E-04
    0.39121898819285547339E-04
    0.29389854942394748371E-03
    0.57714930111870581600E-03
    0.83912277282408823283E-03
    0.12798414893027958584E-02
    0.13256679313010057055E-02
    0.18144729156225965390E-02
    0.14614554041956283152E-02
    0.92060637311273171152E-03
    0.50961821303926796087E-03
    0.34194991894932974617E-03
    0.39941639716120652280E-03
    0.23026287774796845055E-03
    0.67357286828048548288E-03
    0.86967846334433753820E-03
    0.16011606514155785064E-02
    0.21642733411912137148E-02
    0.23543361830289954474E-02
    0.25333522483426702127E-02
    0.24963954081788342597E-02
    0.25341185888181428157E-02
    0.24696259128041122763E-02
    0.23743093371045315837E-02
    0.22691040615544638692E-02
    0.20699848196797480948E-02
    0.20512580334357908424E-02
    0.15422927351624305097E-02
    0.23107289751135187510E-02
    0.24088894541543855350E-02
    0.80198181668882052506E-04
    0.15542306126211221035E-03
    0.19837064772532992827E-03
    0.31587307567261779231E-03
    0.40171715738422468771E-03
    0.72151071300949950072E-03
    0.67832239323439966119E-03
    0.36728106150032778900E-03
    0.24704226314934091095E-03
    0.15283842764112149162E-03
    0.13913248275968285138E-03
    0.73792153993402462590E-04
    0.20898713589493042348E-03
    0.27682358896103775175E-03
    0.39282533972549314640E-03
    0.66800410301392902125E-03
    0.67097469610624650097E-03
    0.90462400117654381132E-03
    0.13167938146594381291E-02
    0.18519420934160460337E-02
    0.21386182714530281405E-02
    0.15838284918473406488E-02
    0.13804196780833821127E-02
    0.92464815034940992487E-03
    0.74573638928163827298E-03
    0.40069389444800831545E-03
    0.96458423346944342346E-03
    0.11922055186917265065E-02
    0.16397467550325193255E-05
    0.19525244350524975775E-05
    0.23025282373397684426E-05
    0.29799573900330131809E-05
    0.31948293692597214928E-05
    0.49439823949864815624E-05
    0.41372862616455392682E-05
    0.27129224399533763218E-05
    0.22017374030885681705E-05
    0.18769811953240460695E-05
    0.18208621988044908167E-05
    0.15841136133168105902E-05
    0.21372557853184880656E-05
    0.24356316225363947976E-05
    0.38873285758806652715E-05
    0.63178179006770021162E-05
    0.73903647220092141701E-05
    0.10769061832537518193E-04
    0.15628072799501114469E-04
    0.29177684004946678926E-04
    0.27451942363746564834E-04
    0.14818909769731710129E-04
    0.10169366257580134016E-04
    0.64710287153012367264E-05
    0.59076593868270294677E-05
    0.36392513503949879343E-05
    0.84693917878356265126E-05
    0.11070200423895047709E-04
    0.14262028499136667635E-05
    0.15901608925555488454E-05
    0.17504040824696702283E-05
    0.19682180118759793083E-05
    0.19085383238955253921E-05
    0.23032393035574258008E-05
    0.21230907127837623686E-05
    0.17286010318614885058E-05
    0.15859851941451156029E-05
    0.14501597543809236512E-05
    0.14771115807605634669E-05
    0.13964438364760495311E-05
    0.16129141754104782135E-05
    0.16888225888251524141E-05
    0.24562161709116572040E-05
    0.31529627404916696687E-05
    0.39533747504840109464E-05
    0.47896302140382524020E-05
    0.45742310872536846514E-05
    0.59752526816877644662E-05
    0.61312064903013153356E-05
    0.41386936559160214858E-05
    0.33964977009196890262E-05
    0.26390872818628108281E-05
    0.26140909567618543654E-05
    0.21952144323077118342E-05
    0.32440611411776909515E-05
    0.36635709121673193959E-05
    0.17558411611227500531E-04
    0.36097932194384994376E-04
    0.47923772668794691076E-04
    0.75988153086817275604E-04
    0.91960902301937804044E-04
    0.16099473232626036702E-03
    0.15738731700050859565E-03
    0.87028832764395833719E-04
    0.63794155320771983694E-04
    0.38762624246577206109E-04
    0.32635209606891619084E-04
    0.15641960169435277685E-04
    0.48470542492804552460E-04
    0.64239226904244558754E-04
    0.99627453868140539964E-04
    0.16132085452589525537E-03
    0.17794267081790298714E-03
    0.23202059734619520409E-03
    0.29879973563981895466E-03
    0.43775365418351333069E-03
    0.53704666076436727469E-03
    0.35212683334465719274E-03
    0.31183707065475789900E-03
    0.20440290352578003100E-03
    0.16785751724954453578E-03
    0.96661256943632835261E-04
    0.21465383290577042886E-03