# vtk DataFile Version 3.0
LAPLACIEN  2D
ASCII
DATASET UNSTRUCTURED_GRID
 POINTS         481  float
   6.2500000000000000E-002  0.87500000000000000        0.0000000000000000     
  0.12500000000000000       0.87500000000000000        0.0000000000000000     
  0.12500000000000000       0.93750000000000000        0.0000000000000000     
   3.7499999999999999E-002  0.91249999999999998        0.0000000000000000     
   8.1250000000000003E-002  0.91874999999999996        0.0000000000000000     
   8.7499999999999994E-002  0.96250000000000002        0.0000000000000000     
   4.3749999999999997E-002  0.95625000000000004        0.0000000000000000     
  0.18750000000000000       0.87500000000000000        0.0000000000000000     
  0.25000000000000000       0.87500000000000000        0.0000000000000000     
  0.25000000000000000       0.93750000000000000        0.0000000000000000     
  0.16250000000000001       0.91249999999999998        0.0000000000000000     
  0.20624999999999999       0.91874999999999996        0.0000000000000000     
  0.21249999999999999       0.96250000000000002        0.0000000000000000     
  0.16875000000000001       0.95625000000000004        0.0000000000000000     
   6.2500000000000000E-002  0.75000000000000000        0.0000000000000000     
  0.12500000000000000       0.75000000000000000        0.0000000000000000     
  0.12500000000000000       0.81250000000000000        0.0000000000000000     
   3.7499999999999999E-002  0.78749999999999998        0.0000000000000000     
   8.1250000000000003E-002  0.79374999999999996        0.0000000000000000     
   8.7499999999999994E-002  0.83750000000000002        0.0000000000000000     
   4.3749999999999997E-002  0.83125000000000004        0.0000000000000000     
  0.18750000000000000       0.75000000000000000        0.0000000000000000     
  0.25000000000000000       0.75000000000000000        0.0000000000000000     
  0.25000000000000000       0.81250000000000000        0.0000000000000000     
  0.16250000000000001       0.78749999999999998        0.0000000000000000     
  0.20624999999999999       0.79374999999999996        0.0000000000000000     
  0.21249999999999999       0.83750000000000002        0.0000000000000000     
  0.16875000000000001       0.83125000000000004        0.0000000000000000     
  0.31250000000000000       0.87500000000000000        0.0000000000000000     
  0.37500000000000000       0.87500000000000000        0.0000000000000000     
  0.37500000000000000       0.93750000000000000        0.0000000000000000     
  0.28749999999999998       0.91249999999999998        0.0000000000000000     
  0.33124999999999999       0.91874999999999996        0.0000000000000000     
  0.33750000000000002       0.96250000000000002        0.0000000000000000     
  0.29375000000000001       0.95625000000000004        0.0000000000000000     
  0.43750000000000000       0.87500000000000000        0.0000000000000000     
  0.50000000000000000       0.87500000000000000        0.0000000000000000     
  0.50000000000000000       0.93750000000000000        0.0000000000000000     
  0.41249999999999998       0.91249999999999998        0.0000000000000000     
  0.45624999999999999       0.91874999999999996        0.0000000000000000     
  0.46250000000000002       0.96250000000000002        0.0000000000000000     
  0.41875000000000001       0.95625000000000004        0.0000000000000000     
  0.31250000000000000       0.75000000000000000        0.0000000000000000     
  0.37500000000000000       0.75000000000000000        0.0000000000000000     
  0.37500000000000000       0.81250000000000000        0.0000000000000000     
  0.28749999999999998       0.78749999999999998        0.0000000000000000     
  0.33124999999999999       0.79374999999999996        0.0000000000000000     
  0.33750000000000002       0.83750000000000002        0.0000000000000000     
  0.29375000000000001       0.83125000000000004        0.0000000000000000     
  0.43750000000000000       0.75000000000000000        0.0000000000000000     
  0.50000000000000000       0.75000000000000000        0.0000000000000000     
  0.50000000000000000       0.81250000000000000        0.0000000000000000     
  0.41249999999999998       0.78749999999999998        0.0000000000000000     
  0.45624999999999999       0.79374999999999996        0.0000000000000000     
  0.46250000000000002       0.83750000000000002        0.0000000000000000     
  0.41875000000000001       0.83125000000000004        0.0000000000000000     
   6.2500000000000000E-002  0.62500000000000000        0.0000000000000000     
  0.12500000000000000       0.62500000000000000        0.0000000000000000     
  0.12500000000000000       0.68750000000000000        0.0000000000000000     
   3.7499999999999999E-002  0.66249999999999998        0.0000000000000000     
   8.1250000000000003E-002  0.66874999999999996        0.0000000000000000     
   8.7499999999999994E-002  0.71250000000000002        0.0000000000000000     
   4.3749999999999997E-002  0.70625000000000004        0.0000000000000000     
  0.18750000000000000       0.62500000000000000        0.0000000000000000     
  0.25000000000000000       0.62500000000000000        0.0000000000000000     
  0.25000000000000000       0.68750000000000000        0.0000000000000000     
  0.16250000000000001       0.66249999999999998        0.0000000000000000     
  0.20624999999999999       0.66874999999999996        0.0000000000000000     
  0.21249999999999999       0.71250000000000002        0.0000000000000000     
  0.16875000000000001       0.70625000000000004        0.0000000000000000     
   6.2500000000000000E-002  0.50000000000000000        0.0000000000000000     
  0.12500000000000000       0.50000000000000000        0.0000000000000000     
  0.12500000000000000       0.56250000000000000        0.0000000000000000     
   3.7499999999999999E-002  0.53749999999999998        0.0000000000000000     
   8.1250000000000003E-002  0.54374999999999996        0.0000000000000000     
   8.7499999999999994E-002  0.58750000000000002        0.0000000000000000     
   4.3749999999999997E-002  0.58125000000000004        0.0000000000000000     
  0.18750000000000000       0.50000000000000000        0.0000000000000000     
  0.25000000000000000       0.50000000000000000        0.0000000000000000     
  0.25000000000000000       0.56250000000000000        0.0000000000000000     
  0.16250000000000001       0.53749999999999998        0.0000000000000000     
  0.20624999999999999       0.54374999999999996        0.0000000000000000     
  0.21249999999999999       0.58750000000000002        0.0000000000000000     
  0.16875000000000001       0.58125000000000004        0.0000000000000000     
  0.31250000000000000       0.62500000000000000        0.0000000000000000     
  0.37500000000000000       0.62500000000000000        0.0000000000000000     
  0.37500000000000000       0.68750000000000000        0.0000000000000000     
  0.28749999999999998       0.66249999999999998        0.0000000000000000     
  0.33124999999999999       0.66874999999999996        0.0000000000000000     
  0.33750000000000002       0.71250000000000002        0.0000000000000000     
  0.29375000000000001       0.70625000000000004        0.0000000000000000     
  0.43750000000000000       0.62500000000000000        0.0000000000000000     
  0.50000000000000000       0.62500000000000000        0.0000000000000000     
  0.50000000000000000       0.68750000000000000        0.0000000000000000     
  0.41249999999999998       0.66249999999999998        0.0000000000000000     
  0.45624999999999999       0.66874999999999996        0.0000000000000000     
  0.46250000000000002       0.71250000000000002        0.0000000000000000     
  0.41875000000000001       0.70625000000000004        0.0000000000000000     
  0.31250000000000000       0.50000000000000000        0.0000000000000000     
  0.37500000000000000       0.50000000000000000        0.0000000000000000     
  0.37500000000000000       0.56250000000000000        0.0000000000000000     
  0.28749999999999998       0.53749999999999998        0.0000000000000000     
  0.33124999999999999       0.54374999999999996        0.0000000000000000     
  0.33750000000000002       0.58750000000000002        0.0000000000000000     
  0.29375000000000001       0.58125000000000004        0.0000000000000000     
  0.43750000000000000       0.50000000000000000        0.0000000000000000     
  0.50000000000000000       0.50000000000000000        0.0000000000000000     
  0.50000000000000000       0.56250000000000000        0.0000000000000000     
  0.41249999999999998       0.53749999999999998        0.0000000000000000     
  0.45624999999999999       0.54374999999999996        0.0000000000000000     
  0.46250000000000002       0.58750000000000002        0.0000000000000000     
  0.41875000000000001       0.58125000000000004        0.0000000000000000     
  0.56250000000000000       0.87500000000000000        0.0000000000000000     
  0.62500000000000000       0.87500000000000000        0.0000000000000000     
  0.62500000000000000       0.93750000000000000        0.0000000000000000     
  0.53749999999999998       0.91249999999999998        0.0000000000000000     
  0.58125000000000004       0.91874999999999996        0.0000000000000000     
  0.58750000000000002       0.96250000000000002        0.0000000000000000     
  0.54374999999999996       0.95625000000000004        0.0000000000000000     
  0.68750000000000000       0.87500000000000000        0.0000000000000000     
  0.75000000000000000       0.87500000000000000        0.0000000000000000     
  0.75000000000000000       0.93750000000000000        0.0000000000000000     
  0.66249999999999998       0.91249999999999998        0.0000000000000000     
  0.70625000000000004       0.91874999999999996        0.0000000000000000     
  0.71250000000000002       0.96250000000000002        0.0000000000000000     
[...]
 CELL_DATA         896
 SCALARS VEGF float
 LOOKUP_TABLE default
    0.16209169864400721665E-05
    0.17426163027354735221E-05
    0.21515410489322718822E-05
    0.22879700133758669662E-05
    0.19235675407319568331E-05
    0.20301384296673372483E-05
    0.17247710640057130787E-05
    0.16064426035201430770E-05
    0.14516337193930447018E-05
    0.14137598376201962726E-05
    0.14919225056299979756E-05
    0.14552718611066981547E-05
    0.16415068634735406402E-05
    0.16840121763586365111E-05
    0.38797670223220475540E-05
    0.45884268421730062073E-05
    0.70985265546058185743E-05
    0.72130016979289155468E-05
    0.45809183964130055085E-05
    0.35210474858449073472E-05
    0.30888268803405911705E-05
    0.29402716159065531971E-05
    0.23677757714185510631E-05
    0.22382992474309370580E-05
    0.27098043214989326705E-05
    0.26801796856603025001E-05
    0.35063737389964138028E-05
    0.35447577771406548716E-05
    0.23009821300315412293E-05
    0.27433128002254732998E-05
    0.41491933940890032397E-05
    0.47546191730391991617E-05
    0.32806198085028443342E-05
    0.33723533187879972500E-05
    0.23472895182337419668E-05
    0.20446118682711209949E-05
    0.16845981082414093160E-05
    0.16235898862950522328E-05
    0.18796232204129255174E-05
    0.18955390110210556021E-05
    0.22937186075097516312E-05
    0.23913543186940606789E-05
    0.11361225763651546346E-04
    0.15286931896721372851E-04
    0.27208608139320461186E-04
    0.28361773890669837912E-04
    0.16913837862262950446E-04
    0.14838241950002368729E-04
    0.86882945048880063326E-05
    0.75352231041179512788E-05
    0.44617840814523185134E-05
    0.41425664188126390614E-05
    0.65885590191798551699E-05
    0.63751290172963504367E-05
    0.10392353747318570627E-04
    0.10768088836215392883E-04
    0.16520128691227885340E-04
    0.21857493971587847422E-04
    0.38494087305527547834E-04
    0.42652752965042886634E-04
    0.28461708218608819881E-04
    0.32481347550652926129E-04
    0.21610049560470004164E-04
    0.14135001004377939347E-04
    0.74818519340350330896E-05
    0.51891523947050051201E-05
    0.91299843646499388304E-05
    0.89724790142681329005E-05
    0.15674512434673513610E-04
    0.17342874928008722858E-04
    0.91552155578321811852E-04
    0.10522719158430380128E-03
    0.14874712073170600875E-03
    0.14497808153066536383E-03
    0.11210127148894921743E-03
    0.11148326234636623242E-03
    0.89773640113895411042E-04
    0.73577977425412163532E-04
    0.49796349339691853915E-04
    0.41819589602761606689E-04
    0.59309439332516314001E-04
    0.55741378741641883603E-04
    0.86130298017000675166E-04
    0.89365260562103288468E-04
    0.73037921908144834405E-04
    0.89210457026450370489E-04
    0.15438407353136058392E-03
    0.15631840435995626140E-03
    0.94001977387378682968E-04
    0.85987642754680644890E-04
    0.47611005538641067484E-04
    0.39820106648180807337E-04
    0.20374406379347834574E-04
    0.19313681672350476668E-04
    0.36436766728965014751E-04
    0.38495547856456113788E-04
    0.58434983495254735355E-04
    0.59607490940230207826E-04
    0.35296817216935841332E-03
    0.35920742166935129645E-03
    0.51533066607986144705E-03
    0.44377334109714278079E-03
    0.30281617289329003937E-03
    0.24446530902229790180E-03
    0.17349373246321520329E-03
    0.16982810435733667015E-03
    0.10837813111985841784E-03
    0.10740903331371636994E-03
    0.17965691936627198430E-03
    0.20124837644109819105E-03
    0.25019360558843547213E-03
    0.24093071127185338516E-03
    0.36887326203474267612E-05
    0.51477713873832423266E-05
    0.88863000571518760174E-05
    0.11496194947280310018E-04
    0.74617986507787267743E-05
    0.84371763445904607737E-05
    0.48029021366618786587E-05
    0.36573606181640994977E-05
    0.24816421540481435635E-05
    0.23680158027889823548E-05
    0.29574140447467302329E-05
    0.28981360100803421487E-05
    0.41226419779446274954E-05
    0.45459631613586369884E-05
    0.30720716875142199014E-04
    0.47357876223320904388E-04
    0.85995419098301153701E-04
    0.10459684224825409066E-03
    0.63103542245601741190E-04
    0.63941935046675290677E-04
    0.34311182323122938961E-04
    0.26541958551571185064E-04
    0.13448669823804233214E-04
    0.11466202380585521016E-04
    0.19569445691922453641E-04
    0.16732453734862014823E-04
    0.34003273182194049002E-04
    0.37273183508844086862E-04
    0.46655307331715072783E-05
    0.73872788427640217001E-05
    0.12920748316403901892E-04
    0.19035391218669255991E-04
    0.13546426065444929060E-04
    0.18237050480366182715E-04
    0.99597146030912214715E-05
    0.65174911894115970015E-05
    0.39259444985747103983E-05
    0.35291722416716691942E-05
    0.42912172221897706333E-05
    0.38137813752359496103E-05
    0.64399768359313526417E-05
    0.76193035407819754943E-05
    0.47683266112286541477E-04
    0.86314381026287440024E-04
    0.15176754564425175851E-03
    0.21652874556982355542E-03
    0.15179304346183992297E-03
    0.18914796999249010789E-03
    0.10146543579107372408E-03
    0.69333141837944813079E-04
    0.34396785040586235578E-04
    0.26087659904557464083E-04
    0.40490885408430397907E-04
    0.28538848291794396820E-04
    0.72994680055179784724E-04
    0.86493167656065557923E-04
    0.27382019897011857000E-03
    0.37534478865296108229E-03
    0.67193547788638174900E-03
    0.70510766092740575096E-03
    0.41457635016373475551E-03
    0.36274486948229743523E-03
    0.19824743961518345010E-03
    0.17227147863967411014E-03
    0.90630472833424640397E-04
    0.84811957917929329978E-04
    0.15291727197251341205E-03
    0.14770812001339237449E-03
    0.25047208568641462535E-03
    0.25885515944754587930E-03
    0.15130826208123058715E-02
    0.16125904167690399693E-02
    0.20859347712727984575E-02
    0.18987325250513632617E-02
    0.13385623438887880605E-02
    0.95144847760992266872E-03
    0.65030229945839640275E-03
    0.71468730181404606892E-03
    0.44096620006566124165E-03
    0.45418059896156181806E-03
    0.82212982322815686929E-03
    0.91555679545898057282E-03
    0.11522383933917313900E-02
    0.10911103569924422881E-02
    0.51690933772617847844E-03
    0.90443320059241795288E-03
    0.14633112424394802923E-02
    0.17251120556986492514E-02
    0.13438823208853725461E-02
    0.14241734342725984996E-02
    0.83920316230350305679E-03
    0.63214171916187633562E-03
    0.32090157471919607138E-03
    0.26231431990140509879E-03
    0.41945101389601969002E-03
    0.31448501391922626747E-03
    0.73564349513535569336E-03
    0.84077826841928271061E-03
    0.22595726820066447914E-02
    0.23500042154314653570E-02
    0.24585308462182742760E-02
    0.25047112010632400191E-02
    0.24737317615819106632E-02
    0.25223833806682248102E-02
    0.22793100409569471386E-02
    0.21596473570001445061E-02
    0.17174383620556395429E-02
    0.16761592728903615488E-02
    0.20658056560070867450E-02
    0.19796951025558562343E-02
    0.23384538795833431125E-02
    0.23682863374935138670E-02
    0.20270454946171758272E-03
    0.18745789918772796999E-03
    0.20506775644915474629E-03
    0.18525436234736355188E-03
    0.16285512456105892131E-03
    0.14847078880142778744E-03
    0.13985408566930966536E-03
    0.14031550679691729929E-03
    0.12499584404296548929E-03
    0.12259715014458288864E-03
    0.14686338616779669392E-03
    0.15816511167250169121E-03
    0.16638159554728965692E-03
    0.16180108806026257794E-03
    0.19959812727644892427E-03
    0.17679857879956888491E-03
    0.17493470573527771504E-03
    0.15954285462653933518E-03
    0.15026629937156771137E-03
    0.13661325768097269803E-03
    0.13541811670665686784E-03
    0.14440692778298921495E-03
    0.14283262509524216025E-03
    0.14899166615957865479E-03
    0.16312242027979658864E-03
    0.18259635018475287027E-03
    0.16694412957516229228E-03
    0.16033535299644904935E-03
    0.62447879037159860667E-03
    0.49034104188486096320E-03
    0.50848421899182447668E-03
    0.41074454871873255710E-03
    0.33488057352585481104E-03
    0.26036380562567115532E-03
    0.22884205070751838652E-03
    0.26632062171681833863E-03
    0.23227303246054441504E-03
    0.26037653239505733618E-03
    0.36011314587571099195E-03
    0.46498242993653468493E-03
    0.38055158774054316040E-03
    0.34418371060679646325E-03
    0.40942841945000336013E-03
    0.32076594205059940322E-03
    0.29638093405912714151E-03
    0.25200625617621222763E-03
    0.23165602785299503575E-03
    0.19243375896216648917E-03
    0.18658895868810853659E-03
    0.21903103464241668592E-03
    0.21925019339977784441E-03
    0.25193443698797021377E-03
    0.29795622393740013589E-03
    0.38261562800339065900E-03
    0.28189784239186007220E-03
    0.25738827246404492009E-03
    0.15676596162922436391E-03
    0.14253465068492842467E-03
    0.13787539604282953018E-03
    0.12910551674665527691E-03
    0.12534364252112930129E-03
    0.11533147920623094138E-03
    0.11531299408702181590E-03
    0.12445214964260803165E-03
    0.12630145429119298429E-03
    0.13372318083741007626E-03
    0.14026500318024573920E-03
    0.15371074013628750776E-03
    0.14119874463763972894E-03
    0.13638236499136159358E-03
    0.12501496795753761567E-03
    0.11702643780612308829E-03
    0.11346365625396061889E-03
    0.10696905798165880653E-03
    0.10535463967457076701E-03
    0.97488172550186215164E-04
    0.97423191981735717264E-04
    0.10516461613195750421E-03
    0.10645477707935850978E-03
    0.11276655840537398051E-03
    0.11671513485267206198E-03
    0.12475971875030824254E-03
    0.11892662087604215411E-03
    0.11554548776518324348E-03
    0.23052927077941347354E-03
    0.19612175171590984397E-03
    0.18205880247332688099E-03
    0.16544315792150121516E-03
    0.16021484260254190602E-03
    0.14281460228172655844E-03
    0.14262356540804585589E-03
    0.16023033100822403380E-03
    0.16572590553603057601E-03
    0.18362204402790980175E-03
    0.19744537591494709704E-03
    0.23321326462076450098E-03
    0.18845373348882668964E-03
    0.17778236762729565700E-03
    0.15496920259968456016E-03
    0.14228609896641219957E-03
    0.13691847502791132667E-03
    0.12909747575039857699E-03
    0.12639985956569452187E-03
    0.11675845208932056514E-03
    0.11627624960849745504E-03
    0.12634963557092823618E-03
    0.12957095740115468765E-03
    0.13828317428330456191E-03
    0.14336269730057905414E-03
    0.15715230468138255654E-03
    0.14270428487006214476E-03
    0.13790449980297103671E-03
    0.21318547315853876231E-02
    0.16167142303216176791E-02
    0.14025684332119321262E-02
    0.10659171601328256123E-02
    0.92862404728488669083E-03
    0.64791063028412677893E-03
    0.59702738736765344468E-03
    0.81275818386759022052E-03
    0.76218112425794801949E-03
    0.96036437681604788340E-03
    0.13783916965408955693E-02
    0.18950682389310758488E-02
    0.12789736451475168782E-02
    0.10887301288329469078E-02
    0.82724180117933190579E-03
    0.60811503808235226835E-03
    0.49760661946738238455E-03
    0.41130824831584524839E-03
    0.40159575207881830980E-03
    0.31563862509532953195E-03
    0.32296692298951646533E-03
    0.42113606148406931536E-03
    0.46386923714720020625E-03
    0.58222902509598125406E-03
    0.66159991937195792352E-03
    0.91140758341777311415E-03
    0.55154647696596030646E-03
    0.48638522852881299228E-03
    0.25734342613444602735E-02
    0.22809340221829235533E-02
    0.18038709262045496406E-02
    0.15409942789842425662E-02
    0.17269901782132311436E-02
    0.13507261318447729564E-02
    0.15428805941587796311E-02
    0.20842776560170430365E-02
    0.23291492763856148918E-02
    0.25508358813038983434E-02
    0.25558007464084012313E-02
    0.25398667752199624408E-02
    0.23252963197762334044E-02
    0.21700301638007219937E-02
    0.10371827429549588303E-02
    0.79957356126406857032E-03
    0.60880168998310012912E-03
    0.52063104045257479861E-03
    0.56636500015982006295E-03
    0.46110387776314616399E-03
    0.52500233901220947144E-03
    0.70844475399701794735E-03
    0.89216127379583304996E-03
    0.11272378801730868758E-02
    0.10510792706517075451E-02
    0.13009563805668831592E-02
    0.81262394804329995349E-03
    0.72868600455649578784E-03
    0.33043620183367431809E-03
    0.27072909396058241361E-03
    0.23621870768532527872E-03
    0.21168351443278513361E-03
    0.21147976226155670333E-03
    0.18432557835274795749E-03
    0.18966650685508707245E-03
    0.22450426573465882309E-03
    0.24628594846821960391E-03
    0.28671975361173812147E-03
    0.29754241372369774838E-03
    0.36384601059668620661E-03
    0.26370808499213656880E-03
    0.24441362116148310918E-03
    0.18709987427469024668E-03
    0.17024326823732266966E-03
    0.16102311708699509462E-03
    0.15308929650954849252E-03
    0.15134965372376200303E-03
    0.14077268439172807698E-03
    0.14043219470213900058E-03
    0.15372153625733050715E-03
    0.16078619825994185859E-03
    0.17456961162074042452E-03
    0.17769191245080455973E-03
    0.19700829041333691458E-03
    0.17159933144208136253E-03
    0.16534651150361496185E-03
    0.38112596492679683829E-03
    0.31688510323015493288E-03
    0.26454455619901861164E-03
    0.24044821175077846394E-03
    0.25330137729428050045E-03
    0.22391195711511400275E-03
    0.24254199858460208676E-03
    0.29328550721722157404E-03
    0.34438140380015449561E-03
    0.40345729195138594183E-03
    0.38455132247111064410E-03
    0.45282135885111977902E-03
    0.32490312242146134449E-03
    0.30232442871985776549E-03
    0.20226989319540984399E-03
    0.18605983877195486154E-03
    0.17283802549712147783E-03
    0.16700752262104056906E-03
    0.16956002499167625928E-03
    0.16124347253354651306E-03
    0.16353089097365260509E-03
    0.17834779354608396506E-03
    0.19163590512010368117E-03
    0.20822157657340647509E-03
    0.20359573463329678610E-03
    0.22154049188823288696E-03
    0.19229844042077369752E-03
    0.18621201892511443101E-03
    0.37980319955544927683E-05
    0.61504152953695195180E-05
    0.98736541389114187636E-05
    0.15645223316472817203E-04
    0.13500460415817714424E-04
    0.21639963539189944065E-04
    0.12987893344857615122E-04
    0.76165051598642908424E-05
    0.46446082121129587288E-05
    0.38822588929734429145E-05
    0.42145206970660296686E-05
    0.34046208595967490532E-05
    0.62185016426541555760E-05
    0.77303207208378698603E-05
    0.32398810429985412890E-04
    0.64369283928098608829E-04
    0.10091025008241973288E-03
    0.16266499216461627938E-03
    0.15094639202532770150E-03
    0.24264859350990732956E-03
    0.15225034718862711898E-03
    0.88786204124469741343E-04
    0.47240828737995486941E-04
    0.31384550003869416822E-04
    0.39202413911502574564E-04
    0.23005581730356798251E-04
    0.68908946812767387464E-04
    0.88407190749097827793E-04
    0.23734043778720688122E-05
    0.34283733725387574665E-05
    0.47472621782801062513E-05
    0.72722736888079822674E-05
    0.73625220555230897333E-05
    0.12525168159521512430E-04
    0.89078306326744176069E-05
    0.51666696036565614664E-05
    0.35464472327138766818E-05
    0.28910757467357769152E-05
    0.28438456995485318200E-05
    0.22790261028906620674E-05
    0.38053970562660373092E-05
    0.46837227457391899496E-05
    0.12197941779849913460E-04
    0.24064823605052496926E-04
    0.34027596843461736071E-04
    0.54686154635403485689E-04
    0.61677720366654334070E-04
    0.11134573386347966788E-03
    0.86476381869490893191E-04
    0.47127484337597959601E-04
    0.28496896719408257515E-04
    0.17686733766283434466E-04
    0.18150233148045748097E-04
    0.10044709863266332184E-04
    0.29608535232528137161E-04
    0.39155894618606293855E-04
    0.29440013746215906026E-03
    0.57827863621382348102E-03
    0.84030616162884168643E-03
    0.12795311720991266007E-02
    0.13250133387935315258E-02
    0.18104805676795664941E-02
    0.14607123548592856974E-02
    0.92208810710612155049E-03
    0.51077159603702456531E-03
    0.34268735688551055837E-03
    0.40025687679380166388E-03
    0.23068194121716849038E-03
    0.67500250546037804736E-03
    0.87104402015840941016E-03
    0.15986813079035574851E-02
    0.21574822329088827813E-02
    0.23473385987219097526E-02
    0.25247847396657383499E-02
    0.24873750713099414614E-02
    0.25251424398916718847E-02
    0.24604015643115220713E-02
    0.23649950909331168836E-02
    0.22599611559759253190E-02
    0.20635737532457322507E-02
    0.20453190872185330468E-02
    0.15403661634631245908E-02
    0.23027644073204092852E-02
    0.24000915477472941663E-02
    0.80163133772226204446E-04
    0.15546526325257553061E-03
    0.19838591394392342281E-03
    0.31601447207585950990E-03
    0.40210207397327395141E-03
    0.72238213174461623003E-03
    0.67939195849582437788E-03
    0.36779512660682796548E-03
    0.24741027161433236208E-03
    0.15301980310644590854E-03
    0.13924003043048571553E-03
    0.73795063728391454400E-04
    0.20916056855304167913E-03
    0.27710390737230820987E-03
    0.39284348842322713499E-03
    0.66824087163385641284E-03
    0.67098498043307761799E-03
    0.90473806891598271274E-03
    0.13165404276585766785E-02
    0.18495282821948551798E-02
    0.21335079604148923446E-02
    0.15817765532190970670E-02
    0.13792664631016077117E-02
    0.92528095020802435602E-03
    0.74630505940254674227E-03
    0.40087072697352879504E-03
    0.96511961413616332434E-03
    0.11922179421039657762E-02
    0.16371443337984570394E-05
    0.19486313544939911907E-05
    0.22958983440761633362E-05
    0.29709472349057448602E-05
    0.31888436002801138435E-05
    0.49374548863784312262E-05
    0.41347213257557165994E-05
    0.27105053425487551989E-05
    0.22003719136672618576E-05
    0.18754810635269475618E-05
    0.18187211696437142042E-05
    0.15820490892091592610E-05
    0.21340762457793445789E-05
    0.24321048755909257353E-05
    0.38661374800602576454E-05
    0.62822000277450670789E-05
    0.73285802049919681142E-05
    0.10685700820175019916E-04
    0.15570553156182112461E-04
    0.29111185351858440747E-04
    0.27425532376346253475E-04
    0.14797170810053757964E-04
    0.10160652411546054435E-04
    0.64621680482752804882E-05
    0.58913590431009237809E-05
    0.36263751074428827535E-05
    0.84407212997661554895E-05
    0.11037577942262545301E-04
    0.14236154395000433698E-05
    0.15860960289021635022E-05
    0.17437449619236846303E-05
    0.19586987684659856077E-05
    0.19008735098763885920E-05
    0.22922037424532279209E-05
    0.21162472233039430020E-05
    0.17243060247546730996E-05
    0.15833313628793480960E-05
    0.14478864824204976751E-05
    0.14745363789825316009E-05
    0.13942573165704973335E-05
    0.16091096655032633448E-05
    0.16842593893678406562E-05
    0.24357014474163061990E-05
    0.31182062816889108252E-05
    0.38974957153236387692E-05
    0.47134004156519451360E-05
    0.45078629393161457245E-05
    0.58781817717781725008E-05
    0.60682290213806548180E-05
    0.40999257857933557906E-05
    0.33749924097219449993E-05
    0.26237531137205284066E-05
    0.25943264946178758646E-05
    0.21816865371186044991E-05
    0.32109907714053221260E-05
    0.36232243046352755147E-05
    0.17418536257915001294E-04
    0.35932683954074238109E-04
    0.47706957617018214439E-04
    0.75754759196865076396E-04
    0.91787154836396017796E-04
    0.16085095423236251268E-03
    0.15733157971496619155E-03
    0.86935345145292073753E-04
    0.63727029548603942037E-04
    0.38682790605964389931E-04
    0.32524933192583790561E-04
    0.15537094187686513485E-04
    0.48332705453827452021E-04
    0.64102255561622134236E-04
    0.99295721979140552150E-04
    0.16094856703565064331E-03
    0.17746321157453975328E-03
    0.23150474934953747005E-03
    0.29839029036644485826E-03
    0.43737062419128922702E-03
    0.53690196831051141893E-03
    0.35193303079489941972E-03
    0.31174406899243532927E-03
    0.20424594498667959916E-03
    0.16761915200689541544E-03
    0.96398778635473718313E-04
    0.21437251099959677629E-03