# vtk DataFile Version 3.0
LAPLACIEN  2D
ASCII
DATASET UNSTRUCTURED_GRID
 POINTS        1616  float
  0.45880792999999997       0.87913892999999999        0.0000000000000000     
  0.40372658000000000       0.18243693000000000        0.0000000000000000     
  0.52563972999999997       0.19039755999999999        0.0000000000000000     
  0.45642953000000003       0.24226190000000000        0.0000000000000000     
  0.51984098000000001       0.24548566999999999        0.0000000000000000     
  0.21212766999999999       0.18957676000000001        0.0000000000000000     
  0.28573643999999998       0.48586826999999999        0.0000000000000000     
  0.49667887999999999       0.82979849000000006        0.0000000000000000     
  0.22848407000000001       0.23366793000000000        0.0000000000000000     
  0.27860389000000002       0.86069733000000004        0.0000000000000000     
  0.36563702999999997       0.80971340999999997        0.0000000000000000     
  0.28045499000000002       0.80393031999999998        0.0000000000000000     
  0.40374228000000001       0.78127665000000002        0.0000000000000000     
  0.56160891999999996       0.55341227999999998        0.0000000000000000     
  0.37210935000000001       0.26787699999999998        0.0000000000000000     
  0.49899838000000002       0.57286409999999999        0.0000000000000000     
  0.41023869000000002       0.33464665999999998        0.0000000000000000     
  0.33484156999999998       0.29151022999999998        0.0000000000000000     
  0.46758665999999999       0.58262307999999996        0.0000000000000000     
  0.43303693999999998       0.36569945999999998        0.0000000000000000     
  0.25741280000000000       0.61805882999999995        0.0000000000000000     
  0.28853707000000001       0.59423020000000004        0.0000000000000000     
  0.67837254000000002       0.45038665999999999        0.0000000000000000     
  0.42159046000000000       0.50697913999999999        0.0000000000000000     
  0.60276470999999998       0.73940291000000002        0.0000000000000000     
  0.30758273000000003       0.77844542000000005        0.0000000000000000     
  0.45367541000000000       0.31842187000000000        0.0000000000000000     
  0.36974101999999998       0.35807864000000000        0.0000000000000000     
  0.26919625000000003       0.65312176000000000        0.0000000000000000     
  0.61908110999999999       0.42741791000000001        0.0000000000000000     
  0.54442267000000000       0.74200747000000000        0.0000000000000000     
  0.58930464999999999       0.41588288000000001        0.0000000000000000     
  0.51511633000000001       0.74331579000000003        0.0000000000000000     
  0.12878382999999999       0.33122940000000001        0.0000000000000000     
  0.15534365000000000       0.71749246000000000        0.0000000000000000     
  0.64877724999999997       0.30161799000000000        0.0000000000000000     
  0.58853643000000000       0.28101930000000003        0.0000000000000000     
  0.56390348000000001       0.30132482999999999        0.0000000000000000     
  0.29605991999999998       0.44474459999999999        0.0000000000000000     
  0.29900669000000002       0.52983276000000001        0.0000000000000000     
  0.55954318999999997       0.48654808999999999        0.0000000000000000     
  0.42341458999999998       0.38785072999999998        0.0000000000000000     
  0.45806291999999998       0.35892998999999998        0.0000000000000000     
  0.47820750000000001       0.31147424000000001        0.0000000000000000     
  0.36344222999999998       0.38139388000000002        0.0000000000000000     
  0.17186508000000000       0.28159534000000003        0.0000000000000000     
  0.18029876000000000       0.33292397000000001        0.0000000000000000     
  0.20696366999999999       0.71822465999999996        0.0000000000000000     
  0.61326404999999995       0.34468346000000000        0.0000000000000000     
  0.29887186999999998       0.42337377999999998        0.0000000000000000     
  0.33271837999999998       0.44383096000000000        0.0000000000000000     
  0.31835012000000001       0.54267131999999996        0.0000000000000000     
  0.54882964999999995       0.45462609999999998        0.0000000000000000     
  0.20448143999999999       0.28717446000000002        0.0000000000000000     
  0.20634120000000000       0.33378063000000002        0.0000000000000000     
  0.23301781999999999       0.71859421999999995        0.0000000000000000     
  0.58606499999999995       0.35199907000000002        0.0000000000000000     
  0.20841100000000001       0.45369578999999999        0.0000000000000000     
  0.24778198000000001       0.77708496000000005        0.0000000000000000     
  0.30748062999999998       0.61002621000000001        0.0000000000000000     
  0.23337332000000000       0.41981835000000001        0.0000000000000000     
  0.25985113999999998       0.75924943000000000        0.0000000000000000     
  0.24610213000000000       0.40254353999999998        0.0000000000000000     
  0.37350351999999998       0.50127178999999999        0.0000000000000000     
  0.43235204999999999       0.78236391000000005        0.0000000000000000     
  0.30749858000000002       0.28582627999999999        0.0000000000000000     
  0.30336816000000000       0.64635111000000001        0.0000000000000000     
  0.31418906000000002       0.43625961000000002        0.0000000000000000     
  0.27223414000000001       0.78063022000000004        0.0000000000000000     
  0.22829299000000000       0.75089561000000005        0.0000000000000000     
  0.26580239000000000       0.42989294000000000        0.0000000000000000     
  0.37369119000000001       0.51975733999999996        0.0000000000000000     
  0.39681665999999999       0.51027884000000001        0.0000000000000000     
  0.32086795000000001       0.65137668999999998        0.0000000000000000     
  0.31757218999999998       0.62987181000000003        0.0000000000000000     
  0.32959777000000001       0.42500900000000003        0.0000000000000000     
  0.24663835000000001       0.74537787000000000        0.0000000000000000     
  0.26354222999999999       0.41075105000000001        0.0000000000000000     
  0.28343712999999998       0.43221330000000002        0.0000000000000000     
  0.34682245000000000       0.43182289000000001        0.0000000000000000     
  0.35306810000000000       0.45344571000000000        0.0000000000000000     
  0.57327218000000002       0.15829040000000000        0.0000000000000000     
  0.51473097999999995       0.12621746000000000        0.0000000000000000     
  0.72829681999999996       0.40151571000000003        0.0000000000000000     
  0.42703184999999999       0.53501600999999999        0.0000000000000000     
  0.32612607999999998       0.75472421999999995        0.0000000000000000     
   9.9814849999999997E-002  0.28081352999999998        0.0000000000000000     
  0.13945825000000001       0.78732252999999996        0.0000000000000000     
  0.44199519999999998       0.38275643999999998        0.0000000000000000     
  0.40132215999999998       0.36508836000000000        0.0000000000000000     
  0.43963142999999999       0.34043466999999999        0.0000000000000000     
  0.47160058999999999       0.33493045999999999        0.0000000000000000     
  0.45615203999999998       0.28038164999999998        0.0000000000000000     
  0.34321279999999998       0.35314412000000001        0.0000000000000000     
  0.29178279000000001       0.56170810000000004        0.0000000000000000     
  0.49833080000000002       0.48416767999999999        0.0000000000000000     
  0.46386271000000001       0.46452802999999998        0.0000000000000000     
  0.44722043000000000       0.45300645000000000        0.0000000000000000     
  0.46562803000000003       0.44419790999999997        0.0000000000000000     
  0.43925322000000000       0.48229485999999999        0.0000000000000000     
  0.49117628000000002       0.45665803999999999        0.0000000000000000     
  0.43435156000000003       0.46523363000000001        0.0000000000000000     
  0.19405754000000000       0.31093060000000000        0.0000000000000000     
  0.22069087000000001       0.66905079000000001        0.0000000000000000     
  0.30776597999999999       0.59042684000000001        0.0000000000000000     
  0.29541507000000000       0.57849362000000004        0.0000000000000000     
  0.28335474999999999       0.61970232999999997        0.0000000000000000     
  0.29935165000000002       0.62852803999999995        0.0000000000000000     
  0.28459435999999999       0.64121777000000002        0.0000000000000000     
  0.26698675999999999       0.63435282999999998        0.0000000000000000     
  0.24031983000000001       0.64700659000000005        0.0000000000000000     
  0.33118850000000000       0.50233682999999996        0.0000000000000000     
  0.35257061000000001       0.51072803000000000        0.0000000000000000     
  0.29038973000000001       0.78732479000000000        0.0000000000000000     
  0.28737915000000003       0.76752330999999996        0.0000000000000000     
  0.21978159000000000       0.73315437000000006        0.0000000000000000     
  0.18119734000000001       0.76257752999999995        0.0000000000000000     
  0.20353571000000001       0.75186065999999996        0.0000000000000000     
  0.39122694000000002       0.49007234000000000        0.0000000000000000     
  0.59140473999999998       0.13507609000000001        0.0000000000000000     
  0.53156702000000000        9.7663528999999999E-002   0.0000000000000000     
  0.76346223999999996       0.39657278000000001        0.0000000000000000     
  0.41119013999999998       0.52354409999999996        0.0000000000000000     
   7.2558165999999993E-002  0.26885883999999999        0.0000000000000000     
  0.10497347000000000       0.79895936000000001        0.0000000000000000     
[...]
 CELL_DATA        2963
 SCALARS Cells_density float
 LOOKUP_TABLE default
    0.67306637787723089250E+00
    0.55398246049933497215E+00
    0.38329693794472052826E+00
    0.48012637747130298971E+00
    0.44448654532142828355E+00
    0.67366286721399559756E+00
    0.46939017786844944302E+00
    0.41424666984219882249E+00
    0.61847440407153508879E+00
    0.23137011649996652718E+00
    0.53894737786829483017E+00
    0.34689382002874891153E+00
    0.35404898589890493321E+00
    0.45920210235511677022E+00
    0.61535112703261751754E+00
    0.34379209681220540551E+00
    0.23492798922033597542E+00
    0.45726154983597316894E+00
    0.77527402749685392358E+00
    0.33238172743414318155E+00
    0.44723730979595255342E+00
    0.31276325748038746877E+00
    0.37564881080126044655E+00
    0.39735739864047597836E+00
    0.30642216139666228480E+00
    0.92330318563868940540E+00
    0.32400915364980353850E+00
    0.77011789194411739423E+00
    0.40200095786398176712E+00
    0.28070969824133018555E+00
    0.43983065488285594258E+00
    0.48739388685740148155E+00
    0.40954509732286487056E+00
    0.29634458215181319618E+00
    0.34315159613709711461E+00
    0.30068322415547810156E+00
    0.36304375131423349821E+00
    0.28303291230063915007E+00
    0.29875926375031403026E+00
    0.39955724295148153935E+00
    0.28768936193782784771E+00
    0.43880216237003788482E+00
    0.37825841476483612613E+00
    0.28898241358762349895E+00
    0.54200278112789035401E+00
    0.25661707066493072427E+00
    0.30048979407457798718E+00
    0.55994455501368323169E+00
    0.27983698676944995798E+00
    0.56637749403980175433E+00
    0.26618599484166483027E+00
    0.24266693258838759051E+00
    0.25640532216877959248E+00
    0.24735696286281255718E+00
    0.36159994615428087128E+00
    0.34590584439531685268E+00
    0.28227308724136673801E+00
    0.25129841283770276705E+00
    0.23704846510719246311E+00
    0.36859900374113802046E+00
    0.24253531159483154855E+00
    0.53545400342938642702E+00
    0.53818233453372055219E+00
    0.46680456513396395568E+00
    0.39999419814025166664E+00
    0.24977886859023101795E+00
    0.32895694212344678276E+00
    0.23975377886775994796E+00
    0.51901744901532564924E+00
    0.43875809832455792137E+00
    0.29324494358041941489E+00
    0.24660416085734612746E+00
    0.29205478198060508266E+00
    0.30866020156250584261E+00
    0.23188988659141268611E+00
    0.23182124849330537630E+00
    0.30113198010436253993E+00
    0.23335100977297182356E+00
    0.25800739993376098358E+00
    0.25450211270699635291E+00
    0.47557609951499935086E+00
    0.26274663284177263156E+00
    0.24000076440325235350E+00
    0.23102042804336009318E+00
    0.27411530342262407922E+00
    0.50550312912521766506E+00
    0.73926038359628087893E+00
    0.39998931003348003888E+00
    0.31701470903995815354E+00
    0.70604375067121427634E+00
    0.33796749640893247735E+00
    0.26554011245384967488E+00
    0.36461290368894816449E+00
    0.24793953285737183045E+00
    0.29423079657068706982E+00
    0.27260684618882047303E+00
    0.29234542242966199410E+00
    0.33067393815121959300E+00
    0.26892230006635314821E+00
    0.33559910674876108905E+00
    0.29900743724862094419E+00
    0.33159372311534368594E+00
    0.26434896915735028866E+00
    0.34024445206931014374E+00
    0.40005940236948095423E+00
    0.53962127966785666811E+00
    0.36078483645829562132E+00
    0.78289856412814684550E+00
    0.26105339631883961449E+00
    0.36389211441272290015E+00
    0.45100324613133407903E+00
    0.32867317065180562397E+00
    0.31489677628614709537E+00
    0.35820758542795561041E+00
    0.47411509708113758199E+00
    0.33858377141145329370E+00
    0.66537695094216942060E+00
    0.57842214744752951106E+00
    0.23046132827290283229E+00
    0.23686983913654482969E+00
    0.32945895793453883194E+00
    0.49215275131859537172E+00
    0.24204793582944211794E+00
    0.29439845516135781933E+00
    0.25256418030370181294E+00
    0.31286297724570771850E+00
    0.73156344133533257601E+00
    0.25406067918486879842E+00
    0.46994172134548478637E+00
    0.23727557900075524344E+00
    0.26082971922080577798E+00
    0.25597312067291733140E+00
    0.40059529334616911234E+00
    0.25786192962625559266E+00
    0.35088270087585465840E+00
    0.23877072479657782123E+00
    0.24000382440988518584E+00
    0.59078197848615054966E+00
    0.41260355188415376304E+00
    0.44843124098954234569E+00
    0.23581232613956412680E+00
    0.27885359433645273697E+00
    0.46449680962486794567E+00
    0.23966175706863071526E+00
    0.24559466021815601344E+00
    0.27424670952776342148E+00
    0.50127460056590145143E+00
    0.26534984829678781582E+00
    0.35781724497864553225E+00
    0.30614251213731985546E+00
    0.40099215604788213119E+00
    0.58035803494856319507E+00
    0.24597435702986933381E+00
    0.28036377904957404672E+00
    0.26922086694684416175E+00
    0.25649749924193737671E+00
    0.24919412992940931373E+00
    0.27287849008089876124E+00
    0.27361144065175169171E+00
    0.27035611440837703512E+00
    0.27347106820079436496E+00
    0.29703961833033820650E+00
    0.28890713234220621874E+00
    0.31942554217979057807E+00
    0.34250912219692103422E+00
    0.25236977156066425776E+00
    0.24805009052041543383E+00
    0.25051974006398441963E+00
    0.23135835022106135406E+00
    0.25788180828821372081E+00
    0.25815407751473590237E+00
    0.27820041905702214136E+00
    0.27039229649660673216E+00
    0.27315013562341788900E+00
    0.25748240902160429711E+00
    0.25120036693475333855E+00
    0.40696127036282647715E+00
    0.33628867464763706474E+00
    0.58095495406248309767E+00
    0.24180060846678463893E+00
    0.23121328263164786510E+00
    0.29207660548893432662E+00
    0.30468291611303655042E+00
    0.34788457268423472746E+00
    0.26105168699427550028E+00
    0.26362286244742072494E+00
    0.40001770421853821702E+00
    0.83524985915033145289E+00
    0.24336487591435806976E+00
    0.28637771030353803559E+00
    0.48944797099104553340E+00
    0.40688351426849012071E+00
    0.71237461242561928021E+00
    0.23983123742003850665E+00
    0.33504072805458096074E+00
    0.24650606954575521312E+00
    0.33646139000549246667E+00
    0.26142632323386949533E+00
    0.31747629953498701649E+00
    0.24898418455611576183E+00
    0.29775604909592223724E+00
    0.28299834230805054336E+00
    0.40549701162295320733E+00
    0.26975537219910172837E+00
    0.39120896128009191584E+00
    0.37994442896764418771E+00
    0.27802472384558679641E+00
    0.37569792830131587547E+00
    0.39532620365356474501E+00
    0.24028026208123259844E+00
    0.24891850991580122265E+00
    0.36637029856850056309E+00
    0.39603603878142945582E+00
    0.55108062142458646981E+00
    0.60177367751576482657E+00
    0.36216041204840765388E+00
    0.30147321316547681658E+00
    0.36343057991824040398E+00
    0.39981793042847252329E+00
    0.24683249640761870114E+00
    0.52218534980714204075E+00
    0.60024017959098807662E+00
    0.60173091260973066152E+00
    0.23799630792721204742E+00
    0.24239612007393343540E+00
    0.51112257650630454897E+00
    0.49877423510012447450E+00
    0.26271472944925983173E+00
    0.26228552135982713400E+00
    0.32199431416431711916E+00
    0.25399953304870287463E+00
    0.31013150393107630221E+00
    0.35648858351424389523E+00
    0.39997580778424990378E+00
    0.32297350574914157617E+00
    0.33946371490315363495E+00
    0.68586651148936561562E+00
    0.37621707783592034380E+00
    0.40953052736966577552E+00
    0.44943959389064264132E+00
    0.24703824796224937987E+00
    0.27887653080383206783E+00
    0.40005500767194707157E+00
    0.40009070057536738618E+00
    0.34315232764383285513E+00
    0.97481319101620633738E+00
    0.33854700372179236112E+00
    0.24306825051688682460E+00
    0.88232892675315677256E+00
    0.31832216792046891252E+00
    0.23150827775261945130E+00
    0.36279972642072932931E+00
    0.84989352505468784837E+00
    0.45415985552824600369E+00
    0.26868738712506456956E+00
    0.31106563411890886250E+00
    0.27182469373664946977E+00
    0.76284390316783590169E+00
    0.29716381439899475225E+00
    0.32971406950268400404E+00
    0.25687395940599005995E+00
    0.23343583746231136300E+00
    0.23051745914284210714E+00
    0.27533632196455687380E+00
    0.35234574450737377038E+00
    0.24783597875523324938E+00
    0.43258972403610329582E+00
    0.24640509439426530602E+00
    0.28415014994669229864E+00
    0.36669991419783815045E+00
    0.35220515721295864164E+00
    0.32862882180974312130E+00
    0.30191838480458610405E+00
    0.27310766007614956097E+00
    0.27183541550726120217E+00
    0.43891626461235244694E+00
    0.28265506659815620161E+00
    0.35284867059255631272E+00
    0.23880171259918384075E+00
    0.26506315773485311649E+00
    0.55665316158548250325E+00
    0.24655361726375368825E+00
    0.40002047128412104859E+00
    0.30422494815775247279E+00
    0.26381601837773477337E+00
    0.24479557950856167814E+00
    0.33008401171852008726E+00
    0.26771982769490804133E+00
    0.90373138499595806472E+00
    0.31064280943969041493E+00
    0.31663005465649124437E+00
    0.31494900470490494460E+00
    0.30969242071939612204E+00
    0.41532369180683986754E+00
    0.29138927932438229984E+00
    0.39999054911094966691E+00
    0.25583375540901803769E+00
    0.28451017348103674331E+00
    0.42294449312006732189E+00
    0.29309698598491729093E+00
    0.29148263627484244376E+00
    0.29028183769939164272E+00
    0.31988892724663964273E+00
    0.56728885669885631415E+00
    0.42261136981438346405E+00
    0.24503602552902964407E+00
    0.25959023067489328529E+00
    0.27983791998936413670E+00
    0.27003666810619253447E+00
    0.40013683737431759990E+00
    0.23616298842762842303E+00
    0.27897950056435266708E+00
    0.39991830143878165371E+00
    0.27616890575475655512E+00
    0.38410048419110270901E+00
    0.54736881593186448303E+00
    0.26983186727007690831E+00
    0.59413208423631624910E+00
    0.47360882224951544872E+00
    0.34623944746990703569E+00
    0.33966019206232456185E+00
    0.31621283748634837485E+00
    0.34750442564677719304E+00
    0.32582628510396099974E+00
    0.60714841863986468429E+00
    0.33535721211827618227E+00
    0.40002792554893668031E+00
    0.39996851261020754942E+00
    0.42671483894702505468E+00
    0.68580583885169088543E+00
    0.23979872263472065685E+00
    0.24892733319826840233E+00
    0.54203382805081323781E+00
    0.49444538332265969283E+00
    0.27472449737685905591E+00
    0.28377757748888815525E+00
    0.25350290557670318581E+00
    0.33102310905472009939E+00
    0.46956241174439850017E+00
    0.33818082910357027959E+00
    0.33665627275843901245E+00
    0.52307544896786584143E+00
    0.82696478518749649833E+00
    0.34095900898545256075E+00
    0.23026710026054017511E+00
    0.26824336315811053710E+00
    0.25665149589212904457E+00
    0.33812201616973225349E+00
    0.31194383655935803423E+00
    0.62437575889195640055E+00
    0.58045933420331619068E+00
    0.41901015097091431905E+00
    0.40471371440601827674E+00
    0.25457835961630997934E+00
    0.24626050176412572768E+00
    0.24476283916693461484E+00
    0.25679084892093290149E+00
    0.25440997332741349668E+00
    0.26077139590099135402E+00
    0.27507601609522819297E+00
    0.26086096590085855462E+00
    0.26560150720252312384E+00
    0.29845376308039495150E+00
    0.27398780916521836559E+00
    0.24967321500819941726E+00
    0.26667080395547676508E+00
    0.26665190116672082832E+00
    0.26062359239233956476E+00
    0.59573662679286021326E+00
    0.35842172861517246352E+00
    0.38023853565708898294E+00
    0.36911496690470557702E+00
    0.37082533700958564271E+00
    0.37506370171736791441E+00
    0.39533521152875022997E+00
    0.41529959017675682764E+00
    0.39699536481915109754E+00
    0.35641077430208556454E+00
    0.38942481731077266405E+00
    0.41975342056042064254E+00
    0.37332492843389958326E+00
    0.35605658524627520345E+00
    0.38332918527221199190E+00
    0.34995865356992256201E+00
    0.35729640329850997915E+00
    0.30355018283455748040E+00
    0.25555815845085055882E+00
    0.25088038196589534934E+00
    0.26800802201575346650E+00
    0.25158444498654736199E+00
    0.25895086015453205874E+00
    0.26876439519442590909E+00
    0.26823971547526309633E+00
    0.26256733873276028035E+00
    0.27263196195990396786E+00
    0.28077673241528200432E+00
    0.31076091618146983730E+00
    0.27752673183403903101E+00
    0.63236036827179220587E+00
    0.28942849791655966829E+00
    0.24271401254909091838E+00
    0.23697193681352393679E+00
    0.23187806955407685994E+00
    0.23359171498126576894E+00
    0.36277192301811883590E+00
    0.35750977879400419601E+00
    0.34588082699072303372E+00
    0.31852806677484279962E+00
    0.35331213093632923838E+00
    0.38044094156815749797E+00
    0.39999237515207047844E+00
    0.51964445347915377837E+00
    0.39170967591167477062E+00
    0.46807745867564731768E+00
    0.23030860491286245240E+00
    0.23874492344070152861E+00
    0.70629654965249155651E+00
    0.23531137360481577114E+00
    0.52461184560352935868E+00
    0.59469784875065179186E+00
    0.45215805113068524568E+00
    0.86696150560609686053E+00
    0.81273968210195901563E+00
    0.29540029507070197923E+00
    0.25990549381192651346E+00
    0.70188428348141507218E+00
    0.31073758555163955020E+00
    0.67365120393483557404E+00
    0.65373889787494421366E+00
    0.54517518074954884888E+00
    0.25464976207546674569E+00
    0.25125860879541750403E+00
    0.24427476491987920593E+00
    0.25081203770328119873E+00
    0.25643270000410667286E+00
    0.25018231658177980670E+00
    0.24544120552303030913E+00
    0.23940883672770849055E+00
    0.24096116081283383559E+00
    0.23857015420675231621E+00
    0.24351823064598726587E+00
    0.24257368609792959169E+00
    0.26251762052105581668E+00
    0.27673246899720094216E+00
    0.26824401312563922462E+00
    0.26322978601388735687E+00
    0.26508752652721906395E+00
    0.26721969595859301760E+00
    0.27129130644780352632E+00
    0.29053511890028793641E+00
    0.26812028780735003286E+00
    0.30542081972264950585E+00
    0.29803992654003186313E+00
    0.31152407837532103407E+00
    0.24683736568401382083E+00
    0.25155877420659156218E+00
    0.24271206727687846816E+00
    0.25693906259152043958E+00
    0.24688593282591111966E+00
    0.24946892749271445955E+00
    0.44481780089913935949E+00
    0.41094925053121728054E+00
    0.61170709512284815457E+00
    0.43075350272932522167E+00
    0.40013723388825406246E+00
    0.47494361878621871309E+00
    0.37691332128172300164E+00
    0.39708069532124184997E+00
    0.33112634077492913987E+00
    0.32618210292683841312E+00
    0.40578606786481885571E+00
    0.31647878363623671572E+00
    0.27900816689325552700E+00
    0.27572486078701557988E+00
    0.31486253843404921060E+00
    0.40002430281242185028E+00
    0.29826957503030143704E+00
    0.28566121462580057466E+00
    0.29506193014512949180E+00
    0.25839129547724931646E+00
    0.28500374036692255331E+00
    0.27862866357360954739E+00
    0.24486773919590840154E+00
    0.23505607047393500819E+00
    0.25038340395655817039E+00
    0.24740706321635752563E+00
    0.23763987922947552023E+00
    0.23433651873747043948E+00
    0.23977036357224043583E+00
    0.24555352308166975006E+00
    0.24270123648209013245E+00
    0.24125031705396587922E+00
    0.31249271992463462100E+00
    0.32026797865897449480E+00
    0.42084169487890266126E+00
    0.42026436616763956922E+00
    0.39999640444912287762E+00
    0.39999970523693778590E+00
    0.31299538114030550640E+00
    0.34366731374518466602E+00
    0.58084158513561823245E+00
    0.58075182446749173959E+00
    0.53020290247954993124E+00
    0.92877175314569904163E+00
    0.81643531097525701146E+00
    0.74115820009021426973E+00
    0.75750496937565869882E+00
    0.66788374095375524497E+00
    0.25669817662839572447E+00
    0.28546267011049847317E+00
    0.27212210711560491649E+00
    0.28991866588285852835E+00
    0.45215844893804413296E+00
    0.55106948012145651195E+00
    0.56630684453633717279E+00
    0.44472879989548447233E+00
    0.39999585003274068518E+00
    0.39999207907657047256E+00
    0.35062957843632797106E+00
    0.33987786222911875456E+00
    0.33332329961524281847E+00
    0.31821143259304096595E+00
    0.34287511726676794810E+00
    0.31665792600131137391E+00
    0.27830595936862334572E+00
    0.26665208660745520763E+00
    0.29636909259523702698E+00
    0.27317162945334555468E+00
    0.27981664788867061100E+00
    0.25133722417315945696E+00
    0.26820645416223193314E+00
    0.26080602724182572194E+00
    0.23340182627666061776E+00
    0.23784925680488366861E+00
    0.23460406171188843971E+00
    0.23914994886105117589E+00
    0.23534672580207613435E+00
    0.23293619191375014577E+00
    0.24864262604168604898E+00
    0.23862360418923853067E+00
    0.25373378985657640827E+00
    0.24819116776019273241E+00
    0.25913213453684724730E+00
    0.29078886612657617317E+00
    0.25700045572534147009E+00
    0.25425595814147827767E+00
    0.25798681701634551544E+00
    0.26267638179395536024E+00
    0.46221687090406760046E+00
    0.46041222973864703860E+00
    0.40114929132292720393E+00
    0.75781953558442838315E+00
    0.53839937712356245036E+00
    0.47667556110896119881E+00
    0.42593276557123155301E+00
    0.50567814875182837131E+00
    0.49395739307076086400E+00
    0.46214081175283022729E+00
    0.37814014388642369635E+00
    0.40712906510127461202E+00
    0.44266163437667582770E+00
    0.40000346718991075523E+00
    0.25404594237485433883E+00
    0.26955626330422177706E+00
    0.27551794031161097598E+00
    0.27971870660441816581E+00
    0.27665286308854897257E+00
    0.30259632991091089949E+00
    0.29085951743857263452E+00
    0.27789935848937258323E+00
    0.66502395706524564112E+00
    0.50326248219852276478E+00
    0.28644360673091334712E+00
    0.32325061671801935681E+00
    0.30020390297943305713E+00
    0.29178236800784235205E+00
    0.32057776483616295948E+00
    0.37322629261758843988E+00
    0.34480189101992464451E+00
    0.30743884776250435253E+00
    0.24966497192933698179E+00
    0.29540363231847854841E+00
    0.27665661633344512671E+00
    0.30014084192688467168E+00
    0.29450923672550333166E+00
    0.27969852228530728278E+00
    0.30569311712894464694E+00
    0.31886455534651175769E+00
    0.26693589567806869089E+00
    0.26497666871973152292E+00
    0.27483959728275020318E+00
    0.26006757435433996983E+00
    0.29121293939118425564E+00
    0.26535212977941585732E+00
    0.25761654812444206852E+00
    0.25260936457303490021E+00
    0.25974039667005449639E+00
    0.25729619848742674160E+00
    0.23786994811624828650E+00
    0.23512971157071904660E+00
    0.23182278101789441371E+00
    0.23402252513599097750E+00
    0.23092206732227993360E+00
    0.23117301146525920386E+00
    0.23952395587508079622E+00
    0.24376874716955107547E+00
    0.55203455043831872739E+00
    0.63626435522575064407E+00
    0.25203997029721686429E+00
    0.26156614390132382209E+00
    0.30810620341675831746E+00
    0.28879674022979701098E+00
    0.40003888997962577800E+00
    0.29147284642594678550E+00
    0.29418835365522483238E+00
    0.26771151506919610430E+00
    0.32270421119460446224E+00
    0.30366285165802031631E+00
    0.48456337961585571605E+00
    0.43480980550471215462E+00
    0.28709339335253952763E+00
    0.29973613632735851553E+00
    0.57980919475168113397E+00
    0.50028300161746330765E+00
    0.69077824219126071625E+00
    0.59640735579977821601E+00
    0.53621600995432949777E+00
    0.44270508873103309178E+00
    0.27845980514683066342E+00
    0.30673174043779449782E+00
    0.26902804099667432247E+00
    0.28239160341541880150E+00
    0.28085739228962186553E+00
    0.28058328270565552343E+00
    0.29943870085968887773E+00
    0.28924626592051616569E+00
    0.27865153687553684270E+00
    0.31103837269316619851E+00
    0.26001859088039408485E+00
    0.28312650835865610377E+00
    0.29021844000333862912E+00
    0.32354356220206981209E+00