# vtk DataFile Version 3.0
LAPLACIEN  2D
ASCII
DATASET UNSTRUCTURED_GRID
 POINTS        1616  float
  0.45880792999999997       0.87913892999999999        0.0000000000000000     
  0.40372658000000000       0.18243693000000000        0.0000000000000000     
  0.52563972999999997       0.19039755999999999        0.0000000000000000     
  0.45642953000000003       0.24226190000000000        0.0000000000000000     
  0.51984098000000001       0.24548566999999999        0.0000000000000000     
  0.21212766999999999       0.18957676000000001        0.0000000000000000     
  0.28573643999999998       0.48586826999999999        0.0000000000000000     
  0.49667887999999999       0.82979849000000006        0.0000000000000000     
  0.22848407000000001       0.23366793000000000        0.0000000000000000     
  0.27860389000000002       0.86069733000000004        0.0000000000000000     
  0.36563702999999997       0.80971340999999997        0.0000000000000000     
  0.28045499000000002       0.80393031999999998        0.0000000000000000     
  0.40374228000000001       0.78127665000000002        0.0000000000000000     
  0.56160891999999996       0.55341227999999998        0.0000000000000000     
  0.37210935000000001       0.26787699999999998        0.0000000000000000     
  0.49899838000000002       0.57286409999999999        0.0000000000000000     
  0.41023869000000002       0.33464665999999998        0.0000000000000000     
  0.33484156999999998       0.29151022999999998        0.0000000000000000     
  0.46758665999999999       0.58262307999999996        0.0000000000000000     
  0.43303693999999998       0.36569945999999998        0.0000000000000000     
  0.25741280000000000       0.61805882999999995        0.0000000000000000     
  0.28853707000000001       0.59423020000000004        0.0000000000000000     
  0.67837254000000002       0.45038665999999999        0.0000000000000000     
  0.42159046000000000       0.50697913999999999        0.0000000000000000     
  0.60276470999999998       0.73940291000000002        0.0000000000000000     
  0.30758273000000003       0.77844542000000005        0.0000000000000000     
  0.45367541000000000       0.31842187000000000        0.0000000000000000     
  0.36974101999999998       0.35807864000000000        0.0000000000000000     
  0.26919625000000003       0.65312176000000000        0.0000000000000000     
  0.61908110999999999       0.42741791000000001        0.0000000000000000     
  0.54442267000000000       0.74200747000000000        0.0000000000000000     
  0.58930464999999999       0.41588288000000001        0.0000000000000000     
  0.51511633000000001       0.74331579000000003        0.0000000000000000     
  0.12878382999999999       0.33122940000000001        0.0000000000000000     
  0.15534365000000000       0.71749246000000000        0.0000000000000000     
  0.64877724999999997       0.30161799000000000        0.0000000000000000     
  0.58853643000000000       0.28101930000000003        0.0000000000000000     
  0.56390348000000001       0.30132482999999999        0.0000000000000000     
  0.29605991999999998       0.44474459999999999        0.0000000000000000     
  0.29900669000000002       0.52983276000000001        0.0000000000000000     
  0.55954318999999997       0.48654808999999999        0.0000000000000000     
  0.42341458999999998       0.38785072999999998        0.0000000000000000     
  0.45806291999999998       0.35892998999999998        0.0000000000000000     
  0.47820750000000001       0.31147424000000001        0.0000000000000000     
  0.36344222999999998       0.38139388000000002        0.0000000000000000     
  0.17186508000000000       0.28159534000000003        0.0000000000000000     
  0.18029876000000000       0.33292397000000001        0.0000000000000000     
  0.20696366999999999       0.71822465999999996        0.0000000000000000     
  0.61326404999999995       0.34468346000000000        0.0000000000000000     
  0.29887186999999998       0.42337377999999998        0.0000000000000000     
  0.33271837999999998       0.44383096000000000        0.0000000000000000     
  0.31835012000000001       0.54267131999999996        0.0000000000000000     
  0.54882964999999995       0.45462609999999998        0.0000000000000000     
  0.20448143999999999       0.28717446000000002        0.0000000000000000     
  0.20634120000000000       0.33378063000000002        0.0000000000000000     
  0.23301781999999999       0.71859421999999995        0.0000000000000000     
  0.58606499999999995       0.35199907000000002        0.0000000000000000     
  0.20841100000000001       0.45369578999999999        0.0000000000000000     
  0.24778198000000001       0.77708496000000005        0.0000000000000000     
  0.30748062999999998       0.61002621000000001        0.0000000000000000     
  0.23337332000000000       0.41981835000000001        0.0000000000000000     
  0.25985113999999998       0.75924943000000000        0.0000000000000000     
  0.24610213000000000       0.40254353999999998        0.0000000000000000     
  0.37350351999999998       0.50127178999999999        0.0000000000000000     
  0.43235204999999999       0.78236391000000005        0.0000000000000000     
  0.30749858000000002       0.28582627999999999        0.0000000000000000     
  0.30336816000000000       0.64635111000000001        0.0000000000000000     
  0.31418906000000002       0.43625961000000002        0.0000000000000000     
  0.27223414000000001       0.78063022000000004        0.0000000000000000     
  0.22829299000000000       0.75089561000000005        0.0000000000000000     
  0.26580239000000000       0.42989294000000000        0.0000000000000000     
  0.37369119000000001       0.51975733999999996        0.0000000000000000     
  0.39681665999999999       0.51027884000000001        0.0000000000000000     
  0.32086795000000001       0.65137668999999998        0.0000000000000000     
  0.31757218999999998       0.62987181000000003        0.0000000000000000     
  0.32959777000000001       0.42500900000000003        0.0000000000000000     
  0.24663835000000001       0.74537787000000000        0.0000000000000000     
  0.26354222999999999       0.41075105000000001        0.0000000000000000     
  0.28343712999999998       0.43221330000000002        0.0000000000000000     
  0.34682245000000000       0.43182289000000001        0.0000000000000000     
  0.35306810000000000       0.45344571000000000        0.0000000000000000     
  0.57327218000000002       0.15829040000000000        0.0000000000000000     
  0.51473097999999995       0.12621746000000000        0.0000000000000000     
  0.72829681999999996       0.40151571000000003        0.0000000000000000     
  0.42703184999999999       0.53501600999999999        0.0000000000000000     
  0.32612607999999998       0.75472421999999995        0.0000000000000000     
   9.9814849999999997E-002  0.28081352999999998        0.0000000000000000     
  0.13945825000000001       0.78732252999999996        0.0000000000000000     
  0.44199519999999998       0.38275643999999998        0.0000000000000000     
  0.40132215999999998       0.36508836000000000        0.0000000000000000     
  0.43963142999999999       0.34043466999999999        0.0000000000000000     
  0.47160058999999999       0.33493045999999999        0.0000000000000000     
  0.45615203999999998       0.28038164999999998        0.0000000000000000     
  0.34321279999999998       0.35314412000000001        0.0000000000000000     
  0.29178279000000001       0.56170810000000004        0.0000000000000000     
  0.49833080000000002       0.48416767999999999        0.0000000000000000     
  0.46386271000000001       0.46452802999999998        0.0000000000000000     
  0.44722043000000000       0.45300645000000000        0.0000000000000000     
  0.46562803000000003       0.44419790999999997        0.0000000000000000     
  0.43925322000000000       0.48229485999999999        0.0000000000000000     
  0.49117628000000002       0.45665803999999999        0.0000000000000000     
  0.43435156000000003       0.46523363000000001        0.0000000000000000     
  0.19405754000000000       0.31093060000000000        0.0000000000000000     
  0.22069087000000001       0.66905079000000001        0.0000000000000000     
  0.30776597999999999       0.59042684000000001        0.0000000000000000     
  0.29541507000000000       0.57849362000000004        0.0000000000000000     
  0.28335474999999999       0.61970232999999997        0.0000000000000000     
  0.29935165000000002       0.62852803999999995        0.0000000000000000     
  0.28459435999999999       0.64121777000000002        0.0000000000000000     
  0.26698675999999999       0.63435282999999998        0.0000000000000000     
  0.24031983000000001       0.64700659000000005        0.0000000000000000     
  0.33118850000000000       0.50233682999999996        0.0000000000000000     
  0.35257061000000001       0.51072803000000000        0.0000000000000000     
  0.29038973000000001       0.78732479000000000        0.0000000000000000     
  0.28737915000000003       0.76752330999999996        0.0000000000000000     
  0.21978159000000000       0.73315437000000006        0.0000000000000000     
  0.18119734000000001       0.76257752999999995        0.0000000000000000     
  0.20353571000000001       0.75186065999999996        0.0000000000000000     
  0.39122694000000002       0.49007234000000000        0.0000000000000000     
  0.59140473999999998       0.13507609000000001        0.0000000000000000     
  0.53156702000000000        9.7663528999999999E-002   0.0000000000000000     
  0.76346223999999996       0.39657278000000001        0.0000000000000000     
  0.41119013999999998       0.52354409999999996        0.0000000000000000     
   7.2558165999999993E-002  0.26885883999999999        0.0000000000000000     
  0.10497347000000000       0.79895936000000001        0.0000000000000000     
[...]
 CELL_DATA        2963
 SCALARS Cells_density float
 LOOKUP_TABLE default
    0.66996163031998545723E+00
    0.55007439744580544083E+00
    0.39540583966899001123E+00
    0.47944756368976537697E+00
    0.44253671845933995055E+00
    0.67234058258060103164E+00
    0.46906181582965050803E+00
    0.41228062006044408072E+00
    0.61597614524902910560E+00
    0.23292601151262096182E+00
    0.53644887778756478180E+00
    0.34775766682516967565E+00
    0.35377236055048827401E+00
    0.45726434448915581621E+00
    0.61354046968557440778E+00
    0.34431613419217543814E+00
    0.23493260866094209383E+00
    0.45589506531009205137E+00
    0.77224245583643025270E+00
    0.33224113166687668786E+00
    0.44540775547532718281E+00
    0.25915215949058367784E+00
    0.25287205696782971698E+00
    0.40000908846118404805E+00
    0.30682866156347488040E+00
    0.91032707482322883230E+00
    0.32394640164133664539E+00
    0.76581185154010467109E+00
    0.40148692860948753669E+00
    0.28077465806114160207E+00
    0.42981250956454286616E+00
    0.48708281173135820064E+00
    0.40753869173672613302E+00
    0.29631530678012568680E+00
    0.34320739417674506200E+00
    0.30052150960267726143E+00
    0.36309174127055487968E+00
    0.28317542640426385248E+00
    0.29870346556682991768E+00
    0.40004544733699115566E+00
    0.28761945160994173420E+00
    0.43751722203455073457E+00
    0.39999861775690676025E+00
    0.28877371691165931722E+00
    0.54141280327909668824E+00
    0.25675122606171252304E+00
    0.30066904820279199972E+00
    0.55927527676297783543E+00
    0.27959290991531421389E+00
    0.56584410824358777337E+00
    0.26631510724632845299E+00
    0.24274666211601875210E+00
    0.25637125032274576952E+00
    0.24739171588820385583E+00
    0.36151881793726592385E+00
    0.40009249380236044935E+00
    0.28215817410355165107E+00
    0.25127529280066979167E+00
    0.23707031131045158689E+00
    0.36878202916370822484E+00
    0.24258723523522573995E+00
    0.53233594947549145449E+00
    0.53751752642752392841E+00
    0.46661541879292356416E+00
    0.39999797270645492953E+00
    0.24976948496232581620E+00
    0.32942823086492334372E+00
    0.23984467263135039738E+00
    0.53666621131850933413E+00
    0.43781072994842057389E+00
    0.29325153937556058814E+00
    0.24661975331884278262E+00
    0.29207653367484814888E+00
    0.30873281306615135700E+00
    0.23194444278398376746E+00
    0.23186659240943166549E+00
    0.25357367663152752257E+00
    0.23340119694782257564E+00
    0.25803259700904113139E+00
    0.25437971579138618505E+00
    0.47524211226265217212E+00
    0.26287166434497433176E+00
    0.24000263915352251787E+00
    0.25636304551988864375E+00
    0.27421160832429614107E+00
    0.50246068234897722782E+00
    0.73767220737826133536E+00
    0.39999991954656050064E+00
    0.31757657836886593605E+00
    0.70454193740119186451E+00
    0.33810645642419961954E+00
    0.26547843589086589366E+00
    0.25142765359385688129E+00
    0.24808998924108746631E+00
    0.29418629093487852488E+00
    0.27261154893579075953E+00
    0.25438900545953302412E+00
    0.33116223203295180877E+00
    0.26896553403553408179E+00
    0.33606616331781358209E+00
    0.29899016898947350374E+00
    0.33146446783700839189E+00
    0.26437245349838522923E+00
    0.34030348400393395369E+00
    0.40002672139376915794E+00
    0.53885153933751728239E+00
    0.36112184866089291901E+00
    0.78014722152347970585E+00
    0.26108175580337628086E+00
    0.36411789275822908918E+00
    0.44929728053494261131E+00
    0.32927013201945021237E+00
    0.31494440219420855032E+00
    0.35815143442795055462E+00
    0.47365623299903902854E+00
    0.33863235950856518386E+00
    0.66466278051396965321E+00
    0.57825124224474711010E+00
    0.24953694748187549290E+00
    0.23702217373986039783E+00
    0.32952665941925579629E+00
    0.49129706722037103095E+00
    0.24209956845372873624E+00
    0.29451974145702314312E+00
    0.25257292534603265066E+00
    0.31303879065250733715E+00
    0.73046158862599230854E+00
    0.25402789201564396349E+00
    0.45517109720375975579E+00
    0.23727450998696580919E+00
    0.26089074475212503668E+00
    0.25603682029500340889E+00
    0.40433426511262199332E+00
    0.25822893014007336498E+00
    0.38812591121606898614E+00
    0.23878079754035652638E+00
    0.24003362701559047276E+00
    0.57712425062120487063E+00
    0.41185187625326941108E+00
    0.43525362834082204078E+00
    0.23585745422624324052E+00
    0.27884015564087782924E+00
    0.46220974539927806024E+00
    0.23977055832472271568E+00
    0.24564017307456742500E+00
    0.27437901730470570794E+00
    0.49933292650200283846E+00
    0.26537691837025811914E+00
    0.35785053454600435074E+00
    0.30629130316004493650E+00
    0.40000548732219076697E+00
    0.70694710793999915310E+00
    0.24599210182999073360E+00
    0.28026574090516370719E+00
    0.26946554951432105662E+00
    0.25653104688345523821E+00
    0.24920915967880261088E+00
    0.27304306060003591394E+00
    0.27370049103562688053E+00
    0.27045085863073142773E+00
    0.27347596890913722367E+00
    0.29713842954746255698E+00
    0.28912964948789310338E+00
    0.31976010446935343445E+00
    0.34238450934615177745E+00
    0.25238922655113488203E+00
    0.24805734915055877021E+00
    0.25069184880541961480E+00
    0.23860526205456852877E+00
    0.25790504681659176534E+00
    0.26128238136039289019E+00
    0.27821103830511828559E+00
    0.27056540517151594916E+00
    0.27323478522443683802E+00
    0.25755961563355950217E+00
    0.25120071544326694202E+00
    0.40427216711892771661E+00
    0.33691717582158003941E+00
    0.57744000570511622161E+00
    0.24180335732868643572E+00
    0.23312555285468608557E+00
    0.29196340817096416709E+00
    0.30470945780934582947E+00
    0.34774954596842172494E+00
    0.26098509302788513997E+00
    0.26362597633356421589E+00
    0.40003868253971952562E+00
    0.81781999803438065744E+00
    0.24339488539729739469E+00
    0.28652980703628150305E+00
    0.48707946787920913811E+00
    0.44452552919198962122E+00
    0.71060938796067496526E+00
    0.23982776426328836217E+00
    0.33642631054082183795E+00
    0.24655227963524434243E+00
    0.40624958290569546104E+00
    0.26147317516034035423E+00
    0.31832668679127923417E+00
    0.24900328563095525114E+00
    0.29774684299030396151E+00
    0.28314641444296789752E+00
    0.40456490961162155928E+00
    0.26982363394427144598E+00
    0.26232563199167485690E+00
    0.25757588570863293453E+00
    0.27805151079725226593E+00
    0.25675368661320091546E+00
    0.47343978429738342584E+00
    0.24040024739332660486E+00
    0.24891662882466175644E+00
    0.25929784859014098908E+00
    0.26377136493496422531E+00
    0.54846501571569006295E+00
    0.59591976835666315981E+00
    0.36246308530556020644E+00
    0.30140595520619262171E+00
    0.36441811111322436334E+00
    0.39993338217838103610E+00
    0.24692304906736423087E+00
    0.51901340632688519605E+00
    0.59446993147001603308E+00
    0.59289407780770897460E+00
    0.23798022715075048406E+00
    0.24237950935224908400E+00
    0.50866126708370396070E+00
    0.48896758373745535797E+00
    0.26277085708674813302E+00
    0.26227620597221223964E+00
    0.32309270575962562022E+00
    0.25402834620802589027E+00
    0.31040386739542463745E+00
    0.35661905699789053781E+00
    0.40004509418800004994E+00
    0.32312268298925017618E+00
    0.33915555837251726290E+00
    0.68480987253770142509E+00
    0.40018135002214783036E+00
    0.27935006490589209260E+00
    0.47607130839135819445E+00
    0.24702776252514299649E+00
    0.27890533358336833114E+00
    0.40016494588706180702E+00
    0.40432641139511821260E+00
    0.25127509114781709787E+00
    0.97285530573878986615E+00
    0.33855179475848418136E+00
    0.24321534319921789269E+00
    0.85758738088146790890E+00
    0.36361197226233699098E+00
    0.25215305152988393145E+00
    0.37097044713872967536E+00
    0.83848139070324811950E+00
    0.44157109878285488724E+00
    0.26869237886008939808E+00
    0.31126998105795783411E+00
    0.27190918321539442326E+00
    0.73486854670089185593E+00
    0.25354846060622043824E+00
    0.32963755346938838908E+00
    0.26084063027220139031E+00
    0.25875171768716431764E+00
    0.25217207884089382075E+00
    0.27539533415365546887E+00
    0.24881629662594889618E+00
    0.24784638388620500171E+00
    0.41648277199546179794E+00
    0.26247049705253300278E+00
    0.28403528735882643819E+00
    0.25250623587604947851E+00
    0.35225098113670566535E+00
    0.32974082148927758018E+00
    0.25348845327053981524E+00
    0.27303566130472056717E+00
    0.27185061028183221676E+00
    0.43783383856620267105E+00
    0.28264631509738663562E+00
    0.35327778875363408106E+00
    0.23892834857524636316E+00
    0.26511424212644191245E+00
    0.55506429183901240254E+00
    0.24669582922406352310E+00
    0.40002156582875536550E+00
    0.30443017674221045654E+00
    0.26383833793254962696E+00
    0.24479013275980407438E+00
    0.39998140295817768974E+00
    0.26738410935723821993E+00
    0.88911514171514416383E+00
    0.31075122566051655015E+00
    0.31659308348452708248E+00
    0.31497105046549073171E+00
    0.30977240394095001408E+00
    0.41468406901075222093E+00
    0.29136589459679018699E+00
    0.39989810666577357834E+00
    0.25596047018774786830E+00
    0.28458069190881485344E+00
    0.42977066445464867650E+00
    0.29300682021924889797E+00
    0.29150170064414865356E+00
    0.29027899666631540310E+00
    0.32001645738619499681E+00
    0.55506976967103671683E+00
    0.41203216240881462840E+00
    0.24504979674616861329E+00
    0.26027325849684068704E+00
    0.27982142837099061028E+00
    0.29602386672109182175E+00
    0.40008015373947924953E+00
    0.23612518795016143591E+00
    0.27902718978034701802E+00
    0.40009430713988780592E+00
    0.27620011632731089612E+00
    0.39410151319184910657E+00
    0.54709289944450689713E+00
    0.26989470699397710707E+00
    0.57020052411147215121E+00
    0.44316094167747721588E+00
    0.34636385159663413136E+00
    0.33954885718404470563E+00
    0.31638628549931402389E+00
    0.34746988653640498157E+00
    0.32570013719687407328E+00
    0.60253684698736298397E+00
    0.33591167503826141472E+00
    0.40001729474861147384E+00
    0.39992719375335267218E+00
    0.41715422519481482055E+00
    0.67973545286304548618E+00
    0.23983059193824413091E+00
    0.24889527409854711459E+00
    0.53934038439297626866E+00
    0.49261174601762514058E+00
    0.27479668786508748557E+00
    0.28386266334326570870E+00
    0.25364767538567528637E+00
    0.33094322527076530660E+00
    0.46053371564669398630E+00
    0.33829245027013760128E+00
    0.33674688393992602276E+00
    0.51184720586115839414E+00
    0.80554418577288489089E+00
    0.34099001110691717908E+00
    0.24615730353168233102E+00
    0.26829838667464578350E+00
    0.25668413230608466691E+00
    0.33822395751209805015E+00
    0.31208448479471745385E+00
    0.62316183972517180667E+00
    0.57942696268089033396E+00
    0.41818605137776021508E+00
    0.40435379766375828536E+00
    0.25454572443206413546E+00
    0.24633906125234644735E+00
    0.24480657883264977936E+00
    0.25686941809645613688E+00
    0.25443877670303960414E+00
    0.26077646639375690052E+00
    0.27503477901798906169E+00
    0.26082330047967905440E+00
    0.26561561960402818583E+00
    0.29843244677605423876E+00
    0.27401390501086175799E+00
    0.24966671778075344434E+00
    0.26668011306163630358E+00
    0.26671166863370893152E+00
    0.26067837812816374576E+00
    0.45972237392137316192E+00
    0.24939665043738559747E+00
    0.25932778223669744611E+00
    0.25215750988502239061E+00
    0.25449824590217690057E+00
    0.25430509984943738822E+00
    0.26695571949981328208E+00
    0.38301877672233619609E+00
    0.26004671636454668171E+00
    0.24958796188179044329E+00
    0.26339338300964582062E+00
    0.28041327503353419281E+00
    0.25404603060011793358E+00
    0.24923756734825824877E+00
    0.39998198556545133675E+00
    0.34983263920269341840E+00
    0.35969402319069426754E+00
    0.30374072330495405225E+00
    0.25557620946319797861E+00
    0.25084933310567597564E+00
    0.26809319517710084035E+00
    0.25164972630347470783E+00
    0.25901378902645083580E+00
    0.26881860905376392390E+00
    0.26821882411702152593E+00
    0.26257613919240235800E+00
    0.27277387607229036659E+00
    0.28094364785510733684E+00
    0.31073965862950908567E+00
    0.27752720147367465620E+00
    0.63074897803875895619E+00
    0.28974740341812371680E+00
    0.24269917073047328482E+00
    0.23700816586702402877E+00
    0.23214397312911430604E+00
    0.23363034842701255189E+00
    0.36296780640042597410E+00
    0.35768780518816761793E+00
    0.34587972937825933739E+00
    0.31867324825272125288E+00
    0.35337832337760100021E+00
    0.39259621070173683632E+00
    0.39999427950556515343E+00
    0.51885979808848836647E+00
    0.40000285729791223988E+00
    0.46668063888629307545E+00
    0.24522685730018276007E+00
    0.25946393691893138156E+00
    0.69952468294640912649E+00
    0.23534472291028865620E+00
    0.52264170407261401063E+00
    0.59055498056582700350E+00
    0.45089440319260482015E+00
    0.84567434208531599982E+00
    0.78531756667786933868E+00
    0.25326669827319531203E+00
    0.25705560813863526093E+00
    0.70060587616156044799E+00
    0.31075615259813776925E+00
    0.67177796759642349755E+00
    0.65210469186938535557E+00
    0.54439108102369226927E+00
    0.25460899821115856589E+00
    0.25134505198221418487E+00
    0.24430494101526525896E+00
    0.25084435717491876394E+00
    0.25650668902692475015E+00
    0.25018910113420733676E+00
    0.24546024499751792347E+00
    0.23947576532361883328E+00
    0.24095285737355220945E+00
    0.23875055057513061563E+00
    0.24354973749328251431E+00
    0.24259338667199373263E+00
    0.26257174614444567240E+00
    0.27677762710940811974E+00
    0.26808922391865508406E+00
    0.26339290683277127858E+00
    0.26517846888441037878E+00
    0.26718439501115559542E+00
    0.27134891018029022591E+00
    0.29071528263844859108E+00
    0.26818987407283861879E+00
    0.30551480683855009035E+00
    0.29809612910214700054E+00
    0.31148594664885409511E+00
    0.24688803426690794640E+00
    0.25162800129033058294E+00
    0.24271740173088279802E+00
    0.25700537821361629787E+00
    0.24693503979938702386E+00
    0.24951257750255698142E+00
    0.43037929866519358812E+00
    0.42055890897730824340E+00
    0.45318731118785571255E+00
    0.43940223132228506397E+00
    0.40000387693493505425E+00
    0.47318338120250968970E+00
    0.38269720518334632287E+00
    0.40001195938173345068E+00
    0.33162459401628618938E+00
    0.32710130876582405035E+00
    0.40496856871507486142E+00
    0.31671102252726313075E+00
    0.27904831500941518208E+00
    0.27582674525587402847E+00
    0.31508467224385106054E+00
    0.40001275326955376688E+00
    0.29802237044772805774E+00
    0.28565492386871915720E+00
    0.29540186724695510767E+00
    0.25847569113322221845E+00
    0.28515807623818478778E+00
    0.27869393261532193762E+00
    0.24490931123354184318E+00
    0.23510189539926104607E+00
    0.25041100975989211141E+00
    0.24744295582530767552E+00
    0.23767104157167404099E+00
    0.23436782682554349599E+00
    0.23971206013762982878E+00
    0.24557927337239746080E+00
    0.24271370170738307270E+00
    0.24124695426418893418E+00
    0.31286776800752985617E+00
    0.32014710374766580658E+00
    0.42018797745079888850E+00
    0.41920640323489855028E+00
    0.39999545489943721943E+00
    0.39999806871855725365E+00
    0.25288673823303486898E+00
    0.24876038756069304703E+00
    0.57706319953804952050E+00
    0.57809590378111763709E+00
    0.52811673657105362434E+00
    0.91606791678302845749E+00
    0.80039582111037188561E+00
    0.73926441562333211621E+00
    0.75311818161616694844E+00
    0.66717884897003920663E+00
    0.25669838976418152265E+00
    0.28545063769075862403E+00
    0.27210948461469702808E+00
    0.29002402624083301053E+00
    0.47049151209092221482E+00
    0.56003790210566672947E+00
    0.47567822043010810074E+00
    0.45543272498619047362E+00
    0.39999535944426090062E+00
    0.39999819788915430552E+00
    0.35103032492673585940E+00
    0.34002552297561822181E+00
    0.33357898489051107660E+00
    0.31839050746892788579E+00
    0.34291895134179500859E+00
    0.31673270991300356281E+00
    0.27821941213240497515E+00
    0.26657966847199293658E+00
    0.29633401327446506901E+00
    0.27324512694145497438E+00
    0.27995118312707917285E+00
    0.25137760992451102515E+00
    0.26834095443838590356E+00
    0.26072244893444762592E+00
    0.23341931424410891638E+00
    0.23787603307499766148E+00
    0.23467030327660659550E+00
    0.23918709287330192081E+00
    0.23531332638520838230E+00
    0.23297474566897757864E+00
    0.24866495265330207376E+00
    0.23870874390574378654E+00
    0.25378730384800568531E+00
    0.24823306777742629170E+00
    0.25917450807424941006E+00
    0.29084499432497967764E+00
    0.25701397210463355902E+00
    0.25429930808313849777E+00
    0.25802483041385609885E+00
    0.26270250864552258108E+00
    0.46113743963850256646E+00
    0.45940515613332222333E+00
    0.40132073916237637201E+00
    0.75548941092220911475E+00
    0.53767411133624587460E+00
    0.47566415750625107295E+00
    0.42545257863035579327E+00
    0.50494162472332482228E+00
    0.49284774492268734747E+00
    0.46130634017310573336E+00
    0.38068255028459641043E+00
    0.40670011117695442637E+00
    0.44128326022002445361E+00
    0.40000148007731073374E+00
    0.25401219881695824565E+00
    0.26956886742498720189E+00
    0.27555171049112781034E+00
    0.27979581987312895919E+00
    0.27662328275204850492E+00
    0.30253416823127510238E+00
    0.29101544032195031386E+00
    0.27789158736833674546E+00
    0.78071623181926774748E+00
    0.43045707000666733055E+00
    0.28651486542920628908E+00
    0.32337033562382644369E+00
    0.30038135861665482551E+00
    0.29191847214863569926E+00
    0.32045412567087855349E+00
    0.40000780504202682053E+00
    0.34609767358875592747E+00
    0.30756268020263466401E+00
    0.24967312965266311164E+00
    0.29530693720021466975E+00
    0.27663874076560229787E+00
    0.30001426165951972092E+00
    0.29468174448446021740E+00
    0.27975659198783742188E+00
    0.30566706081971789510E+00
    0.31887321995287715160E+00
    0.26697005478373853071E+00
    0.26491817187220967345E+00
    0.27483647575667641272E+00
    0.26016182816870542238E+00
    0.29127348440370870453E+00
    0.26530296175924172886E+00
    0.25763696851104517238E+00
    0.25265072209272537718E+00
    0.25984875538205515211E+00
    0.25723915828870103084E+00
    0.23797251625469989511E+00
    0.23511346636592755921E+00
    0.23190549287419903735E+00
    0.23409002384676708131E+00
    0.24515499310431188018E+00
    0.23319473972934642858E+00
    0.23953265868476419920E+00
    0.24382976056503261053E+00
    0.55096364709395784232E+00
    0.63456313480561155060E+00
    0.25208582968180809347E+00
    0.26159666793062463785E+00
    0.30812845136436228799E+00
    0.28892800546576313803E+00
    0.39999160135864608723E+00
    0.29152525455494793238E+00
    0.29434163691622677872E+00
    0.26764481169558246298E+00
    0.32275042385087088226E+00
    0.30366692548936974339E+00
    0.48374570031860714137E+00
    0.43420032346743625551E+00
    0.28705178128634278867E+00
    0.29974417921127094466E+00
    0.57761349468806189034E+00
    0.49914953221806024342E+00
    0.69037335787119658015E+00
    0.59495235157724712938E+00
    0.53605363695536223378E+00
    0.44130120025740476875E+00
    0.27853755262860718789E+00
    0.30676890260824912771E+00
    0.26930182361831600524E+00
    0.28236807911007211214E+00
    0.28100902458766385816E+00
    0.28062632063642983793E+00
    0.29939232956838446320E+00
    0.28926629199490394573E+00
    0.27876676520036858253E+00
    0.31092670495814206388E+00
    0.26003125896824302865E+00
    0.28315519235320946168E+00
    0.29028854307733320539E+00
    0.32466309938783749489E+00