# vtk DataFile Version 3.0
LAPLACIEN  2D
ASCII
DATASET UNSTRUCTURED_GRID
 POINTS        1616  float
  0.45880792999999997       0.87913892999999999        0.0000000000000000     
  0.40372658000000000       0.18243693000000000        0.0000000000000000     
  0.52563972999999997       0.19039755999999999        0.0000000000000000     
  0.45642953000000003       0.24226190000000000        0.0000000000000000     
  0.51984098000000001       0.24548566999999999        0.0000000000000000     
  0.21212766999999999       0.18957676000000001        0.0000000000000000     
  0.28573643999999998       0.48586826999999999        0.0000000000000000     
  0.49667887999999999       0.82979849000000006        0.0000000000000000     
  0.22848407000000001       0.23366793000000000        0.0000000000000000     
  0.27860389000000002       0.86069733000000004        0.0000000000000000     
  0.36563702999999997       0.80971340999999997        0.0000000000000000     
  0.28045499000000002       0.80393031999999998        0.0000000000000000     
  0.40374228000000001       0.78127665000000002        0.0000000000000000     
  0.56160891999999996       0.55341227999999998        0.0000000000000000     
  0.37210935000000001       0.26787699999999998        0.0000000000000000     
  0.49899838000000002       0.57286409999999999        0.0000000000000000     
  0.41023869000000002       0.33464665999999998        0.0000000000000000     
  0.33484156999999998       0.29151022999999998        0.0000000000000000     
  0.46758665999999999       0.58262307999999996        0.0000000000000000     
  0.43303693999999998       0.36569945999999998        0.0000000000000000     
  0.25741280000000000       0.61805882999999995        0.0000000000000000     
  0.28853707000000001       0.59423020000000004        0.0000000000000000     
  0.67837254000000002       0.45038665999999999        0.0000000000000000     
  0.42159046000000000       0.50697913999999999        0.0000000000000000     
  0.60276470999999998       0.73940291000000002        0.0000000000000000     
  0.30758273000000003       0.77844542000000005        0.0000000000000000     
  0.45367541000000000       0.31842187000000000        0.0000000000000000     
  0.36974101999999998       0.35807864000000000        0.0000000000000000     
  0.26919625000000003       0.65312176000000000        0.0000000000000000     
  0.61908110999999999       0.42741791000000001        0.0000000000000000     
  0.54442267000000000       0.74200747000000000        0.0000000000000000     
  0.58930464999999999       0.41588288000000001        0.0000000000000000     
  0.51511633000000001       0.74331579000000003        0.0000000000000000     
  0.12878382999999999       0.33122940000000001        0.0000000000000000     
  0.15534365000000000       0.71749246000000000        0.0000000000000000     
  0.64877724999999997       0.30161799000000000        0.0000000000000000     
  0.58853643000000000       0.28101930000000003        0.0000000000000000     
  0.56390348000000001       0.30132482999999999        0.0000000000000000     
  0.29605991999999998       0.44474459999999999        0.0000000000000000     
  0.29900669000000002       0.52983276000000001        0.0000000000000000     
  0.55954318999999997       0.48654808999999999        0.0000000000000000     
  0.42341458999999998       0.38785072999999998        0.0000000000000000     
  0.45806291999999998       0.35892998999999998        0.0000000000000000     
  0.47820750000000001       0.31147424000000001        0.0000000000000000     
  0.36344222999999998       0.38139388000000002        0.0000000000000000     
  0.17186508000000000       0.28159534000000003        0.0000000000000000     
  0.18029876000000000       0.33292397000000001        0.0000000000000000     
  0.20696366999999999       0.71822465999999996        0.0000000000000000     
  0.61326404999999995       0.34468346000000000        0.0000000000000000     
  0.29887186999999998       0.42337377999999998        0.0000000000000000     
  0.33271837999999998       0.44383096000000000        0.0000000000000000     
  0.31835012000000001       0.54267131999999996        0.0000000000000000     
  0.54882964999999995       0.45462609999999998        0.0000000000000000     
  0.20448143999999999       0.28717446000000002        0.0000000000000000     
  0.20634120000000000       0.33378063000000002        0.0000000000000000     
  0.23301781999999999       0.71859421999999995        0.0000000000000000     
  0.58606499999999995       0.35199907000000002        0.0000000000000000     
  0.20841100000000001       0.45369578999999999        0.0000000000000000     
  0.24778198000000001       0.77708496000000005        0.0000000000000000     
  0.30748062999999998       0.61002621000000001        0.0000000000000000     
  0.23337332000000000       0.41981835000000001        0.0000000000000000     
  0.25985113999999998       0.75924943000000000        0.0000000000000000     
  0.24610213000000000       0.40254353999999998        0.0000000000000000     
  0.37350351999999998       0.50127178999999999        0.0000000000000000     
  0.43235204999999999       0.78236391000000005        0.0000000000000000     
  0.30749858000000002       0.28582627999999999        0.0000000000000000     
  0.30336816000000000       0.64635111000000001        0.0000000000000000     
  0.31418906000000002       0.43625961000000002        0.0000000000000000     
  0.27223414000000001       0.78063022000000004        0.0000000000000000     
  0.22829299000000000       0.75089561000000005        0.0000000000000000     
  0.26580239000000000       0.42989294000000000        0.0000000000000000     
  0.37369119000000001       0.51975733999999996        0.0000000000000000     
  0.39681665999999999       0.51027884000000001        0.0000000000000000     
  0.32086795000000001       0.65137668999999998        0.0000000000000000     
  0.31757218999999998       0.62987181000000003        0.0000000000000000     
  0.32959777000000001       0.42500900000000003        0.0000000000000000     
  0.24663835000000001       0.74537787000000000        0.0000000000000000     
  0.26354222999999999       0.41075105000000001        0.0000000000000000     
  0.28343712999999998       0.43221330000000002        0.0000000000000000     
  0.34682245000000000       0.43182289000000001        0.0000000000000000     
  0.35306810000000000       0.45344571000000000        0.0000000000000000     
  0.57327218000000002       0.15829040000000000        0.0000000000000000     
  0.51473097999999995       0.12621746000000000        0.0000000000000000     
  0.72829681999999996       0.40151571000000003        0.0000000000000000     
  0.42703184999999999       0.53501600999999999        0.0000000000000000     
  0.32612607999999998       0.75472421999999995        0.0000000000000000     
   9.9814849999999997E-002  0.28081352999999998        0.0000000000000000     
  0.13945825000000001       0.78732252999999996        0.0000000000000000     
  0.44199519999999998       0.38275643999999998        0.0000000000000000     
  0.40132215999999998       0.36508836000000000        0.0000000000000000     
  0.43963142999999999       0.34043466999999999        0.0000000000000000     
  0.47160058999999999       0.33493045999999999        0.0000000000000000     
  0.45615203999999998       0.28038164999999998        0.0000000000000000     
  0.34321279999999998       0.35314412000000001        0.0000000000000000     
  0.29178279000000001       0.56170810000000004        0.0000000000000000     
  0.49833080000000002       0.48416767999999999        0.0000000000000000     
  0.46386271000000001       0.46452802999999998        0.0000000000000000     
  0.44722043000000000       0.45300645000000000        0.0000000000000000     
  0.46562803000000003       0.44419790999999997        0.0000000000000000     
  0.43925322000000000       0.48229485999999999        0.0000000000000000     
  0.49117628000000002       0.45665803999999999        0.0000000000000000     
  0.43435156000000003       0.46523363000000001        0.0000000000000000     
  0.19405754000000000       0.31093060000000000        0.0000000000000000     
  0.22069087000000001       0.66905079000000001        0.0000000000000000     
  0.30776597999999999       0.59042684000000001        0.0000000000000000     
  0.29541507000000000       0.57849362000000004        0.0000000000000000     
  0.28335474999999999       0.61970232999999997        0.0000000000000000     
  0.29935165000000002       0.62852803999999995        0.0000000000000000     
  0.28459435999999999       0.64121777000000002        0.0000000000000000     
  0.26698675999999999       0.63435282999999998        0.0000000000000000     
  0.24031983000000001       0.64700659000000005        0.0000000000000000     
  0.33118850000000000       0.50233682999999996        0.0000000000000000     
  0.35257061000000001       0.51072803000000000        0.0000000000000000     
  0.29038973000000001       0.78732479000000000        0.0000000000000000     
  0.28737915000000003       0.76752330999999996        0.0000000000000000     
  0.21978159000000000       0.73315437000000006        0.0000000000000000     
  0.18119734000000001       0.76257752999999995        0.0000000000000000     
  0.20353571000000001       0.75186065999999996        0.0000000000000000     
  0.39122694000000002       0.49007234000000000        0.0000000000000000     
  0.59140473999999998       0.13507609000000001        0.0000000000000000     
  0.53156702000000000        9.7663528999999999E-002   0.0000000000000000     
  0.76346223999999996       0.39657278000000001        0.0000000000000000     
  0.41119013999999998       0.52354409999999996        0.0000000000000000     
   7.2558165999999993E-002  0.26885883999999999        0.0000000000000000     
  0.10497347000000000       0.79895936000000001        0.0000000000000000     
[...]
 CELL_DATA        2963
 SCALARS Cells_density float
 LOOKUP_TABLE default
    0.67530142573648088700E+00
    0.55729198404309343573E+00
    0.38289420385166217375E+00
    0.48085454713509367952E+00
    0.44637808272116891173E+00
    0.67462268822125626144E+00
    0.46978064058045215790E+00
    0.41638946691272699097E+00
    0.62030895514526562806E+00
    0.23135455416821126828E+00
    0.54111600438129614510E+00
    0.34628044204604108147E+00
    0.35431111274578952486E+00
    0.46106425764584929583E+00
    0.61667289776612566055E+00
    0.34337265398284566587E+00
    0.23492900790710269376E+00
    0.45846488951160396796E+00
    0.77728453697414290335E+00
    0.33253308965915850948E+00
    0.44868747026599475891E+00
    0.23588433309578282771E+00
    0.23679480196294908079E+00
    0.37422129845225915457E+00
    0.30612180443867120783E+00
    0.93279726802303086775E+00
    0.32406188449123601858E+00
    0.77321031922178529161E+00
    0.40294456757389568446E+00
    0.28065651587465245687E+00
    0.44905762183173547619E+00
    0.48770534899878786872E+00
    0.41197704988742561705E+00
    0.29637359637624677289E+00
    0.34311954744798889294E+00
    0.30087333155243112248E+00
    0.36308580613563146144E+00
    0.28293587882753334917E+00
    0.29880564389849767482E+00
    0.36457607642647543722E+00
    0.28774668250762802657E+00
    0.44010357488469736831E+00
    0.36202961315224430061E+00
    0.28912927335427462960E+00
    0.54251504320067256426E+00
    0.25651947018729848171E+00
    0.30036376479182352872E+00
    0.56046911936455867664E+00
    0.28001429637632907488E+00
    0.56682403537405245952E+00
    0.26609560424020872738E+00
    0.24261108111414930733E+00
    0.25643001972729739801E+00
    0.24733304953573370666E+00
    0.36176067997249544694E+00
    0.34576736288700038457E+00
    0.28236469052959206616E+00
    0.25132407141540347162E+00
    0.23703016648935043564E+00
    0.36855206474337959266E+00
    0.24250102335981094104E+00
    0.53818931026376060078E+00
    0.53878681060757982468E+00
    0.46702898509939549943E+00
    0.39214293328063282162E+00
    0.24978659995856447584E+00
    0.32856261117737983746E+00
    0.23968806805508999225E+00
    0.30332322418117435570E+00
    0.43962773876945887563E+00
    0.29324202777030383693E+00
    0.24659425849180791057E+00
    0.29203600118011530107E+00
    0.30861233823949163479E+00
    0.23188275234165800498E+00
    0.23181105741510929508E+00
    0.23347664586743599457E+00
    0.23331831398566912905E+00
    0.25799011567174723325E+00
    0.25458862721169028820E+00
    0.47592395293765399344E+00
    0.26266318561949925092E+00
    0.24000284225246773517E+00
    0.23054431699890884366E+00
    0.27404906557477609619E+00
    0.50786618292899177174E+00
    0.74035931130026866320E+00
    0.39421475013837137258E+00
    0.31662700612993194271E+00
    0.70716868617676109654E+00
    0.33787117803153315920E+00
    0.26558749037140844118E+00
    0.23616187551336467743E+00
    0.24783305595676763389E+00
    0.29426578578484369197E+00
    0.27260769604006179767E+00
    0.23383577391801760315E+00
    0.33032671655771828068E+00
    0.26889512422763472976E+00
    0.33526889279220750684E+00
    0.29904027052463527658E+00
    0.33169157512741587190E+00
    0.26433275712810289093E+00
    0.34022665490460946014E+00
    0.36246631246945210103E+00
    0.54028275894787680667E+00
    0.36075771130908190765E+00
    0.78475848901917311107E+00
    0.26103552327070567163E+00
    0.36376130638575365772E+00
    0.45244355589569712484E+00
    0.32821204243924989585E+00
    0.31485691365476548009E+00
    0.35825406645940882644E+00
    0.47458321010043313937E+00
    0.33855773574080966215E+00
    0.66595466067206132710E+00
    0.57859997355604153579E+00
    0.23044644810643036270E+00
    0.23675052617910358199E+00
    0.32940553651205495278E+00
    0.49293322484149743046E+00
    0.24201614331110141154E+00
    0.29430975653674190662E+00
    0.25255805488611238196E+00
    0.31273552607827648231E+00
    0.73241155557573145440E+00
    0.25408653814872389498E+00
    0.48307006344404329612E+00
    0.23727801045577245898E+00
    0.26080041328537811873E+00
    0.25592949862772007563E+00
    0.35837705695667521066E+00
    0.25756728377870524715E+00
    0.34789513101556651664E+00
    0.23877238731720012987E+00
    0.23998427936224434043E+00
    0.60206215470673263290E+00
    0.41340423356897981755E+00
    0.46073590888999016446E+00
    0.23578243080499197704E+00
    0.27886680852037687428E+00
    0.79642913063282461117E+00
    0.23958547665143087313E+00
    0.24556392504070173599E+00
    0.27413241526267240200E+00
    0.50282049259256589302E+00
    0.26533389840182136643E+00
    0.35780035490458722558E+00
    0.30604149715269718390E+00
    0.40742625498913292992E+00
    0.29393989202662296201E+00
    0.24596429845723813412E+00
    0.28043277453025811097E+00
    0.26905913555092214606E+00
    0.25647356233406104487E+00
    0.24918555221146956868E+00
    0.27276965968467586920E+00
    0.27355166041790862641E+00
    0.27030361631628024854E+00
    0.27347593246504098285E+00
    0.29696589771078196751E+00
    0.28873956138969569807E+00
    0.31923742746738537068E+00
    0.34263604103663031220E+00
    0.25235986330253773469E+00
    0.24804917825966008027E+00
    0.25040207605898590071E+00
    0.23136550735972261084E+00
    0.25787914398588085430E+00
    0.23058469723021263187E+00
    0.27819840244031152077E+00
    0.27025652338906691607E+00
    0.27309198422876163059E+00
    0.25742089284234803692E+00
    0.25120067861825357003E+00
    0.40932600914190203634E+00
    0.33583891517229469414E+00
    0.58361221450820954804E+00
    0.24180265900128500300E+00
    0.23119846222861462071E+00
    0.29216908804598651361E+00
    0.30467134139813417670E+00
    0.34798826812157440669E+00
    0.26110232395405275074E+00
    0.26361677911822289921E+00
    0.37752977264786341527E+00
    0.84828064736626374032E+00
    0.24334569287051713293E+00
    0.28626861077631221564E+00
    0.49163082575746641645E+00
    0.33353983668351888658E+00
    0.71366425427374569068E+00
    0.23984025213086693218E+00
    0.33475898303841877812E+00
    0.24647476256442413245E+00
    0.32655773941507826308E+00
    0.26139629997324098643E+00
    0.31678691637064282371E+00
    0.24897201541889327214E+00
    0.29772722135672602395E+00
    0.28289364474579725695E+00
    0.40647789452977850511E+00
    0.26970809520433619566E+00
    0.76572528403629269711E+00
    0.76170357590189496921E+00
    0.27801313318148263010E+00
    0.24110002014215312083E+00
    0.30179125064017531255E+00
    0.24019798655771176787E+00
    0.24892449602250157903E+00
    0.23744097194192587130E+00
    0.76346211226498861269E+00
    0.55312310264652209124E+00
    0.60625455938448524762E+00
    0.36213801528084349490E+00
    0.30153569314337758112E+00
    0.36322738898007650432E+00
    0.37572392397492260230E+00
    0.24676800059481265870E+00
    0.52497107390704111918E+00
    0.60481065189522342784E+00
    0.60816271089698215047E+00
    0.23801625866489609096E+00
    0.24240911759630490163E+00
    0.51328246920109987794E+00
    0.50746263279116299305E+00
    0.26267518605896467143E+00
    0.26229545941703813483E+00
    0.32115186008849960775E+00
    0.25398680733337264392E+00
    0.30987526858803621232E+00
    0.35639945503175168851E+00
    0.36199870084142077298E+00
    0.32287052688989886784E+00
    0.33971999065603614154E+00
    0.68662207886601134277E+00
    0.34739479999776190500E+00
    0.77139294397629654121E+00
    0.28859990374730853935E+00
    0.24704393542458352728E+00
    0.27886325212283757935E+00
    0.38309032261344216908E+00
    0.33650781498188464536E+00
    0.23235421412269333108E+00
    0.97456775466113276796E+00
    0.33889755031817336839E+00
    0.24296727188468503211E+00
    0.89924388121516907191E+00
    0.31235713132775250189E+00
    0.23001609473274309270E+00
    0.36273702736937352142E+00
    0.85867569395270393340E+00
    0.27697662383348659043E+00
    0.26867503724273256172E+00
    0.31091317347987335040E+00
    0.27176580458148147379E+00
    0.78350742354344893315E+00
    0.23083256145822692029E+00
    0.32979011498211374676E+00
    0.23022673773989499324E+00
    0.23070834258776889980E+00
    0.23049211811272685146E+00
    0.27529804996936896311E+00
    0.23315011278357550273E+00
    0.24783185606872518147E+00
    0.26578255510823872720E+00
    0.23069125492701164637E+00
    0.28422903213080580320E+00
    0.23720299672817524161E+00
    0.35218726979856479486E+00
    0.32793643610733297367E+00
    0.23095863183655135353E+00
    0.27316195050478642159E+00
    0.27182855644717429655E+00
    0.43988781190763442952E+00
    0.28266780794278373312E+00
    0.35278495331147591285E+00
    0.23871491408682615765E+00
    0.26500283873287483472E+00
    0.55792648385370235964E+00
    0.24645903487563086687E+00
    0.38683870540074999367E+00
    0.30407365710603428965E+00
    0.26380493627895834630E+00
    0.24480500354458895051E+00
    0.33003489831759230677E+00
    0.26801527352085957601E+00
    0.91302345399654827318E+00
    0.31057511737925619366E+00
    0.31666142127742658019E+00
    0.31493597577208726213E+00
    0.30972439682708680087E+00
    0.41599207197916693302E+00
    0.29140181932728903558E+00
    0.39281293709252168567E+00
    0.25574900776613268549E+00
    0.28446234382695034792E+00
    0.77619089571004562522E+00
    0.29316962661058804107E+00
    0.29148092251618690218E+00
    0.29028758839978296979E+00
    0.31981619933890070850E+00
    0.57676960692182988044E+00
    0.43241227516057800795E+00
    0.24502967948749362903E+00
    0.25954984357529481409E+00
    0.27985303810989703432E+00
    0.24530537607704483438E+00
    0.37576247417332908629E+00
    0.23619760110078760751E+00
    0.27894689128927441235E+00
    0.41313670096548088528E+00
    0.27614526496372360231E+00
    0.37929340750891837875E+00
    0.54765927585934948141E+00
    0.26978566828843636438E+00
    0.61260268708319465247E+00
    0.50338439298860560012E+00
    0.34615660340037696097E+00
    0.33979162428565190535E+00
    0.31609630839057989427E+00
    0.34753532719855323441E+00
    0.32594560606077105369E+00
    0.61077442125120784411E+00
    0.33494929794803063317E+00
    0.40354735561064364324E+00
    0.34782902388118380754E+00
    0.43560716019120587772E+00
    0.69027274742166155885E+00
    0.23977816437817020545E+00
    0.24894977152378716667E+00
    0.54433502615735984698E+00
    0.49616653879018363105E+00
    0.27467826426604585732E+00
    0.28371501274252164393E+00
    0.25340686820345154073E+00
    0.33124100358624614104E+00
    0.47762309636102828758E+00
    0.33811177211252813057E+00
    0.33661799607907288978E+00
    0.53240980423775829955E+00
    0.84132327167756359998E+00
    0.34093558586103861474E+00
    0.23024988693210404755E+00
    0.26820446468234004911E+00
    0.25663123226959411172E+00
    0.33807541902198201544E+00
    0.31185328763095920834E+00
    0.62539614008828170455E+00
    0.58128610149520698602E+00
    0.41984333504836429674E+00
    0.40539527478909859193E+00
    0.25460580474913613314E+00
    0.24620532038600706493E+00
    0.24473364196143979066E+00
    0.25673749785140259627E+00
    0.25439232411364909314E+00
    0.26077033120798787103E+00
    0.27510387902917987635E+00
    0.26089576640776240835E+00
    0.26559445107434631606E+00
    0.29847289892585909810E+00
    0.27397120484444087429E+00
    0.24967878786334515850E+00
    0.26666351551187356117E+00
    0.26661489512350539099E+00
    0.26058572235557680985E+00
    0.80070617386344555833E+00
    0.23422888103912109514E+00
    0.24352131887698297286E+00
    0.23635176672593538605E+00
    0.23908737033235974434E+00
    0.75860268079437376265E+00
    0.25033523014705227894E+00
    0.77175398162207142772E+00
    0.76306106703114240375E+00
    0.23244800849571700674E+00
    0.24689852673070350475E+00
    0.26061683476992003605E+00
    0.23836829945048268464E+00
    0.23346258020102361730E+00
    0.37708960487921028282E+00
    0.35008851890847275667E+00
    0.35715168356562820851E+00
    0.30341060422518689732E+00
    0.25554765870543227901E+00
    0.25090562147272105209E+00
    0.26794677030540026141E+00
    0.25153993978465838399E+00
    0.25890851974064166274E+00
    0.26872745478256676588E+00
    0.26826086142754768105E+00
    0.26256482077186216184E+00
    0.27252919579243800596E+00
    0.28066618847538171710E+00
    0.31079048734271169652E+00
    0.27753552131827780025E+00
    0.63356650191238406133E+00
    0.28919759645396664327E+00
    0.24272686544691357557E+00
    0.23694791113912547220E+00
    0.23186041010840496845E+00
    0.23356483245396203463E+00
    0.36265261795354930552E+00
    0.35739093921823356093E+00
    0.34588450124654229745E+00
    0.31843256787769658178E+00
    0.35327375300140384518E+00
    0.37897874145075804986E+00
    0.38787628523429984462E+00
    0.52033600292879789162E+00
    0.38515152085233161916E+00
    0.46926469623822147925E+00
    0.23028837039074073756E+00
    0.23059239520296440085E+00
    0.71193189927230915437E+00
    0.23529010781468037705E+00
    0.52630052390571802068E+00
    0.59785983652944030275E+00
    0.45342088103985139780E+00
    0.88109418635351410831E+00
    0.83287428243352867874E+00
    0.23213856081898184835E+00
    0.23136404279413502749E+00
    0.70285197535461674256E+00
    0.31073846298850116288E+00
    0.67510726069974014152E+00
    0.65506649182073939386E+00
    0.54586635120218263140E+00
    0.25467969429592657304E+00
    0.25119544751491262868E+00
    0.24425453052133619392E+00
    0.25078930407288235749E+00
    0.25638181781098401402E+00
    0.25017945556341886215E+00
    0.24543002510723485599E+00
    0.23936728777636295806E+00
    0.24097161581291218213E+00
    0.23843956400868679402E+00
    0.24349768844248059763E+00
    0.24256135906468545560E+00
    0.26248217285687247546E+00
    0.27670259770413252465E+00
    0.26835778822426220591E+00
    0.26310892639227456691E+00
    0.26502439293170132473E+00
    0.26725772042769041503E+00
    0.27125280726433659284E+00
    0.29040834982675467479E+00
    0.26807257288262575923E+00
    0.30535330656040282626E+00
    0.29800110293299608699E+00
    0.31155377277346435472E+00
    0.24680192822784338680E+00
    0.25150903511789912681E+00
    0.24271470890056395797E+00
    0.25689234961084489450E+00
    0.24685677393828053816E+00
    0.24944125533459463040E+00
    0.27253697744545202220E+00
    0.25426884532972182651E+00
    0.80000901092745357879E+00
    0.78342675250646598428E+00
    0.40352112806635337394E+00
    0.47639644639193590159E+00
    0.37686128925535061773E+00
    0.38168970298076165815E+00
    0.33080211905367012948E+00
    0.32551100179215225472E+00
    0.40711725129777609489E+00
    0.31630239052144076828E+00
    0.27898618657139445665E+00
    0.27565052493052827343E+00
    0.31470309025105669409E+00
    0.37645747080671598805E+00
    0.29845840527237782469E+00
    0.28567491641957587500E+00
    0.29480773568137402796E+00
    0.25833149759082690844E+00
    0.28489038513925379892E+00
    0.27858374902992166788E+00
    0.24483933917948005887E+00
    0.23502428259930582821E+00
    0.25036587001898330529E+00
    0.24738463282654993280E+00
    0.23761947434649788313E+00
    0.23431472077827175671E+00
    0.23981817256879811584E+00
    0.24553674677644007907E+00
    0.24269448140115829071E+00
    0.24125521837169716655E+00
    0.31221686258889658205E+00
    0.32036240547075023333E+00
    0.42149991996554503348E+00
    0.42124189695528796440E+00
    0.39221529563111379169E+00
    0.39611647059243482172E+00
    0.23136103711420036300E+00
    0.23247837384349503975E+00
    0.58376653133812417273E+00
    0.58296336018649008714E+00
    0.53195171874019564484E+00
    0.93665291248817050818E+00
    0.82669054244836071010E+00
    0.74258535994128038737E+00
    0.76060476999282311539E+00
    0.66840571687141991930E+00
    0.25669968923059538479E+00
    0.28547660565678445455E+00
    0.27213311434207815287E+00
    0.28984613677172516022E+00
    0.28368122163612008446E+00
    0.80232520650611371948E+00
    0.80069617495481504310E+00
    0.78665621761784509935E+00
    0.39191205490144642720E+00
    0.39504366742721386263E+00
    0.35043158091605475235E+00
    0.33979077499536375351E+00
    0.33313227088020430644E+00
    0.31808188370422663116E+00
    0.34287270718008655557E+00
    0.31660180079419603105E+00
    0.27838032491626935050E+00
    0.26670933561660931099E+00
    0.29640317735009674704E+00
    0.27311311135437799091E+00
    0.27972039690299838055E+00
    0.25131148508798412111E+00
    0.26810905626880965347E+00
    0.26087261058007371606E+00
    0.23339219337060468362E+00
    0.23783087941809935573E+00
    0.23455644582601137271E+00
    0.23912426690641683247E+00
    0.23537495912917491547E+00
    0.23291277441925423153E+00
    0.24862926977763727399E+00
    0.23856137187623044360E+00
    0.25369829708358060394E+00
    0.24816373240206598960E+00
    0.25910479525570145887E+00
    0.29074744301942423430E+00
    0.25699443684839828883E+00
    0.25422750012864248070E+00
    0.25796263382051604074E+00
    0.26266067874130549775E+00
    0.46317671039854113602E+00
    0.46132904058780865864E+00
    0.40153237429659466295E+00
    0.75945983876983125249E+00
    0.53902302874623186923E+00
    0.47758013936116316955E+00
    0.42646699342703642266E+00
    0.50634037264270193024E+00
    0.49491048185983826935E+00
    0.46289599860438190859E+00
    0.37803786945647538387E+00
    0.40767837720508176558E+00
    0.44385682173775214965E+00
    0.40158253039140417995E+00
    0.25407236634121049823E+00
    0.26954981557854773566E+00
    0.27549559140753865361E+00
    0.27966526892497700629E+00
    0.27667727648022455433E+00
    0.30264699011656487349E+00
    0.29074857593990205418E+00
    0.27790888742110814169E+00
    0.80444883091024466104E+00
    0.79092869721314751352E+00
    0.28640440970463620918E+00
    0.32316655191455573304E+00
    0.30008017852547363979E+00
    0.29169158344521239901E+00
    0.32067848998605785749E+00
    0.36683289326162304977E+00
    0.34466396376229913034E+00
    0.30735267809395921956E+00
    0.24966199909226574616E+00
    0.29548598078488574892E+00
    0.27667663158061955864E+00
    0.30024374424654776128E+00
    0.29438727742108405927E+00
    0.27966157863668184014E+00
    0.30571835177296474706E+00
    0.31885660557952277827E+00
    0.26690821354514748798E+00
    0.26502549921301404856E+00
    0.27484892352590201137E+00
    0.25999721178453399917E+00
    0.29117243997916592013E+00
    0.26539738450121097557E+00
    0.25760635421974176218E+00
    0.25257914472592912780E+00
    0.25965998119675781641E+00
    0.25734338534988571157E+00
    0.23779267015772675986E+00
    0.23514718681503155029E+00
    0.23179724763560732859E+00
    0.23397380508177026415E+00
    0.23092131571991136862E+00
    0.23115404856876189954E+00
    0.23952010865159595321E+00
    0.24372485725794054701E+00
    0.55291094501568804898E+00
    0.63760580184701853845E+00
    0.25200893862665063594E+00
    0.26154415255584878564E+00
    0.30809625013721991804E+00
    0.28870555166893385746E+00
    0.37378314502842091560E+00
    0.29144195245601683952E+00
    0.29408284654908067868E+00
    0.26776488729107777997E+00
    0.32270929807078535534E+00
    0.30367368066876582189E+00
    0.48529072933142325397E+00
    0.43541513915925211808E+00
    0.28712930279105014497E+00
    0.29972980012400601835E+00
    0.58153261462470251519E+00
    0.50127355884124691343E+00
    0.69105005521495665999E+00
    0.59755702704366320255E+00
    0.53641315975763492752E+00
    0.44390087011136231121E+00
    0.27841385936990659111E+00
    0.30671276320901952328E+00
    0.26882902876656239455E+00
    0.28241371275614668424E+00
    0.28075712816247994086E+00
    0.28055263952361814139E+00
    0.29948047088664286886E+00
    0.28923533975306725541E+00
    0.27857715286825962542E+00
    0.31113110127607679356E+00
    0.26001771368241127780E+00
    0.28310902838312829166E+00
    0.29017510842646943026E+00
    0.32346751924450156679E+00