# vtk DataFile Version 3.0
LAPLACIEN  2D
ASCII
DATASET UNSTRUCTURED_GRID
 POINTS        1616  float
  0.45880792999999997       0.87913892999999999        0.0000000000000000     
  0.40372658000000000       0.18243693000000000        0.0000000000000000     
  0.52563972999999997       0.19039755999999999        0.0000000000000000     
  0.45642953000000003       0.24226190000000000        0.0000000000000000     
  0.51984098000000001       0.24548566999999999        0.0000000000000000     
  0.21212766999999999       0.18957676000000001        0.0000000000000000     
  0.28573643999999998       0.48586826999999999        0.0000000000000000     
  0.49667887999999999       0.82979849000000006        0.0000000000000000     
  0.22848407000000001       0.23366793000000000        0.0000000000000000     
  0.27860389000000002       0.86069733000000004        0.0000000000000000     
  0.36563702999999997       0.80971340999999997        0.0000000000000000     
  0.28045499000000002       0.80393031999999998        0.0000000000000000     
  0.40374228000000001       0.78127665000000002        0.0000000000000000     
  0.56160891999999996       0.55341227999999998        0.0000000000000000     
  0.37210935000000001       0.26787699999999998        0.0000000000000000     
  0.49899838000000002       0.57286409999999999        0.0000000000000000     
  0.41023869000000002       0.33464665999999998        0.0000000000000000     
  0.33484156999999998       0.29151022999999998        0.0000000000000000     
  0.46758665999999999       0.58262307999999996        0.0000000000000000     
  0.43303693999999998       0.36569945999999998        0.0000000000000000     
  0.25741280000000000       0.61805882999999995        0.0000000000000000     
  0.28853707000000001       0.59423020000000004        0.0000000000000000     
  0.67837254000000002       0.45038665999999999        0.0000000000000000     
  0.42159046000000000       0.50697913999999999        0.0000000000000000     
  0.60276470999999998       0.73940291000000002        0.0000000000000000     
  0.30758273000000003       0.77844542000000005        0.0000000000000000     
  0.45367541000000000       0.31842187000000000        0.0000000000000000     
  0.36974101999999998       0.35807864000000000        0.0000000000000000     
  0.26919625000000003       0.65312176000000000        0.0000000000000000     
  0.61908110999999999       0.42741791000000001        0.0000000000000000     
  0.54442267000000000       0.74200747000000000        0.0000000000000000     
  0.58930464999999999       0.41588288000000001        0.0000000000000000     
  0.51511633000000001       0.74331579000000003        0.0000000000000000     
  0.12878382999999999       0.33122940000000001        0.0000000000000000     
  0.15534365000000000       0.71749246000000000        0.0000000000000000     
  0.64877724999999997       0.30161799000000000        0.0000000000000000     
  0.58853643000000000       0.28101930000000003        0.0000000000000000     
  0.56390348000000001       0.30132482999999999        0.0000000000000000     
  0.29605991999999998       0.44474459999999999        0.0000000000000000     
  0.29900669000000002       0.52983276000000001        0.0000000000000000     
  0.55954318999999997       0.48654808999999999        0.0000000000000000     
  0.42341458999999998       0.38785072999999998        0.0000000000000000     
  0.45806291999999998       0.35892998999999998        0.0000000000000000     
  0.47820750000000001       0.31147424000000001        0.0000000000000000     
  0.36344222999999998       0.38139388000000002        0.0000000000000000     
  0.17186508000000000       0.28159534000000003        0.0000000000000000     
  0.18029876000000000       0.33292397000000001        0.0000000000000000     
  0.20696366999999999       0.71822465999999996        0.0000000000000000     
  0.61326404999999995       0.34468346000000000        0.0000000000000000     
  0.29887186999999998       0.42337377999999998        0.0000000000000000     
  0.33271837999999998       0.44383096000000000        0.0000000000000000     
  0.31835012000000001       0.54267131999999996        0.0000000000000000     
  0.54882964999999995       0.45462609999999998        0.0000000000000000     
  0.20448143999999999       0.28717446000000002        0.0000000000000000     
  0.20634120000000000       0.33378063000000002        0.0000000000000000     
  0.23301781999999999       0.71859421999999995        0.0000000000000000     
  0.58606499999999995       0.35199907000000002        0.0000000000000000     
  0.20841100000000001       0.45369578999999999        0.0000000000000000     
  0.24778198000000001       0.77708496000000005        0.0000000000000000     
  0.30748062999999998       0.61002621000000001        0.0000000000000000     
  0.23337332000000000       0.41981835000000001        0.0000000000000000     
  0.25985113999999998       0.75924943000000000        0.0000000000000000     
  0.24610213000000000       0.40254353999999998        0.0000000000000000     
  0.37350351999999998       0.50127178999999999        0.0000000000000000     
  0.43235204999999999       0.78236391000000005        0.0000000000000000     
  0.30749858000000002       0.28582627999999999        0.0000000000000000     
  0.30336816000000000       0.64635111000000001        0.0000000000000000     
  0.31418906000000002       0.43625961000000002        0.0000000000000000     
  0.27223414000000001       0.78063022000000004        0.0000000000000000     
  0.22829299000000000       0.75089561000000005        0.0000000000000000     
  0.26580239000000000       0.42989294000000000        0.0000000000000000     
  0.37369119000000001       0.51975733999999996        0.0000000000000000     
  0.39681665999999999       0.51027884000000001        0.0000000000000000     
  0.32086795000000001       0.65137668999999998        0.0000000000000000     
  0.31757218999999998       0.62987181000000003        0.0000000000000000     
  0.32959777000000001       0.42500900000000003        0.0000000000000000     
  0.24663835000000001       0.74537787000000000        0.0000000000000000     
  0.26354222999999999       0.41075105000000001        0.0000000000000000     
  0.28343712999999998       0.43221330000000002        0.0000000000000000     
  0.34682245000000000       0.43182289000000001        0.0000000000000000     
  0.35306810000000000       0.45344571000000000        0.0000000000000000     
  0.57327218000000002       0.15829040000000000        0.0000000000000000     
  0.51473097999999995       0.12621746000000000        0.0000000000000000     
  0.72829681999999996       0.40151571000000003        0.0000000000000000     
  0.42703184999999999       0.53501600999999999        0.0000000000000000     
  0.32612607999999998       0.75472421999999995        0.0000000000000000     
   9.9814849999999997E-002  0.28081352999999998        0.0000000000000000     
  0.13945825000000001       0.78732252999999996        0.0000000000000000     
  0.44199519999999998       0.38275643999999998        0.0000000000000000     
  0.40132215999999998       0.36508836000000000        0.0000000000000000     
  0.43963142999999999       0.34043466999999999        0.0000000000000000     
  0.47160058999999999       0.33493045999999999        0.0000000000000000     
  0.45615203999999998       0.28038164999999998        0.0000000000000000     
  0.34321279999999998       0.35314412000000001        0.0000000000000000     
  0.29178279000000001       0.56170810000000004        0.0000000000000000     
  0.49833080000000002       0.48416767999999999        0.0000000000000000     
  0.46386271000000001       0.46452802999999998        0.0000000000000000     
  0.44722043000000000       0.45300645000000000        0.0000000000000000     
  0.46562803000000003       0.44419790999999997        0.0000000000000000     
  0.43925322000000000       0.48229485999999999        0.0000000000000000     
  0.49117628000000002       0.45665803999999999        0.0000000000000000     
  0.43435156000000003       0.46523363000000001        0.0000000000000000     
  0.19405754000000000       0.31093060000000000        0.0000000000000000     
  0.22069087000000001       0.66905079000000001        0.0000000000000000     
  0.30776597999999999       0.59042684000000001        0.0000000000000000     
  0.29541507000000000       0.57849362000000004        0.0000000000000000     
  0.28335474999999999       0.61970232999999997        0.0000000000000000     
  0.29935165000000002       0.62852803999999995        0.0000000000000000     
  0.28459435999999999       0.64121777000000002        0.0000000000000000     
  0.26698675999999999       0.63435282999999998        0.0000000000000000     
  0.24031983000000001       0.64700659000000005        0.0000000000000000     
  0.33118850000000000       0.50233682999999996        0.0000000000000000     
  0.35257061000000001       0.51072803000000000        0.0000000000000000     
  0.29038973000000001       0.78732479000000000        0.0000000000000000     
  0.28737915000000003       0.76752330999999996        0.0000000000000000     
  0.21978159000000000       0.73315437000000006        0.0000000000000000     
  0.18119734000000001       0.76257752999999995        0.0000000000000000     
  0.20353571000000001       0.75186065999999996        0.0000000000000000     
  0.39122694000000002       0.49007234000000000        0.0000000000000000     
  0.59140473999999998       0.13507609000000001        0.0000000000000000     
  0.53156702000000000        9.7663528999999999E-002   0.0000000000000000     
  0.76346223999999996       0.39657278000000001        0.0000000000000000     
  0.41119013999999998       0.52354409999999996        0.0000000000000000     
   7.2558165999999993E-002  0.26885883999999999        0.0000000000000000     
  0.10497347000000000       0.79895936000000001        0.0000000000000000     
[...]
 CELL_DATA        2963
 SCALARS Endothelial_cells float
 LOOKUP_TABLE default
    0.66732815542191592506E+00
    0.54747431969445847777E+00
    0.39999911292879153368E+00
    0.47914187999980401012E+00
    0.44132126547037692221E+00
    0.67135307574269398323E+00
    0.46890318421570215124E+00
    0.41118352071042285623E+00
    0.61389592854526686683E+00
    0.23141784858279593196E+00
    0.53478332906040493278E+00
    0.34854473540255048736E+00
    0.35362430661194060866E+00
    0.45596899446346111917E+00
    0.61204130036394077674E+00
    0.34473409557968714978E+00
    0.23494317156916549871E+00
    0.45488337498510578172E+00
    0.76960803127391597123E+00
    0.33220416128936974820E+00
    0.44395331921905017980E+00
    0.23593493641087612267E+00
    0.23683507346843532537E+00
    0.40000382798325850864E+00
    0.30717206198158703012E+00
    0.90037836070914956110E+00
    0.32390391184380940004E+00
    0.76220875439598156920E+00
    0.40130612312507235595E+00
    0.28082063370652005085E+00
    0.42368292605355017955E+00
    0.48691775137893261727E+00
    0.40616352096658020487E+00
    0.29630234204956618083E+00
    0.34326848795261694081E+00
    0.30044028336566025450E+00
    0.36373229485849617459E+00
    0.28330788943273005343E+00
    0.29866516396797709865E+00
    0.39987736082904240531E+00
    0.28756990269786936176E+00
    0.43674335052277690750E+00
    0.39999727252828815027E+00
    0.28858825031477830514E+00
    0.54104218459533703900E+00
    0.25686529665469531869E+00
    0.30082865145528514539E+00
    0.55879410404776941323E+00
    0.27938449975156248728E+00
    0.56550970078830731236E+00
    0.26643066984136692943E+00
    0.24281830379478683279E+00
    0.25634223214255902334E+00
    0.24742377252668076859E+00
    0.36269461422777166115E+00
    0.40000064229943305127E+00
    0.28207202599967801104E+00
    0.25126972591138324598E+00
    0.23708888562673807732E+00
    0.36908132372067137261E+00
    0.24263692316390284009E+00
    0.53022224645922411135E+00
    0.53710701811432559616E+00
    0.46654673181115285940E+00
    0.39999874409010049980E+00
    0.24976314595363119375E+00
    0.32979537685760068610E+00
    0.23992308960567257370E+00
    0.56678153160768340868E+00
    0.43714234679367580672E+00
    0.29326049725495445530E+00
    0.24663548381893976580E+00
    0.29209174172650131940E+00
    0.30880278250519843652E+00
    0.23192005056029565968E+00
    0.23185655227210638651E+00
    0.23349256043028299157E+00
    0.23345013942917811067E+00
    0.25805614883603039678E+00
    0.25427187005884066551E+00
    0.47507666096025880087E+00
    0.26298956463250411364E+00
    0.24000970528952852989E+00
    0.23054077510874043666E+00
    0.27430037080692382112E+00
    0.50004699257196139062E+00
    0.73650539646441270936E+00
    0.39999704027368476744E+00
    0.31808846660147860330E+00
    0.70342792899457751155E+00
    0.33825556284636165705E+00
    0.26543033220039985443E+00
    0.23628135490095794613E+00
    0.24822438556640399887E+00
    0.29415207077640381783E+00
    0.27262171692142406210E+00
    0.23391311646980214589E+00
    0.33159247043148182277E+00
    0.26900956797400865650E+00
    0.33648188992006750064E+00
    0.29900465883166044145E+00
    0.33136175226560560247E+00
    0.26439459002116150188E+00
    0.34039366749264260426E+00
    0.40006946809736065873E+00
    0.53830393655966879418E+00
    0.36650776021151770800E+00
    0.77771031665681955580E+00
    0.26111020101091814150E+00
    0.36454856884225506075E+00
    0.44800793279477413300E+00
    0.32974791256553726004E+00
    0.31497863514362783866E+00
    0.35812037175504901620E+00
    0.47339503030610224910E+00
    0.33868792516252527180E+00
    0.66419949460542915265E+00
    0.57822454589798955027E+00
    0.23050023616474271670E+00
    0.23714226843486205243E+00
    0.32958064695432515157E+00
    0.49070187345280130709E+00
    0.24215277854725250628E+00
    0.29462351124807095726E+00
    0.25258076119226308132E+00
    0.31319088444780524005E+00
    0.72965344554817601619E+00
    0.25400332480302995064E+00
    0.44585843233633865035E+00
    0.23727655980102801969E+00
    0.26096398546703558630E+00
    0.25609575308482890321E+00
    0.40021118698694962967E+00
    0.25851074624627384813E+00
    0.39997195648106687038E+00
    0.23880248381835672555E+00
    0.24006280182056899397E+00
    0.56730733974360492144E+00
    0.41143144693843464177E+00
    0.42728169786748304571E+00
    0.23590034370230636429E+00
    0.27883409561137428856E+00
    0.48277460969483287911E+00
    0.23986845107751961215E+00
    0.24568315268268234308E+00
    0.27446844869727804461E+00
    0.49782392567855449084E+00
    0.26540551388344241213E+00
    0.35790395707947281201E+00
    0.30643132522310911892E+00
    0.40000287959145963690E+00
    0.68967323574048799983E+00
    0.24601186045834699812E+00
    0.28017770420684523502E+00
    0.26969775629012465723E+00
    0.25656082814314984386E+00
    0.24922580187484191794E+00
    0.27320073285550150466E+00
    0.27378546753026278271E+00
    0.27055639346969007075E+00
    0.27349434317595888722E+00
    0.29722151941289187693E+00
    0.28931262587491723970E+00
    0.32012678534228183880E+00
    0.34233357675466546954E+00
    0.25241249676282961900E+00
    0.24807027237892595450E+00
    0.25085057042192582255E+00
    0.23134251344989992250E+00
    0.25794516050021604192E+00
    0.23062854477604935455E+00
    0.27822943216063661387E+00
    0.27069890873752505689E+00
    0.27331256874331333329E+00
    0.25761786758906990435E+00
    0.25120232674426995478E+00
    0.40240678163499582487E+00
    0.33746705803058080209E+00
    0.57473054112908872337E+00
    0.24181240762642142172E+00
    0.23125976075607868054E+00
    0.29188264263328678183E+00
    0.30474314667379920341E+00
    0.34764293673409507601E+00
    0.26093106735424664855E+00
    0.26362332945666455686E+00
    0.40003787004552349149E+00
    0.80574347419235903267E+00
    0.24342472325233069363E+00
    0.28666197272282245567E+00
    0.48554888657363848292E+00
    0.41314273914959398493E+00
    0.70939951128146039316E+00
    0.23983511519426151115E+00
    0.33889373883667323062E+00
    0.24659548668857272924E+00
    0.40006973051776067996E+00
    0.26151973272114809044E+00
    0.31896892476942417805E+00
    0.24902237878809840854E+00
    0.29771242853314144883E+00
    0.28327747276099046747E+00
    0.40401092779348557471E+00
    0.26988596735400038895E+00
    0.27851726476109350816E+00
    0.24193093180585897861E+00
    0.27808669397849694604E+00
    0.24117742351477056140E+00
    0.40012958279682236951E+00
    0.24051041638885520269E+00
    0.24892184150094120998E+00
    0.23746844731929153682E+00
    0.24355886336863580288E+00
    0.54649814809164443119E+00
    0.59157066334533103813E+00
    0.36587698468217927372E+00
    0.30136831430890897998E+00
    0.36581143646167935124E+00
    0.39996219472184224575E+00
    0.24700207480321390019E+00
    0.51690120017058760471E+00
    0.59026403278036698730E+00
    0.58615167698849957034E+00
    0.23797730509963657686E+00
    0.24236682379820534416E+00
    0.50704666711333723494E+00
    0.48221102323950382207E+00
    0.26282117442219443681E+00
    0.26227373528639924549E+00
    0.32398252657316495284E+00
    0.25406627359527528265E+00
    0.31057620188615442380E+00
    0.35674947194066786160E+00
    0.40002969435926127861E+00
    0.32327165577519723083E+00
    0.33898497257648863012E+00
    0.68392143601784838314E+00
    0.40001781055884921834E+00
    0.25150499212920457426E+00
    0.42246658220595556532E+00
    0.24701584141726579125E+00
    0.27894170269480328406E+00
    0.40006034719655980680E+00
    0.39996129252925849418E+00
    0.23244097577617192640E+00
    0.97021987072950488518E+00
    0.34021748073654095590E+00
    0.24335027335328418552E+00
    0.83858062311704806291E+00
    0.40000871665880127770E+00
    0.23007877791311362459E+00
    0.38254379717506303837E+00
    0.83016272150097014659E+00
    0.45128169671133439023E+00
    0.26868636806356283042E+00
    0.31143989351820716704E+00
    0.27198556365914722255E+00
    0.71520252408447038128E+00
    0.23087005083226982971E+00
    0.32960425281547939269E+00
    0.23029828170462313119E+00
    0.23066009191700465042E+00
    0.23054429110487772991E+00
    0.27545289514682869125E+00
    0.23331522119054848297E+00
    0.24786063037183991842E+00
    0.41135296597719483991E+00
    0.23075848091301109921E+00
    0.28393019148319237344E+00
    0.23734235914076159957E+00
    0.35235845114079722418E+00
    0.33186364585823685536E+00
    0.23103520147604025836E+00
    0.27297685073614985640E+00
    0.27187028523709760863E+00
    0.43703587073180827360E+00
    0.28264906205197265487E+00
    0.35428075151440796553E+00
    0.23904469366072259029E+00
    0.26513275361877503000E+00
    0.55388623564105310404E+00
    0.24683046597116065080E+00
    0.40000663619457632603E+00
    0.30460422572027773258E+00
    0.26386525356395057473E+00
    0.24479388123148895784E+00
    0.39989404943307937934E+00
    0.26715841806242707213E+00
    0.87672268370344330624E+00
    0.31086088695784225289E+00
    0.31656943147971622343E+00
    0.31499475324130810083E+00
    0.37442921181799437846E+00
    0.41436497072512168405E+00
    0.29133734399723959507E+00
    0.39996565109961562667E+00
    0.25608037255150539746E+00
    0.28464656407325911180E+00
    0.40907126717663488957E+00
    0.29294091061527122166E+00
    0.29153636597029042310E+00
    0.29028277955860459780E+00
    0.32036491142579015534E+00
    0.54596821822986241202E+00
    0.40455392528314837453E+00
    0.24506760098745983267E+00
    0.25969743860202393337E+00
    0.27981222924020332510E+00
    0.24539916229823335869E+00
    0.40006342273809053500E+00
    0.23610303289738643340E+00
    0.27907181192497287903E+00
    0.40001050061748727460E+00
    0.27622527492186954579E+00
    0.40000371107915622115E+00
    0.54695227230349030556E+00
    0.26994874949618130611E+00
    0.55269679888142464463E+00
    0.42744447064025448135E+00
    0.34648234583670850517E+00
    0.33957039436895342099E+00
    0.31654972146820714585E+00
    0.34745799592088433272E+00
    0.32563185663656329938E+00
    0.59909853797110745877E+00
    0.33638291599989134095E+00
    0.40001009840213147539E+00
    0.40003024844618584321E+00
    0.41039352921091104553E+00
    0.67512895120453353393E+00
    0.23986190524270636915E+00
    0.24886662131082018523E+00
    0.53749359134355501055E+00
    0.49142314832239314404E+00
    0.27486855674716725861E+00
    0.28393480080196337179E+00
    0.25378610858116656956E+00
    0.33386484799739996054E+00
    0.45392813436085016621E+00
    0.33840680163690639581E+00
    0.33686405178881240197E+00
    0.50348542436944676570E+00
    0.78826026405655857943E+00
    0.34101829212777179379E+00
    0.23030702030496513766E+00
    0.26834753736589606055E+00
    0.25671757682402807088E+00
    0.33835230559921974924E+00
    0.31222246736246728194E+00
    0.62238784997197971194E+00
    0.57871202337214611156E+00
    0.41766225429558156979E+00
    0.40427469884391109556E+00
    0.25452345291127603799E+00
    0.24640938209046076013E+00
    0.24484801908094189216E+00
    0.25694230656783734190E+00
    0.25446850791046338180E+00
    0.26078520202756488855E+00
    0.27499575972450784889E+00
    0.26080221469630232578E+00
    0.26563290532136651922E+00
    0.29842029081158499837E+00
    0.27404004919032598497E+00
    0.24966260096611073149E+00
    0.26668718430882593085E+00
    0.26677260237367622642E+00
    0.26072833699525410633E+00
    0.47607203080790416738E+00
    0.23428819691251098756E+00
    0.24349301806571585494E+00
    0.23652553806981710394E+00
    0.23914872029256079022E+00
    0.23862808589236858547E+00
    0.31288911761449889060E+00
    0.40079164210934470347E+00
    0.24340134193344956093E+00
    0.23257011728078250123E+00
    0.24831087303370802388E+00
    0.40025030268400230149E+00
    0.23851340339930962586E+00
    0.23342779218997480872E+00
    0.39999490179498820019E+00
    0.34979599207549633144E+00
    0.36930838688522343860E+00
    0.30390293267161350155E+00
    0.25559589194616694208E+00
    0.25082770010549376716E+00
    0.26816739743320339162E+00
    0.25171010434974577796E+00
    0.25907313579070545551E+00
    0.26886932679734570906E+00
    0.26821019967022213804E+00
    0.26259000050194392095E+00
    0.27289592857711070240E+00
    0.28110183335606248045E+00
    0.31074254960973840545E+00
    0.27754197938701063997E+00
    0.62952755490422385165E+00
    0.29002104278019896766E+00
    0.24268995463077661090E+00
    0.23704267698789460717E+00
    0.23192981112950675215E+00
    0.23366545484174258696E+00
    0.36319592123656596616E+00
    0.35786291120441404701E+00
    0.34588567128827579777E+00
    0.31881386319886567682E+00
    0.35352216644274647717E+00
    0.40000310382380388496E+00
    0.39999829493103744582E+00
    0.51830826709761212978E+00
    0.40000213613483692754E+00
    0.46562711481059348984E+00
    0.23035436667183289972E+00
    0.23057999935801562486E+00
    0.69506299982878239074E+00
    0.23537798550758481930E+00
    0.52135608356549356657E+00
    0.58745127995668833254E+00
    0.45017542233898133475E+00
    0.82880000522949004438E+00
    0.76610384385924124029E+00
    0.23225523593121774613E+00
    0.23137448664190315983E+00
    0.69961650471475489432E+00
    0.31079356735091345776E+00
    0.67047489427320994260E+00
    0.65098856250689474123E+00
    0.54386038017964755120E+00
    0.25457456237725895054E+00
    0.25141858797575672435E+00
    0.24433359037885371556E+00
    0.25087324776988834119E+00
    0.25657433791990169603E+00
    0.25019832341470182868E+00
    0.24548074912392126024E+00
    0.23954394038817219958E+00
    0.24095313155778511072E+00
    0.23890618184280781877E+00
    0.24358049844879453572E+00
    0.24261369829910545137E+00
    0.26262409608930331606E+00
    0.27682125171931282193E+00
    0.26795863648892948028E+00
    0.26352948709701817798E+00
    0.26526093466014383226E+00
    0.26717187713380319281E+00
    0.27140337909048017906E+00
    0.29087562909515846110E+00
    0.26825372874523906175E+00
    0.30559687378218247655E+00
    0.29814745628410088685E+00
    0.31145667554203271266E+00
    0.24693367469777569023E+00
    0.25168818520932217941E+00
    0.24273238956333459404E+00
    0.25706452288314463051E+00
    0.24698757482652178297E+00
    0.24955626647908510374E+00
    0.43145989264856626777E+00
    0.40873713578553266812E+00
    0.41035590621352530105E+00
    0.41743336750578358130E+00
    0.40000167474806958001E+00
    0.47183362573886239444E+00
    0.39636201575371576844E+00
    0.40000679866157290432E+00
    0.33210808808937891667E+00
    0.32788857703984225500E+00
    0.40452835996223307502E+00
    0.31690083032247079453E+00
    0.27909413075919020653E+00
    0.27591462257178583917E+00
    0.31527751703838180486E+00
    0.40001273430411610210E+00
    0.29782595084237822869E+00
    0.28566352992875326811E+00
    0.29568243596723542410E+00
    0.25855034833491397084E+00
    0.28528968532461262964E+00
    0.27875415735753134028E+00
    0.24494774505806382603E+00
    0.23514371882667181590E+00
    0.25043861907701725489E+00
    0.24747935704982854110E+00
    0.23770121575246724865E+00
    0.23439639172715279192E+00
    0.23967048864663109686E+00
    0.24560447524271436515E+00
    0.24272815238342387856E+00
    0.24124800103948360053E+00
    0.31318545661834334970E+00
    0.32005485242547204727E+00
    0.41979122211613190130E+00
    0.41849184923257565227E+00
    0.39999881615203397578E+00
    0.39999899600300192759E+00
    0.23142338611774948554E+00
    0.23256220200273583498E+00
    0.57424642730055930340E+00
    0.57635465985735401251E+00
    0.52672118056601457958E+00
    0.90520003769118595471E+00
    0.78723784067664737130E+00
    0.73778992318822012031E+00
    0.74949893574851345068E+00
    0.66669410711423393590E+00
    0.25670156663182652768E+00
    0.28544878745693014199E+00
    0.27210199767656800818E+00
    0.29012072177008768614E+00
    0.44096046365650221066E+00
    0.54186429963206428351E+00
    0.45846725780607139322E+00
    0.43016714494154723036E+00
    0.39999544689522947838E+00
    0.39999616878307675538E+00
    0.35199466685737551552E+00
    0.34018844736591158373E+00
    0.33380051195926058183E+00
    0.31854626037616085021E+00
    0.34321066466178828946E+00
    0.31679493436680866703E+00
    0.27816191641140236568E+00
    0.26652502838510272465E+00
    0.29631774547331346525E+00
    0.27330166478649020600E+00
    0.28006881759992552361E+00
    0.25141786249782444029E+00
    0.26845699271578105094E+00
    0.26066004428748018595E+00
    0.23343671359949907940E+00
    0.23790108618228827941E+00
    0.23472813258624519728E+00
    0.23922108246775886098E+00
    0.23529098874281181852E+00
    0.23301465724245409850E+00
    0.24868870955425115277E+00
    0.23878127681678018579E+00
    0.25383839865526891533E+00
    0.24827356041364742611E+00
    0.25921612234908975037E+00
    0.29089317676559811598E+00
    0.25703186220350215940E+00
    0.25434127730125710709E+00
    0.25806269711537355160E+00
    0.26272991805024648038E+00
    0.46035964979157123489E+00
    0.45869904626221291721E+00
    0.40172163156571688569E+00
    0.75349104574902703302E+00
    0.53715354775759949213E+00
    0.47493864872252344878E+00
    0.42519348930239964091E+00
    0.50441667198717521359E+00
    0.49203027769252660750E+00
    0.46070553831678823231E+00
    0.38643087494556210837E+00
    0.40654144894135391120E+00
    0.44027422418826789308E+00
    0.40000108157252872720E+00
    0.25398669563779591174E+00
    0.26958403743313402723E+00
    0.27558412618315442089E+00
    0.27986586651673095449E+00
    0.27660272041374012186E+00
    0.30249036194416223378E+00
    0.29115245317800025893E+00
    0.27789121344114448009E+00
    0.69036675799288127475E+00
    0.42329822369538466775E+00
    0.28659476085708801563E+00
    0.32348004649181527626E+00
    0.30054189671371805970E+00
    0.29204801886749343076E+00
    0.32036338092160793201E+00
    0.40001049827498558198E+00
    0.37042226849803089328E+00
    0.30767470204009422785E+00
    0.24968478145980835259E+00
    0.29524216777151590652E+00
    0.27663430392850479889E+00
    0.29992297682776847267E+00
    0.29483467594470302853E+00
    0.27981462229619685766E+00
    0.30565461994927878298E+00
    0.31888098694396854738E+00
    0.26699582873222471591E+00
    0.26487769963267771001E+00
    0.27484484023964622645E+00
    0.26024050236090490174E+00
    0.29133075061468399758E+00
    0.26527519005593058754E+00
    0.25766132900298527320E+00
    0.25268630314135237525E+00
    0.25993938658363091587E+00
    0.25719897599040147940E+00
    0.23805666789591761745E+00
    0.23510803616287595519E+00
    0.23189849572927517807E+00
    0.23414847861510371119E+00
    0.23094149787959589171E+00
    0.23122960852535237586E+00
    0.23954396147671364048E+00
    0.24388296329221900716E+00
    0.55015817944727729571E+00
    0.63334947177296774257E+00
    0.25212884736936796992E+00
    0.26162353003454313916E+00
    0.30815783463073948001E+00
    0.28904685195693047284E+00
    0.40000453734257596095E+00
    0.29158151747581345647E+00
    0.29448212454685201989E+00
    0.26759553385086931598E+00
    0.32345259269913573252E+00
    0.30369130437146901746E+00
    0.48316521425930220035E+00
    0.43381699055105116258E+00
    0.28702562814591481288E+00
    0.29975182234298086703E+00
    0.57593958855956539633E+00
    0.49835254940830525650E+00
    0.69016572899460781887E+00
    0.59387642840057464078E+00
    0.53600430968351575611E+00
    0.44024535151407850897E+00
    0.27862081510727304545E+00
    0.30681302344161520690E+00
    0.26954232196523042475E+00
    0.28235556334874528650E+00
    0.28115431813721947218E+00
    0.28066460041258950442E+00
    0.29936536186754097999E+00
    0.28928954117345007102E+00
    0.27883437885353007379E+00
    0.31092205647296661253E+00
    0.26005532205866310758E+00
    0.28318560079977606048E+00
    0.29036026609445009239E+00
    0.32900935855839791300E+00