# vtk DataFile Version 3.0
LAPLACIEN  2D
ASCII
DATASET UNSTRUCTURED_GRID
 POINTS        1616  float
  0.45880792999999997       0.87913892999999999        0.0000000000000000     
  0.40372658000000000       0.18243693000000000        0.0000000000000000     
  0.52563972999999997       0.19039755999999999        0.0000000000000000     
  0.45642953000000003       0.24226190000000000        0.0000000000000000     
  0.51984098000000001       0.24548566999999999        0.0000000000000000     
  0.21212766999999999       0.18957676000000001        0.0000000000000000     
  0.28573643999999998       0.48586826999999999        0.0000000000000000     
  0.49667887999999999       0.82979849000000006        0.0000000000000000     
  0.22848407000000001       0.23366793000000000        0.0000000000000000     
  0.27860389000000002       0.86069733000000004        0.0000000000000000     
  0.36563702999999997       0.80971340999999997        0.0000000000000000     
  0.28045499000000002       0.80393031999999998        0.0000000000000000     
  0.40374228000000001       0.78127665000000002        0.0000000000000000     
  0.56160891999999996       0.55341227999999998        0.0000000000000000     
  0.37210935000000001       0.26787699999999998        0.0000000000000000     
  0.49899838000000002       0.57286409999999999        0.0000000000000000     
  0.41023869000000002       0.33464665999999998        0.0000000000000000     
  0.33484156999999998       0.29151022999999998        0.0000000000000000     
  0.46758665999999999       0.58262307999999996        0.0000000000000000     
  0.43303693999999998       0.36569945999999998        0.0000000000000000     
  0.25741280000000000       0.61805882999999995        0.0000000000000000     
  0.28853707000000001       0.59423020000000004        0.0000000000000000     
  0.67837254000000002       0.45038665999999999        0.0000000000000000     
  0.42159046000000000       0.50697913999999999        0.0000000000000000     
  0.60276470999999998       0.73940291000000002        0.0000000000000000     
  0.30758273000000003       0.77844542000000005        0.0000000000000000     
  0.45367541000000000       0.31842187000000000        0.0000000000000000     
  0.36974101999999998       0.35807864000000000        0.0000000000000000     
  0.26919625000000003       0.65312176000000000        0.0000000000000000     
  0.61908110999999999       0.42741791000000001        0.0000000000000000     
  0.54442267000000000       0.74200747000000000        0.0000000000000000     
  0.58930464999999999       0.41588288000000001        0.0000000000000000     
  0.51511633000000001       0.74331579000000003        0.0000000000000000     
  0.12878382999999999       0.33122940000000001        0.0000000000000000     
  0.15534365000000000       0.71749246000000000        0.0000000000000000     
  0.64877724999999997       0.30161799000000000        0.0000000000000000     
  0.58853643000000000       0.28101930000000003        0.0000000000000000     
  0.56390348000000001       0.30132482999999999        0.0000000000000000     
  0.29605991999999998       0.44474459999999999        0.0000000000000000     
  0.29900669000000002       0.52983276000000001        0.0000000000000000     
  0.55954318999999997       0.48654808999999999        0.0000000000000000     
  0.42341458999999998       0.38785072999999998        0.0000000000000000     
  0.45806291999999998       0.35892998999999998        0.0000000000000000     
  0.47820750000000001       0.31147424000000001        0.0000000000000000     
  0.36344222999999998       0.38139388000000002        0.0000000000000000     
  0.17186508000000000       0.28159534000000003        0.0000000000000000     
  0.18029876000000000       0.33292397000000001        0.0000000000000000     
  0.20696366999999999       0.71822465999999996        0.0000000000000000     
  0.61326404999999995       0.34468346000000000        0.0000000000000000     
  0.29887186999999998       0.42337377999999998        0.0000000000000000     
  0.33271837999999998       0.44383096000000000        0.0000000000000000     
  0.31835012000000001       0.54267131999999996        0.0000000000000000     
  0.54882964999999995       0.45462609999999998        0.0000000000000000     
  0.20448143999999999       0.28717446000000002        0.0000000000000000     
  0.20634120000000000       0.33378063000000002        0.0000000000000000     
  0.23301781999999999       0.71859421999999995        0.0000000000000000     
  0.58606499999999995       0.35199907000000002        0.0000000000000000     
  0.20841100000000001       0.45369578999999999        0.0000000000000000     
  0.24778198000000001       0.77708496000000005        0.0000000000000000     
  0.30748062999999998       0.61002621000000001        0.0000000000000000     
  0.23337332000000000       0.41981835000000001        0.0000000000000000     
  0.25985113999999998       0.75924943000000000        0.0000000000000000     
  0.24610213000000000       0.40254353999999998        0.0000000000000000     
  0.37350351999999998       0.50127178999999999        0.0000000000000000     
  0.43235204999999999       0.78236391000000005        0.0000000000000000     
  0.30749858000000002       0.28582627999999999        0.0000000000000000     
  0.30336816000000000       0.64635111000000001        0.0000000000000000     
  0.31418906000000002       0.43625961000000002        0.0000000000000000     
  0.27223414000000001       0.78063022000000004        0.0000000000000000     
  0.22829299000000000       0.75089561000000005        0.0000000000000000     
  0.26580239000000000       0.42989294000000000        0.0000000000000000     
  0.37369119000000001       0.51975733999999996        0.0000000000000000     
  0.39681665999999999       0.51027884000000001        0.0000000000000000     
  0.32086795000000001       0.65137668999999998        0.0000000000000000     
  0.31757218999999998       0.62987181000000003        0.0000000000000000     
  0.32959777000000001       0.42500900000000003        0.0000000000000000     
  0.24663835000000001       0.74537787000000000        0.0000000000000000     
  0.26354222999999999       0.41075105000000001        0.0000000000000000     
  0.28343712999999998       0.43221330000000002        0.0000000000000000     
  0.34682245000000000       0.43182289000000001        0.0000000000000000     
  0.35306810000000000       0.45344571000000000        0.0000000000000000     
  0.57327218000000002       0.15829040000000000        0.0000000000000000     
  0.51473097999999995       0.12621746000000000        0.0000000000000000     
  0.72829681999999996       0.40151571000000003        0.0000000000000000     
  0.42703184999999999       0.53501600999999999        0.0000000000000000     
  0.32612607999999998       0.75472421999999995        0.0000000000000000     
   9.9814849999999997E-002  0.28081352999999998        0.0000000000000000     
  0.13945825000000001       0.78732252999999996        0.0000000000000000     
  0.44199519999999998       0.38275643999999998        0.0000000000000000     
  0.40132215999999998       0.36508836000000000        0.0000000000000000     
  0.43963142999999999       0.34043466999999999        0.0000000000000000     
  0.47160058999999999       0.33493045999999999        0.0000000000000000     
  0.45615203999999998       0.28038164999999998        0.0000000000000000     
  0.34321279999999998       0.35314412000000001        0.0000000000000000     
  0.29178279000000001       0.56170810000000004        0.0000000000000000     
  0.49833080000000002       0.48416767999999999        0.0000000000000000     
  0.46386271000000001       0.46452802999999998        0.0000000000000000     
  0.44722043000000000       0.45300645000000000        0.0000000000000000     
  0.46562803000000003       0.44419790999999997        0.0000000000000000     
  0.43925322000000000       0.48229485999999999        0.0000000000000000     
  0.49117628000000002       0.45665803999999999        0.0000000000000000     
  0.43435156000000003       0.46523363000000001        0.0000000000000000     
  0.19405754000000000       0.31093060000000000        0.0000000000000000     
  0.22069087000000001       0.66905079000000001        0.0000000000000000     
  0.30776597999999999       0.59042684000000001        0.0000000000000000     
  0.29541507000000000       0.57849362000000004        0.0000000000000000     
  0.28335474999999999       0.61970232999999997        0.0000000000000000     
  0.29935165000000002       0.62852803999999995        0.0000000000000000     
  0.28459435999999999       0.64121777000000002        0.0000000000000000     
  0.26698675999999999       0.63435282999999998        0.0000000000000000     
  0.24031983000000001       0.64700659000000005        0.0000000000000000     
  0.33118850000000000       0.50233682999999996        0.0000000000000000     
  0.35257061000000001       0.51072803000000000        0.0000000000000000     
  0.29038973000000001       0.78732479000000000        0.0000000000000000     
  0.28737915000000003       0.76752330999999996        0.0000000000000000     
  0.21978159000000000       0.73315437000000006        0.0000000000000000     
  0.18119734000000001       0.76257752999999995        0.0000000000000000     
  0.20353571000000001       0.75186065999999996        0.0000000000000000     
  0.39122694000000002       0.49007234000000000        0.0000000000000000     
  0.59140473999999998       0.13507609000000001        0.0000000000000000     
  0.53156702000000000        9.7663528999999999E-002   0.0000000000000000     
  0.76346223999999996       0.39657278000000001        0.0000000000000000     
  0.41119013999999998       0.52354409999999996        0.0000000000000000     
   7.2558165999999993E-002  0.26885883999999999        0.0000000000000000     
  0.10497347000000000       0.79895936000000001        0.0000000000000000     
[...]
 CELL_DATA        2963
 SCALARS Tumor_cells float
 LOOKUP_TABLE default
    0.69645038214652637541E-08
    0.79987545263588667774E-08
    0.10908674928405345053E-07
    0.10692863635754357272E-07
    0.89360489284027720993E-08
    0.90896084429946908631E-08
    0.10450119190397084129E-07
    0.10904198999427488585E-07
    0.77181914033184449571E-08
    0.28829689763872311248E-02
    0.11855615639311275843E-07
    0.10893520031221618548E-07
   -0.69088948559571657693E-08
    0.63360585468241005154E-08
    0.98593369338081660056E-08
   -0.39875620498776043000E-07
   -0.31394428909804680140E-07
    0.10901793763545220053E-07
    0.97089469774680942867E-09
   -0.91316763785809189784E-09
    0.10727759620614338089E-07
    0.16205735655995517214E-01
    0.10819856163245628045E-01
    0.98066332698468301029E-08
    0.57197433997599358366E-08
    0.50107937809461139929E-09
    0.19882243994943740036E-08
    0.44372078695137468887E-08
    0.10447441715088182363E-07
    0.75449288940641233675E-08
    0.10767356191439559908E-07
    0.87006761185884331070E-08
    0.87797888350211384097E-08
   -0.18633799285025112301E-08
    0.74436135239826679249E-08
    0.34907415581170460526E-07
    0.79770991653416743873E-08
    0.77306887051656700379E-08
    0.94946768831871880000E-08
    0.28806391178010201833E-03
    0.45854623209122751626E-08
    0.10295322611910827557E-07
    0.10812668634132156293E-07
    0.95613514812877930850E-08
    0.10891288956340895270E-07
   -0.49442368269854370605E-08
    0.12878656846601076911E-08
    0.68694738304945788976E-08
    0.70778353187748543894E-08
    0.81399803725338325176E-08
   -0.68702033394365046160E-09
    0.11659061433888838297E-08
    0.10451604046159792730E-07
   -0.14541059642724507410E-07
    0.10708421182433262207E-07
    0.91605079322999725095E-09
    0.10114810216563408962E-07
   -0.12386833261505987321E-07
    0.46116344216458361052E-07
    0.10862210003879825177E-07
    0.17895550321390381501E-08
    0.88376642063688936256E-08
    0.11005574675342953131E-07
    0.10299537628091686648E-07
    0.76852476247846077270E-08
    0.15191439670165313694E-09
    0.13897374851269786409E-05
   -0.18226411076082513548E-07
    0.76787832869264049940E-01
    0.10792865740927915311E-07
    0.10651928008083243923E-07
    0.54038775833072874265E-08
    0.36813637665252560268E-08
    0.88939684872039890554E-08
    0.16018860089738460369E-03
    0.10241608882797831499E-03
    0.13753387681715918689E-01
    0.85520596770403797776E-08
    0.67327598311419225148E-08
    0.10168198713671263246E-07
    0.98633702712686400739E-08
    0.65498249050707225603E-08
   -0.15323067812132754174E-08
    0.24138458058060714012E-01
    0.49522308210601666846E-08
    0.12000510349172893484E-07
    0.62418355060204945414E-08
    0.10858384622306007695E-07
    0.10268020408243180296E-07
    0.52319394583637297340E-08
    0.10528513613317483764E-07
   -0.20506046097563512547E-09
    0.10228948429502449091E-01
   -0.33952948792374635441E-07
   -0.29478530053180299727E-07
   -0.50356859835908835692E-08
    0.14007195924914167887E-01
    0.10873754693048167190E-07
    0.35148665538524758489E-08
    0.10844373587205718875E-07
    0.45459135553836830605E-08
    0.67196941283734564226E-08
   -0.21436287633007354294E-08
    0.91965822337065068933E-08
    0.60133593339372661007E-08
    0.95966121772123523301E-08
    0.10311308795791116100E-07
    0.75602501239396897650E-09
    0.66587590042879987896E-08
    0.10472044722674726657E-07
    0.10395655760860608007E-07
    0.57465822562786599650E-08
    0.33562195863419383431E-08
    0.10855275625699936268E-07
    0.10871850327200046015E-07
    0.80034702338363589002E-08
    0.92111977644838348183E-08
    0.10503694799710914879E-07
    0.19594893258463908642E-01
   -0.20497176723746502420E-07
    0.63561022370209988275E-08
    0.11171385141160816560E-07
    0.87681966560334638081E-08
   -0.77739711894918285335E-09
    0.92055865308547504418E-08
    0.17994213910137480615E-08
    0.49540006464307928485E-08
    0.92399579157159423211E-09
    0.10490694917636559171E-07
   -0.12135395634913754618E-07
   -0.36961829329963968073E-08
    0.50789618670651287160E-08
    0.71934394117245592168E-02
   -0.24524777349760856036E-07
   -0.75593791863100865823E-08
   -0.48315338024577330716E-07
   -0.73017131542508019428E-08
    0.11896341800743508860E-07
    0.30680662911324325414E-08
    0.11916645778156611477E-07
   -0.32303381125743768666E-07
    0.61910322525070795564E-09
    0.48933105216067508680E-01
    0.34856185366134501057E-08
   -0.42198042770897915447E-08
   -0.34859515549116328971E-07
    0.10691043041970179841E-07
   -0.24463289448906267917E-07
    0.10776733478764067323E-07
   -0.35784347796329305501E-08
    0.10418205600937248979E-07
    0.89344582470778005634E-01
   -0.66201652679915774757E-08
    0.10786454198401143220E-07
   -0.47470350881596444268E-07
    0.59660689854199482055E-08
    0.83251332830825198886E-08
    0.87611092438491320334E-08
    0.51357584016494423568E-08
   -0.28286209724831076886E-07
    0.95521753346870196652E-08
   -0.19752393368498925876E-08
   -0.31650476954106105058E-08
    0.10418124628259658881E-07
    0.35231329955183401328E-08
   -0.21253891296188533412E-07
   -0.16432443834685567756E-08
    0.10730084197932946293E-07
    0.96196116549964842679E-02
   -0.18736246989617770729E-07
    0.26685347311080288152E-01
    0.21872304569706529275E-08
   -0.29949762188855693869E-07
    0.25463155585090526714E-09
   -0.16614816984396618920E-07
   -0.41818884878932156630E-07
    0.10109503183205003914E-07
    0.10667597756226711206E-07
    0.33383500771009053511E-08
   -0.29862838954278726459E-08
    0.32343898744512625427E-02
    0.54764998686729283970E-08
   -0.51462558204023191867E-07
    0.82593920103708403841E-08
   -0.15267646996933143279E-07
   -0.29616587552543173234E-07
    0.10889429872964882640E-07
    0.32100666564327652764E-08
   -0.14093254685181719164E-08
    0.64678451773376730707E-08
    0.10299560110985762534E-07
    0.44647087831910264866E-01
    0.74971637811998739457E-08
   -0.63318155966079630941E-08
   -0.24354581728662880457E-08
   -0.19031516807876715991E-08
    0.94017051816733636371E-02
    0.58394073823251580830E-08
   -0.57570666046741457708E-08
    0.22735197657957050570E-08
    0.36655802981354535919E-07
    0.93538109146418858287E-08
    0.97228371666300019823E-08
    0.13818636133363653538E-08
    0.11059877900723486324E-01
    0.10644112978756024857E-01
   -0.28566010832870409013E-08
    0.10478212768813733799E-01
    0.69252306876262853530E-01
    0.82865341069458161524E-08
   -0.36356379136579936586E-07
    0.15199926951903352038E-01
    0.14018078187123842251E-01
    0.78834648262288147227E-08
    0.94611419255232203346E-08
    0.10903628019785233910E-07
    0.25985197375016431494E-08
    0.83123138915365487557E-08
    0.83210566976150385198E-08
    0.96774873744457238876E-09
    0.10074065711537694693E-07
    0.79188815333150415399E-08
    0.11390140079019298043E-07
   -0.70073198164696611582E-08
    0.10527247238547489999E-07
    0.10088532170345315289E-07
    0.11229079880994845309E-07
   -0.40052420824343369942E-08
   -0.47224997164623761722E-08
    0.15628425323347316021E-08
    0.65544708709839110301E-08
   -0.12993652897252399441E-07
    0.10119681089684496815E-07
    0.58828061755569434946E-08
    0.10081553416090729670E-07
    0.10705210349810419094E-07
    0.11419037863393515779E-07
    0.20518360062878839986E-05
    0.21911494729590863528E-01
    0.69488850673784310907E-01
    0.10509423188302290613E-07
    0.99263976748395878121E-08
    0.52394895419399425590E-06
    0.66555103391290173012E-02
    0.13058032339658820833E-01
   -0.10432076516360493237E-10
    0.53175270865819284114E-08
    0.10777475209434005236E-07
    0.95162559309427561915E-09
    0.43951714024061443176E-01
    0.21030974718087489667E-01
    0.19535524807458907047E-08
    0.14385383311635501787E-08
    0.41376322351022960799E-01
   -0.13995157594803849447E-07
    0.20199298124368397094E-09
    0.10242766036060431897E-07
    0.46203097894667868014E-08
    0.17896417635513150318E-01
    0.62675375044070893453E-08
    0.25882553147656969100E-01
    0.24881514607117939664E-01
    0.21162874040950029747E-01
    0.99572103607732262467E-08
    0.10767921527528638570E-01
   -0.97804038056798938138E-08
    0.16269731023964353889E-01
    0.26722101296922984304E-01
    0.73866495231066693760E-08
    0.10226501293900722156E-01
    0.59794883930171235625E-08
    0.10273124655970301409E-07
    0.16587457780606777030E-01
    0.10226505894609969548E-07
   -0.42550890517207439614E-09
    0.10903583582957613565E-07
    0.10773327610656096461E-07
    0.10820835354667185660E-07
    0.10724183724647745163E-07
   -0.62820339696666177710E-07
    0.10923116618916917885E-07
   -0.37120543333297024312E-07
    0.10784171426082628496E-07
    0.90786668700353338009E-08
   -0.29800961110290407213E-08
   -0.18660102197265911637E-08
    0.75340080133528793734E-03
   -0.64507603687251828628E-07
    0.27215172516741599781E-09
    0.88959481975660714225E-08
    0.63027441703051877265E-08
    0.21554600910398434820E-08
    0.79130763209630519368E-08
    0.17557609304596365051E-08
   -0.27120365577845838105E-07
    0.32868191769053029067E-06
    0.11407478148211870658E-07
    0.74222206906461070648E-08
    0.12761077866159801011E-01
   -0.46749566283508039344E-08
    0.25479569964919467024E-08
    0.10668895810791161019E-07
   -0.29208799742044883500E-07
    0.10638916263001604135E-07
    0.10482650157106456327E-07
   -0.54750743286533543577E-08
    0.17264698280197536811E-02
    0.10353117738688897824E-07
    0.46679757375035747791E-01
    0.80194078090325954042E-08
   -0.40008389667401371364E-07
   -0.19565908155076243779E-08
    0.68888846233857120801E-08
    0.90100008564201974493E-08
    0.10694122711897334524E-07
    0.11899128369077016586E-07
   -0.24441993169828775003E-08
    0.11666177859623271666E-07
    0.10622415309239722380E-07
    0.10086270978068747486E-07
    0.45068959930060756154E-08
    0.80275725501317742215E-08
    0.90179578138569691937E-08
   -0.21443772459723575339E-07
    0.84349611585074888573E-08
    0.34889170815325159116E-07
    0.10906138418442567107E-07
    0.54403753481766357987E-08
    0.97273868718794599877E-08
    0.21277942554799899371E-08
   -0.12689081272473386103E-07
   -0.30049222599322035915E-08
    0.12013135863586809720E-07
    0.12001642666970008912E-07
    0.56539136225683337286E-09
   -0.67305207897369545399E-08
    0.88759227109001738918E-08
   -0.36149499449792863583E-07
    0.11343237562773430400E-07
   -0.98159762502013538503E-08
   -0.34360007456121403653E-09
    0.11676920088616985889E-07
    0.26296711656066188969E-08
   -0.70952526608409963265E-08
    0.17368487395607312695E-01
    0.23106889570772070286E-07
    0.16201198630407041775E-09
   -0.27641787104961628092E-07
   -0.92339555543491651727E-08
    0.84938243556434819978E-08
    0.91352107642644126101E-08
    0.98075604362815723958E-08
    0.65098205933173318563E-08
   -0.15349828879476416074E-09
   -0.74961532241645469649E-08
    0.56258943396952805133E-08
    0.10822854394543356126E-07
    0.89899303224169840857E-08
    0.10182639756623548901E-07
   -0.31381661610127411981E-08
    0.13671028805358508807E-08
    0.10829231387534000918E-07
    0.10896718410151034219E-07
   -0.13523934126657539381E-08
    0.10761536971552498055E-07
    0.28319018561057252094E-08
    0.62192022451264645021E-08
   -0.11140667625092635049E-09
    0.55553407679879145131E-01
    0.10278039393215863614E-01
    0.10628671579156152849E-01
    0.10584708672570926000E-01
    0.10327949259663101247E-01
    0.10576668688212978800E-01
    0.11236292011349830952E-01
    0.12162117700658687386E-01
    0.11347449370891684456E-01
    0.11727434078530694223E-01
    0.11002312183508869761E-01
    0.13168557097563959521E-01
    0.10472996588186518629E-01
    0.10826731123765675688E-01
    0.98006467174461666423E-08
    0.62768741472227486798E-08
    0.10669882965067287258E-07
    0.66685176137530077208E-08
    0.64836923445707552758E-08
   -0.49545522651386318272E-08
   -0.10400394848897462333E-07
   -0.15905192616198793905E-09
    0.33787587052007632947E-08
   -0.65604747650768839767E-09
    0.16384963564838229224E-08
    0.52926984452889727906E-08
    0.13564631640042278020E-08
    0.29818927789719943124E-08
   -0.12266390081241805530E-08
    0.60957099940603492042E-08
    0.11238640292112846167E-07
    0.10297245033187604362E-07
   -0.50275410492968300101E-08
   -0.10921372777196392778E-07
    0.62531059385385705501E-03
    0.29564772709625824402E-06
    0.58028428987881889701E-08
    0.10676077054515264324E-07
    0.10244458892753399525E-07
   -0.10170520329225118058E-07
    0.10340959187957110534E-07
    0.92709204247304489330E-08
    0.84881517484449856853E-08
    0.91306694632258326872E-08
    0.49479840177112791622E-08
    0.12001012585414476568E-07
    0.16167244605144029390E-01
    0.26091993655187811080E-01
    0.79788600082329980067E-08
   -0.77278108874706926678E-08
    0.10734993749521927988E-07
    0.51726876906014580153E-08
    0.10862828011772458459E-07
    0.13681664362602075772E-08
    0.38756776941241515642E-08
    0.14971363066249509036E-01
    0.23740078660516888975E-01
    0.59057239331527965099E-08
   -0.14300807859314272589E-08
    0.44938274666563205669E-08
    0.94990866269846919582E-08
    0.11142043186166407115E-07
    0.10308029715379876590E-07
   -0.99708599047193999962E-08
    0.45145503915941451315E-08
    0.41494752981534191405E-08
    0.99431199744987979085E-08
   -0.14304461830330120884E-08
   -0.22945914610336861736E-08
    0.97155281597116348339E-08
    0.54646198412658702733E-08
    0.46400746789502687671E-08
    0.54351539959633038370E-08
    0.64614088331265589601E-08
    0.10887133689010461944E-07
    0.99128310488410164672E-08
    0.91130693550817477439E-08
   -0.19323373900473119639E-07
    0.37739232985689419192E-08
   -0.13580022794377313069E-07
    0.10860608924149283059E-07
    0.10858620630206895237E-07
    0.79725688978515583825E-08
   -0.25372277124527401007E-08
    0.10825484878760835832E-07
    0.68676659973586601974E-08
    0.13255216845920086193E-08
   -0.10229921619158893750E-08
   -0.12083062614348468305E-07
   -0.17953953002816888869E-07
   -0.16652582989747582403E-07
   -0.15443888883855140264E-07
    0.23941855019030094942E-01
    0.12125973311865226312E-01
    0.53688014421330448878E-01
    0.15098669112987742752E-01
    0.90960023866570985692E-08
    0.11397282125711976289E-07
    0.74379401374716557293E-08
    0.40995190444748223158E-08
    0.10674922053124885298E-07
    0.93985280406427224026E-08
    0.92597094185119711155E-08
   -0.14850579595427051194E-07
   -0.10920525287493606384E-07
   -0.13565545075747050635E-07
   -0.12084638936995318109E-07
    0.10091116283726776396E-07
    0.86073373983939053571E-08
    0.67090762070830046751E-08
    0.19490733031700997894E-08
   -0.67933855846000928405E-08
   -0.72046464677020320033E-08
    0.49140512638066792147E-08
    0.59401616982502954698E-08
   -0.17321101173955211788E-08
   -0.16397242367648459046E-07
    0.90629333939804802263E-09
   -0.30774320512373297887E-07
    0.12530931814631476342E-07
   -0.25841881680064399047E-07
    0.92766250191824512769E-08
   -0.66847966470599783995E-10
    0.63738583524567562413E-08
   -0.50568775027732165210E-08
    0.10040036573396055996E-07
   -0.36379624980045931273E-08
   -0.35123862873967951171E-09
    0.70302744524434416231E-08
    0.88740070086928587600E-08
    0.17343824045987315391E-01
    0.11514982259967821571E-01
    0.47662038896884541075E-08
    0.11723394067724883275E-07
    0.10425252116238174160E-07
    0.80856569316864433707E-09
    0.53643247752561693701E-08
    0.37650719324126238597E-08
    0.58344612136833872347E-08
    0.75400470438424337335E-08
    0.82840598670822375088E-08
    0.87253623234677476568E-08
    0.90954228799059884598E-08
    0.77704615004678311539E-08
    0.63765949261674975679E-01
    0.62093882605125362562E-01
    0.65336003148903115667E-01
    0.18601592888220983002E-01
   -0.46141472159989698298E-08
    0.80015425927715226337E-08
    0.84828465831168215007E-08
    0.13234408316915890137E-08
   -0.89833513002176440441E-09
    0.10293730246418994774E-07
    0.56736200681443727028E-08
   -0.64299913147124395603E-08
   -0.22725345088429922848E-07
   -0.11014861985160716026E-07
    0.77949013026923831837E-08
   -0.39829992623221859161E-08
    0.62564451954079760645E-09
    0.86107419322583868089E-08
    0.64827753017193095588E-09
   -0.15377723979369793079E-07
    0.38964774196720014458E-05
   -0.21341464839180943226E-07
   -0.18448398826263635167E-07
    0.16807296389645139005E-08
   -0.17311230491226241806E-07
    0.51623630408986988677E-06
    0.78964665167944628881E-08
   -0.23936818454938394386E-08
    0.91801057333765333284E-08
    0.95347884099120567038E-08
    0.51738453906929666439E-08
   -0.33022240810011592104E-08
    0.22503528855749729530E-09
    0.35022208426645339881E-08
    0.69597491251661092524E-08
    0.95464892177069875375E-08
    0.11867328767295283908E-07
    0.11918433146838296843E-07
   -0.15050115789224969190E-08
    0.14465648247584763971E-08
    0.11543693840050358774E-07
    0.11749094350568753827E-07
    0.10873506621012305139E-07
    0.11096920051429887765E-07
    0.11639732081626380648E-07
    0.11933471379712184255E-07
    0.10373597393337306493E-07
    0.82228370490784864698E-08
    0.10515951904164519428E-07
    0.63116959158840196366E-08
    0.94071634553149591465E-08
    0.10799985055798633827E-07
    0.85431257594032820182E-08
    0.88664184366147006359E-08
    0.73053409527417093896E-08
    0.98220929139245334775E-08
    0.89486914088032966270E-08
    0.10825366760932759731E-07
    0.66532055209139850938E-01
    0.23341850914153128987E-01
    0.35089989231089876225E-08
    0.15450199986593017920E-09
   -0.43794410273413796415E-08
   -0.16328786399730549961E-08
   -0.10566553716575833847E-07
    0.65173472851144402739E-08
    0.83440577141394369487E-08
    0.10403174857957994545E-07
    0.28771585757266764927E-08
   -0.12028268211633565447E-07
    0.51065749944297053892E-08
    0.62691233671499805057E-08
    0.99204243823513655548E-08
    0.76514403998224786874E-08
    0.10871474187883742098E-07
    0.98146013919298861847E-08
   -0.20104988558842945412E-08
   -0.53725677110631691635E-08
    0.53660119365121562616E-08
   -0.13440238390246240055E-07
   -0.22164349003048867045E-09
   -0.30552842015304945627E-08
    0.50971802651006333585E-08
   -0.96332361625338667762E-08
   -0.14831230961919166981E-07
   -0.94268103596561248797E-08
   -0.11440675388957513139E-07
    0.21019734110879910962E-09
    0.21063058632174786106E-03
    0.27524720901508917073E-06
    0.15246048978419437375E-01
    0.32813455402742456625E-02
   -0.21152487895720089523E-07
    0.40488742398864348909E-08
    0.10957842538021274806E-07
    0.11240088903238241977E-07
   -0.29639311618812638132E-08
    0.24467171218309274729E-08
    0.21956270284629247661E-09
    0.44129628863373619975E-08
    0.83272596018810276591E-08
    0.76423989459218561392E-08
   -0.11055494202640011796E-08
    0.41185377772620021485E-08
    0.98695952248824531328E-08
    0.64533145234189548071E-08
    0.11881796490957865156E-07
    0.10771364757477135964E-07
   -0.11239787027663930615E-07
   -0.32014338849230565018E-08
    0.11663923467989767820E-07
    0.11489796181684704391E-07
    0.83257678262658878594E-08
    0.95804551166932358968E-08
    0.10912968071855817847E-07
    0.96375280318689827730E-08
    0.99680899098924920267E-08
    0.37878225740537358292E-08
   -0.61778593183276561535E-07
   -0.40532263565837342370E-09
    0.10254452303946657990E-07
    0.79517470693113935896E-08
    0.16773862147586168355E-08
    0.59413291719677903201E-08
    0.76593613831772876439E-04
    0.91312053914105004041E-08
   -0.14316012786703764556E-07
   -0.10096471418991775296E-07
    0.46583643743894457672E-08
    0.11959053592425505771E-08