# vtk DataFile Version 3.0
LAPLACIEN  2D
ASCII
DATASET UNSTRUCTURED_GRID
 POINTS        1616  float
  0.45880792999999997       0.87913892999999999        0.0000000000000000     
  0.40372658000000000       0.18243693000000000        0.0000000000000000     
  0.52563972999999997       0.19039755999999999        0.0000000000000000     
  0.45642953000000003       0.24226190000000000        0.0000000000000000     
  0.51984098000000001       0.24548566999999999        0.0000000000000000     
  0.21212766999999999       0.18957676000000001        0.0000000000000000     
  0.28573643999999998       0.48586826999999999        0.0000000000000000     
  0.49667887999999999       0.82979849000000006        0.0000000000000000     
  0.22848407000000001       0.23366793000000000        0.0000000000000000     
  0.27860389000000002       0.86069733000000004        0.0000000000000000     
  0.36563702999999997       0.80971340999999997        0.0000000000000000     
  0.28045499000000002       0.80393031999999998        0.0000000000000000     
  0.40374228000000001       0.78127665000000002        0.0000000000000000     
  0.56160891999999996       0.55341227999999998        0.0000000000000000     
  0.37210935000000001       0.26787699999999998        0.0000000000000000     
  0.49899838000000002       0.57286409999999999        0.0000000000000000     
  0.41023869000000002       0.33464665999999998        0.0000000000000000     
  0.33484156999999998       0.29151022999999998        0.0000000000000000     
  0.46758665999999999       0.58262307999999996        0.0000000000000000     
  0.43303693999999998       0.36569945999999998        0.0000000000000000     
  0.25741280000000000       0.61805882999999995        0.0000000000000000     
  0.28853707000000001       0.59423020000000004        0.0000000000000000     
  0.67837254000000002       0.45038665999999999        0.0000000000000000     
  0.42159046000000000       0.50697913999999999        0.0000000000000000     
  0.60276470999999998       0.73940291000000002        0.0000000000000000     
  0.30758273000000003       0.77844542000000005        0.0000000000000000     
  0.45367541000000000       0.31842187000000000        0.0000000000000000     
  0.36974101999999998       0.35807864000000000        0.0000000000000000     
  0.26919625000000003       0.65312176000000000        0.0000000000000000     
  0.61908110999999999       0.42741791000000001        0.0000000000000000     
  0.54442267000000000       0.74200747000000000        0.0000000000000000     
  0.58930464999999999       0.41588288000000001        0.0000000000000000     
  0.51511633000000001       0.74331579000000003        0.0000000000000000     
  0.12878382999999999       0.33122940000000001        0.0000000000000000     
  0.15534365000000000       0.71749246000000000        0.0000000000000000     
  0.64877724999999997       0.30161799000000000        0.0000000000000000     
  0.58853643000000000       0.28101930000000003        0.0000000000000000     
  0.56390348000000001       0.30132482999999999        0.0000000000000000     
  0.29605991999999998       0.44474459999999999        0.0000000000000000     
  0.29900669000000002       0.52983276000000001        0.0000000000000000     
  0.55954318999999997       0.48654808999999999        0.0000000000000000     
  0.42341458999999998       0.38785072999999998        0.0000000000000000     
  0.45806291999999998       0.35892998999999998        0.0000000000000000     
  0.47820750000000001       0.31147424000000001        0.0000000000000000     
  0.36344222999999998       0.38139388000000002        0.0000000000000000     
  0.17186508000000000       0.28159534000000003        0.0000000000000000     
  0.18029876000000000       0.33292397000000001        0.0000000000000000     
  0.20696366999999999       0.71822465999999996        0.0000000000000000     
  0.61326404999999995       0.34468346000000000        0.0000000000000000     
  0.29887186999999998       0.42337377999999998        0.0000000000000000     
  0.33271837999999998       0.44383096000000000        0.0000000000000000     
  0.31835012000000001       0.54267131999999996        0.0000000000000000     
  0.54882964999999995       0.45462609999999998        0.0000000000000000     
  0.20448143999999999       0.28717446000000002        0.0000000000000000     
  0.20634120000000000       0.33378063000000002        0.0000000000000000     
  0.23301781999999999       0.71859421999999995        0.0000000000000000     
  0.58606499999999995       0.35199907000000002        0.0000000000000000     
  0.20841100000000001       0.45369578999999999        0.0000000000000000     
  0.24778198000000001       0.77708496000000005        0.0000000000000000     
  0.30748062999999998       0.61002621000000001        0.0000000000000000     
  0.23337332000000000       0.41981835000000001        0.0000000000000000     
  0.25985113999999998       0.75924943000000000        0.0000000000000000     
  0.24610213000000000       0.40254353999999998        0.0000000000000000     
  0.37350351999999998       0.50127178999999999        0.0000000000000000     
  0.43235204999999999       0.78236391000000005        0.0000000000000000     
  0.30749858000000002       0.28582627999999999        0.0000000000000000     
  0.30336816000000000       0.64635111000000001        0.0000000000000000     
  0.31418906000000002       0.43625961000000002        0.0000000000000000     
  0.27223414000000001       0.78063022000000004        0.0000000000000000     
  0.22829299000000000       0.75089561000000005        0.0000000000000000     
  0.26580239000000000       0.42989294000000000        0.0000000000000000     
  0.37369119000000001       0.51975733999999996        0.0000000000000000     
  0.39681665999999999       0.51027884000000001        0.0000000000000000     
  0.32086795000000001       0.65137668999999998        0.0000000000000000     
  0.31757218999999998       0.62987181000000003        0.0000000000000000     
  0.32959777000000001       0.42500900000000003        0.0000000000000000     
  0.24663835000000001       0.74537787000000000        0.0000000000000000     
  0.26354222999999999       0.41075105000000001        0.0000000000000000     
  0.28343712999999998       0.43221330000000002        0.0000000000000000     
  0.34682245000000000       0.43182289000000001        0.0000000000000000     
  0.35306810000000000       0.45344571000000000        0.0000000000000000     
  0.57327218000000002       0.15829040000000000        0.0000000000000000     
  0.51473097999999995       0.12621746000000000        0.0000000000000000     
  0.72829681999999996       0.40151571000000003        0.0000000000000000     
  0.42703184999999999       0.53501600999999999        0.0000000000000000     
  0.32612607999999998       0.75472421999999995        0.0000000000000000     
   9.9814849999999997E-002  0.28081352999999998        0.0000000000000000     
  0.13945825000000001       0.78732252999999996        0.0000000000000000     
  0.44199519999999998       0.38275643999999998        0.0000000000000000     
  0.40132215999999998       0.36508836000000000        0.0000000000000000     
  0.43963142999999999       0.34043466999999999        0.0000000000000000     
  0.47160058999999999       0.33493045999999999        0.0000000000000000     
  0.45615203999999998       0.28038164999999998        0.0000000000000000     
  0.34321279999999998       0.35314412000000001        0.0000000000000000     
  0.29178279000000001       0.56170810000000004        0.0000000000000000     
  0.49833080000000002       0.48416767999999999        0.0000000000000000     
  0.46386271000000001       0.46452802999999998        0.0000000000000000     
  0.44722043000000000       0.45300645000000000        0.0000000000000000     
  0.46562803000000003       0.44419790999999997        0.0000000000000000     
  0.43925322000000000       0.48229485999999999        0.0000000000000000     
  0.49117628000000002       0.45665803999999999        0.0000000000000000     
  0.43435156000000003       0.46523363000000001        0.0000000000000000     
  0.19405754000000000       0.31093060000000000        0.0000000000000000     
  0.22069087000000001       0.66905079000000001        0.0000000000000000     
  0.30776597999999999       0.59042684000000001        0.0000000000000000     
  0.29541507000000000       0.57849362000000004        0.0000000000000000     
  0.28335474999999999       0.61970232999999997        0.0000000000000000     
  0.29935165000000002       0.62852803999999995        0.0000000000000000     
  0.28459435999999999       0.64121777000000002        0.0000000000000000     
  0.26698675999999999       0.63435282999999998        0.0000000000000000     
  0.24031983000000001       0.64700659000000005        0.0000000000000000     
  0.33118850000000000       0.50233682999999996        0.0000000000000000     
  0.35257061000000001       0.51072803000000000        0.0000000000000000     
  0.29038973000000001       0.78732479000000000        0.0000000000000000     
  0.28737915000000003       0.76752330999999996        0.0000000000000000     
  0.21978159000000000       0.73315437000000006        0.0000000000000000     
  0.18119734000000001       0.76257752999999995        0.0000000000000000     
  0.20353571000000001       0.75186065999999996        0.0000000000000000     
  0.39122694000000002       0.49007234000000000        0.0000000000000000     
  0.59140473999999998       0.13507609000000001        0.0000000000000000     
  0.53156702000000000        9.7663528999999999E-002   0.0000000000000000     
  0.76346223999999996       0.39657278000000001        0.0000000000000000     
  0.41119013999999998       0.52354409999999996        0.0000000000000000     
   7.2558165999999993E-002  0.26885883999999999        0.0000000000000000     
  0.10497347000000000       0.79895936000000001        0.0000000000000000     
[...]
 CELL_DATA        2963
 SCALARS VEGF float
 LOOKUP_TABLE default
    0.31394627368172086008E-04
    0.18694970759347974247E-03
    0.12547296325284601113E-03
    0.10634088548889846155E-03
    0.13183908900967034419E-03
    0.53073493355446791969E-04
    0.52206372316199247958E-04
    0.20345678521199695669E-03
    0.23526625330692109314E-04
    0.54569014033725082510E-02
    0.14094979479798268600E-03
    0.16049640790661252941E-03
    0.89966544784891893305E-04
    0.18000189254542586000E-03
    0.25032261527267320964E-04
    0.84019354615611096149E-04
    0.43497608295001086165E-02
    0.87830444099623223328E-04
    0.56754171426402592882E-04
    0.31665996464257296526E-03
    0.18187064337726505689E-03
    0.93954420340988890198E-02
    0.88000314124149024014E-02
    0.32290693815044261335E-03
    0.67650567459050573154E-03
    0.53384517364493298212E-03
    0.25897378084951245235E-03
    0.49331637916633761421E-04
    0.12969561170344734631E-03
    0.20193531734559092396E-03
    0.77485522176907182298E-03
    0.29782224669281456852E-04
    0.22965524947300038614E-03
    0.97549607441310660309E-03
    0.19063347952548930593E-03
    0.29830501149653089769E-03
    0.19034106436008444048E-03
    0.12064062698856432756E-02
    0.77490720044231479070E-04
    0.41311147680003412405E-02
    0.83069519810192245408E-04
    0.12048198858262425032E-03
    0.45786855809673739082E-03
    0.22621505049599997480E-03
    0.25910730490688311904E-04
    0.22780154541065544306E-02
    0.76387254549475789222E-04
    0.35084704611167648585E-04
    0.19249435050166307051E-03
    0.26877914175061154981E-04
    0.17897198181037151429E-02
    0.10560306532502430541E-03
    0.98290210679098023619E-04
    0.12713085034592728258E-03
    0.13295185129199002028E-03
    0.15388599238396335426E-02
    0.84866503278095397006E-04
    0.12858019126758932389E-02
    0.36096244459702859532E-02
    0.10098867096547843863E-03
    0.31635503308162886416E-02
    0.19784268762763703472E-03
    0.42962539788196419971E-04
    0.31667089364545020355E-04
    0.15643151249447801495E-03
    0.27010613272267711138E-02
    0.54452014769875258567E-03
    0.33542651334487832114E-02
    0.73856115140353518697E-02
    0.90636960125465491868E-04
    0.79266225304890409087E-04
    0.28805246677420445756E-02
    0.18417385387633054979E-03
    0.14842028450796115446E-03
    0.52779660758830180059E-02
    0.53914190733500661976E-02
    0.90856157152855686332E-02
    0.42234480937855421387E-02
    0.99821434321919376908E-04
    0.25330533879065939527E-02
    0.32982204184737846865E-04
    0.19179139658702466700E-02
    0.33877032137423998027E-02
    0.69812080579718374315E-02
    0.87482005224516837250E-03
    0.17629427273998954525E-03
    0.90315792292580885617E-04
    0.35815697838185544914E-03
    0.47327416391839045341E-03
    0.39300909450213494930E-04
    0.28090361314544082293E-03
    0.18750648139660727829E-02
    0.86656947564668924261E-02
    0.14574011820678645698E-02
    0.55847548507627668094E-03
    0.12219816228948169115E-02
    0.91932818234257418499E-02
    0.24498189234905729493E-03
    0.17325030936336715463E-03
    0.13753141786246975923E-03
    0.14619369116094127915E-03
    0.33381589123447944715E-03
    0.18471818736538500420E-02
    0.20041461966806043099E-03
    0.21105502548497290932E-02
    0.66181297540825604936E-04
    0.19576613270133624324E-03
    0.38871470615351763720E-04
    0.20639787729249460015E-02
    0.12975730280533038195E-03
    0.10942369345785065750E-03
    0.12655688744501024530E-03
    0.73844776075176311132E-04
    0.11725437009967432220E-03
    0.56175989037801422378E-04
    0.11796947871689790455E-03
    0.32141924301951271001E-04
    0.39329529813419430127E-04
    0.65627805016129038204E-02
    0.34325868480839204222E-02
    0.12398704955368620453E-03
    0.60797121632005527640E-04
    0.12430546445253107821E-03
    0.10354164687337665852E-02
    0.10040271992567410722E-03
    0.78633158219005671978E-03
    0.55461404984368729604E-04
    0.24437105809980825231E-02
    0.10700394875408124687E-02
    0.36834894831038688355E-02
    0.82177032165817718613E-03
    0.12419278429857949757E-02
    0.48358527171846283840E-02
    0.85115205269542981888E-03
    0.16547405287717364963E-02
    0.30648802800706115290E-02
    0.30987863341948836474E-02
    0.62873035919446549138E-03
    0.81529615824532506883E-04
    0.10237855590220252145E-02
    0.37274541173006494992E-02
    0.69062736170752197975E-03
    0.83346911350559559767E-02
    0.27359106871537378081E-02
    0.22404721489230829297E-02
    0.72708741164079064047E-03
    0.14349649130579114490E-03
    0.79180334747227306292E-03
    0.10547506957045245574E-03
    0.29923985918541666507E-02
    0.18960640497038222063E-03
    0.84677050037733157112E-02
    0.24268449771685574913E-02
    0.68908027283021459301E-03
    0.17742477318137718631E-03
    0.14326369864475871786E-03
    0.11104702786623383876E-03
    0.18804670687432576467E-03
    0.17050713626195262095E-03
    0.17304365389006956251E-03
    0.18134445882113237720E-03
    0.15431927408787718859E-03
    0.61558716592754862424E-03
    0.72523380263656792716E-03
    0.14743404401592905624E-03
    0.19370456513475204936E-02
    0.10513489768181930007E-03
    0.11601769090925652915E-02
    0.63530054740668865515E-02
    0.87634973232220473010E-03
    0.76754783848936147111E-02
    0.16835999692869579674E-03
    0.17405774048589431249E-03
    0.15582429763039277234E-02
    0.14577413356343357819E-03
    0.13577385579446733083E-03
    0.29848490947721891507E-03
    0.17407337181052991333E-03
    0.97235211785116557048E-04
    0.10755235035926275010E-03
    0.58308359159129630189E-02
    0.23787267467247777213E-03
    0.32730086080430640261E-03
    0.12373400103202062458E-03
    0.15105365665123434240E-03
    0.15694145341978450714E-03
    0.12804394638094387417E-02
    0.49083901392975271775E-03
    0.27457278237804677752E-02
    0.82050049407249601779E-04
    0.15320634731322705703E-03
    0.62350543752872971889E-02
    0.68281237767919996089E-04
    0.11312909753608715153E-03
    0.23650448806005132558E-02
    0.10764400612502210820E-03
    0.43124692577677266325E-02
    0.10707413515722496652E-02
    0.51910773953725802658E-03
    0.12319879912603493911E-03
    0.28109347929874495351E-03
    0.17435274679802382526E-03
    0.14414923385186402581E-03
    0.16700753793327945910E-02
    0.86287437618051219396E-02
    0.86859178818768697367E-02
    0.13820660344466082631E-02
    0.87023794354524220546E-02
    0.70966914585684831226E-02
    0.12153505087055419616E-03
    0.13304119161657815707E-03
    0.93997362881537670221E-02
    0.94453412315356234663E-02
    0.69478678026889693692E-04
    0.16607647000560382699E-03
    0.15936714546056529899E-03
    0.95391598367961264945E-03
    0.67302035914366118482E-03
    0.19746666702982551903E-02
    0.28740429896623449595E-02
    0.18488778288115823717E-03
    0.14772253430880030820E-03
    0.40769976747073266403E-03
    0.35286510386418495390E-02
    0.32214063248715203193E-02
    0.14100476436961132775E-03
    0.61635769017642956513E-03
    0.87242109045236647738E-03
    0.84985726354247037671E-03
    0.81754207122641537730E-03
    0.10314588268728014202E-02
    0.38128390599263941923E-03
    0.13030364739230422327E-03
    0.15698990928871647908E-02
    0.56382060936334074414E-03
    0.10577197196805345012E-02
    0.34893284713705932567E-04
    0.28710751692905848650E-02
    0.96140654448416892897E-02
    0.78844817943163024443E-02
    0.29438118202276836871E-02
    0.19886287428327165507E-03
    0.35088192205394593513E-02
    0.42795343417677492864E-02
    0.87278904493402666848E-02
    0.53954849990480466346E-03
    0.14141779316334214187E-02
    0.20848909755669217843E-02
    0.68271147334116749367E-03
    0.56137103023992116282E-02
    0.69878895911087432827E-02
    0.25363153684988912640E-03
    0.45415081553980512878E-03
    0.83372721007654321951E-02
    0.76888642851034264426E-03
    0.42136984994457153501E-03
    0.15888507204350275481E-02
    0.67639941927330970127E-03
    0.81731419118104501470E-02
    0.28654199068825389170E-03
    0.77429399798832395513E-02
    0.75481978018817150883E-02
    0.71210668257983703380E-02
    0.19056573395253832855E-03
    0.84923101157080311402E-02
    0.12965998782722481728E-03
    0.85060308086290746521E-02
    0.80570445297774139631E-02
    0.45632893326670994835E-02
    0.86957849806250375746E-02
    0.22371033879179367566E-03
    0.17352268979448420491E-02
    0.83424989978854377504E-02
    0.51258366589904914498E-02
    0.55928652673877688600E-02
    0.10128813125603578122E-03
    0.18847739981039327972E-03
    0.23316999673249089869E-03
    0.11594845852630593570E-03
    0.55350116802565883095E-02
    0.65867464753609022109E-04
    0.15930770487524047088E-02
    0.44999540844590097928E-03
    0.28907609070107320682E-03
    0.57157224906569407616E-02
    0.10427364725897948251E-03
    0.35220101554434982485E-02
    0.54478379743502711174E-02
    0.79131689127770780349E-03
    0.31887692209660366358E-03
    0.29270007576148428458E-03
    0.26582307662592510704E-03
    0.36947176799790189781E-02
    0.78196041037794291879E-04
    0.24365726894741963448E-03
    0.34595075615996085175E-02
    0.61846671987556590955E-02
    0.19792748679690357256E-03
    0.86663790824652447986E-02
    0.39319547852979270380E-02
    0.80343518270059761932E-03
    0.48267044065652912194E-02
    0.21745911386965651076E-02
    0.61476452713397672541E-03
    0.10269314376763559026E-02
    0.12778638653344423525E-03
    0.71357959771736522228E-02
    0.10286317270162292122E-03
    0.91254972598279540663E-02
    0.22668288137536896781E-02
    0.38920739948026671258E-02
    0.13863821570230495332E-02
    0.20368273956600578371E-02
    0.49412494820969881867E-02
    0.15421289441109077025E-03
    0.41336362250110081655E-04
    0.16690256300977753673E-02
    0.10598475818016550760E-02
    0.21754740476464390353E-02
    0.11441867630529158279E-03
    0.11070137878707721028E-02
    0.37552048697779073002E-03
    0.63137322581350327315E-03
    0.12681862971019363458E-03
    0.12511460804463908863E-03
    0.83161488538933665913E-03
    0.33394626352974143575E-03
    0.34789223756453067048E-02
    0.87237249499559741013E-03
    0.19226038353241966909E-03
    0.34623605450627113755E-02
    0.28243811469575615114E-02
    0.14710209082084130098E-03
    0.15449112052352514230E-03
    0.77899186948578581606E-03
    0.85516702309161468664E-04
    0.94680092257090815201E-03
    0.15963421108420988975E-02
    0.65951017270929313506E-03
    0.76440084522678359625E-04
    0.12667806759599457974E-03
    0.65402560257266215051E-03
    0.83754158238723167094E-03
    0.24706193441657062042E-03
    0.68063741124590087031E-02
    0.61470669086553129598E-02
    0.22053147936037797994E-02
    0.69997431193716860408E-03
    0.15406646644077932342E-03
    0.60106558915579904950E-04
    0.63416964073907040899E-04
    0.11177604354712504812E-03
    0.10857652732243444182E-03
    0.14019925134679960574E-03
    0.13016804697487020597E-03
    0.11560429416585100667E-03
    0.12008520805477739912E-03
    0.13601835138352287580E-03
    0.14082450491595957997E-03
    0.18221006550042824750E-03
    0.15247370486240119565E-03
    0.15618015735461505456E-03
    0.22527300140633740432E-03
    0.89889089900202766856E-04
    0.10157177300993575910E-03
    0.93113862659863804914E-04
    0.10197386581975080664E-02
    0.13585341378224786903E-02
    0.86007749934814900494E-02
    0.85730567282817707331E-02
    0.86852892597150364862E-02
    0.87047049759593833618E-02
    0.87051289746638196160E-02
    0.87198485391373984493E-02
    0.85906688126734399163E-02
    0.86785652658228733258E-02
    0.88230971616683126491E-02
    0.85554197318861314320E-02
    0.86287022112933788737E-02
    0.85189246138476747150E-02
    0.87053295771059059638E-02
    0.85300015120657688567E-02
    0.22532337533896965964E-03
    0.18245660004468985537E-03
    0.25447634850487611553E-03
    0.69875121623190646330E-03
    0.14003093152697970031E-02
    0.16443934975951175238E-02
    0.10915202009175095296E-02
    0.17288612137715724318E-02
    0.96342450411962055664E-03
    0.84536077450554354511E-03
    0.82037321596241375137E-03
    0.97408855892652823107E-03
    0.74241538580779246458E-03
    0.68271212182946202415E-03
    0.41732028263948326525E-03
    0.79459703795471735375E-03
    0.64170574009144500669E-04
    0.64606071403055273343E-03
    0.30968979180912943258E-02
    0.37530781166107852337E-02
    0.55474255079591555662E-02
    0.46908151986974448711E-02
    0.10647273005877930588E-03
    0.10606941703571333945E-03
    0.12028378723069927552E-03
    0.12947023140977536714E-03
    0.18093993108627283006E-03
    0.14254478305067755893E-03
    0.12595139780565404617E-03
    0.65802732150533062533E-04
    0.11361143348905704872E-03
    0.86213136342375048778E-04
    0.64661461818211639005E-02
    0.72786491335464853850E-02
    0.29821276092796756467E-03
    0.38416127618281933030E-02
    0.11218973685173328153E-03
    0.13708334468215605580E-03
    0.10931825161442813106E-03
    0.79491662994472366693E-03
    0.55549484192851021711E-03
    0.88461339715776594189E-02
    0.84475085158514998107E-02
    0.39825072022242593228E-04
    0.13571082449496976144E-03
    0.60482224696538151225E-04
    0.49174199024124634887E-04
    0.45518993077482863927E-04
    0.14021961328758563987E-03
    0.13605786126628097903E-03
    0.12133643700745906072E-03
    0.12091704532344098538E-03
    0.13534096151398490224E-03
    0.12826428136025486842E-03
    0.11953669800350758858E-03
    0.10915167677630733081E-03
    0.11947950692571376646E-03
    0.11135417114638485655E-03
    0.10905046163937551088E-03
    0.11268420190852198649E-03
    0.13570667279266370787E-03
    0.18134632978560562473E-03
    0.16459854762826888895E-03
    0.16002343817673049097E-03
    0.16191314612346645557E-03
    0.16760487724573548858E-03
    0.16451909264090535160E-03
    0.22217740476328487107E-03
    0.14062671775362008001E-03
    0.19744589021969210195E-03
    0.20275157956448560683E-03
    0.29319062264672571304E-03
    0.10315873985535265953E-03
    0.10295590185561673583E-03
    0.23589335088883937874E-02
    0.17278220270850600578E-02
    0.17193019952760929970E-02
    0.19666768579332627280E-02
    0.84318992225340515939E-02
    0.85577386991835466268E-02
    0.84709212836413874670E-02
    0.85530446968886258974E-02
    0.18722431180130677400E-03
    0.11656224210201316012E-03
    0.17390191274113808305E-03
    0.18193527244857502466E-03
    0.23740484634161813189E-03
    0.29369292339231526734E-03
    0.15771681291867819261E-03
    0.41522423650267091619E-03
    0.87078269524259544008E-03
    0.95644135617263352760E-03
    0.46761212409363110383E-03
    0.40575533405709990125E-03
    0.62345118408426759577E-03
    0.96836594855298204019E-03
    0.64987716674231080748E-03
    0.14961179184805920798E-02
    0.90386733005432852439E-03
    0.11092499453100698910E-02
    0.27574569640280515402E-02
    0.42524495338763243849E-02
    0.21521846581773391473E-02
    0.27081074010846736821E-02
    0.36919871758088864191E-02
    0.43398329074800321564E-02
    0.35699627740612650470E-02
    0.29429438994658251201E-02
    0.31862799199257724712E-02
    0.33789002103765406262E-02
    0.13265184854615853739E-03
    0.13172028788480406847E-03
    0.76033178873281944896E-04
    0.10470663967832639126E-03
    0.18314177131758762706E-03
    0.14430668106950859421E-03
    0.80700384256403544236E-02
    0.84080815875991841285E-02
    0.11316830070129276192E-03
    0.15504111733469745442E-03
    0.96323240457046370119E-04
    0.60031399626900760948E-03
    0.58204114379757177031E-03
    0.41764795210271778679E-04
    0.53094841188900860382E-04
    0.39957449949430033859E-04
    0.11037604208148518942E-03
    0.13968800315522589901E-03
    0.15133196253881023101E-03
    0.11605642137897742106E-03
    0.80636362922231336059E-02
    0.81824942976936095723E-02
    0.88326754339078227679E-02
    0.87110002111728430940E-02
    0.21045594561041358378E-03
    0.16828296632676956472E-03
    0.25025523727306079984E-03
    0.21827289305539367397E-03
    0.33552043909762432200E-03
    0.35399567421634531164E-03
    0.30804823468601183738E-03
    0.54983406373311093270E-03
    0.10041792487059529766E-02
    0.11998801861244072931E-02
    0.88462419452034533971E-03
    0.11194368280837987094E-02
    0.12258357575609974289E-02
    0.24011867944131572508E-02
    0.14493515386010209691E-02
    0.15291787238342856563E-02
    0.47773071317939496197E-02
    0.35458691904182576549E-02
    0.41663883911225198242E-02
    0.35699886497911237533E-02
    0.41985785649541560588E-02
    0.44702389952394746761E-02
    0.26642857393445844305E-02
    0.36466471630807696311E-02
    0.23372156198262685617E-02
    0.27335830085527591284E-02
    0.20341556008089999377E-02
    0.11620909601524839500E-02
    0.22239107315119624984E-02
    0.23401566146590874369E-02
    0.20561182716650632830E-02
    0.19381255053266524448E-02
    0.74143345447231107656E-04
    0.68642942647536401321E-04
    0.93447400166192298439E-04
    0.29758408135492567389E-04
    0.50462609112813958329E-04
    0.73149325257314409213E-04
    0.85645426672877365349E-04
    0.62695367457861253253E-04
    0.77068022683999835095E-04
    0.82193156440005566451E-04
    0.11724798408163579792E-03
    0.99816836422077969077E-04
    0.10340239227550409597E-03
    0.14628556908086783744E-03
    0.12357737657273191317E-03
    0.13066364342811424772E-03
    0.12846580066621794800E-03
    0.13881493031846870801E-03
    0.11850673640139669615E-03
    0.92790414236216655491E-04
    0.16274601778633213003E-03
    0.15464153782271424626E-03
    0.82192261270332099554E-02
    0.86194295676766240905E-02
    0.77724071968581593881E-03
    0.54239642565479689353E-03
    0.65528854050622264288E-03
    0.74555496963853802508E-03
    0.49606940676076062297E-03
    0.37780022028706064128E-03
    0.49781547084151256486E-03
    0.77363637981396084480E-03
    0.24075687703440031180E-02
    0.98842254168117005611E-03
    0.13433566212018080693E-02
    0.10204530593951308994E-02
    0.85712586723927207139E-03
    0.11474562230385410184E-02
    0.72773882925651048239E-03
    0.64547813878383750608E-03
    0.13907648076996802049E-02
    0.15305387352436779138E-02
    0.12917721330675010875E-02
    0.18165511377372645357E-02
    0.10043582955115977311E-02
    0.16323704672420715975E-02
    0.19993021012947118781E-02
    0.21124796017480355209E-02
    0.16900317485320206969E-02
    0.19058406382054915006E-02
    0.37309938930824896285E-02
    0.43169621113048322475E-02
    0.50581247399754383429E-02
    0.44402631709307078048E-02
    0.59968939589357872152E-02
    0.56613551150552056737E-02
    0.34801254343900449133E-02
    0.30290273641858300388E-02
    0.60896549687449442437E-04
    0.61034801600996096711E-04
    0.22870254671711882748E-02
    0.18848728960793393120E-02
    0.80102474111524296640E-03
    0.99799579231402970811E-03
    0.44787143313410130710E-03
    0.11060119861358739743E-02
    0.10394447545427659869E-02
    0.16717635875850552028E-02
    0.68876172205748246394E-03
    0.89271501239556881775E-03
    0.89233483008540503316E-04
    0.11072128072790999285E-03
    0.11058292401321164616E-02
    0.90986081226678971069E-03
    0.55267417820621103294E-04
    0.79148941181413629670E-04
    0.43055491466192815893E-04
    0.58835454543472869872E-04
    0.73013515788674331324E-04
    0.12126338784917704470E-03
    0.19727498910094898093E-03
    0.21154884605734220154E-03
    0.17537220284576581983E-03
    0.17350186395155841072E-03
    0.20790524631003078461E-03
    0.17954246619062181494E-03
    0.25766179718931560283E-03
    0.21087482698156994839E-03
    0.61807982914448191675E-02
    0.30140932762790892570E-02
    0.58717585182275220182E-02
    0.47304420143883278357E-02
    0.42938754320064609349E-02
    0.25016470306675185099E-02
    0.12950476746728935783E-03