# vtk DataFile Version 3.0
LAPLACIEN  2D
ASCII
DATASET UNSTRUCTURED_GRID
 POINTS        1616  float
  0.45880792999999997       0.87913892999999999        0.0000000000000000     
  0.40372658000000000       0.18243693000000000        0.0000000000000000     
  0.52563972999999997       0.19039755999999999        0.0000000000000000     
  0.45642953000000003       0.24226190000000000        0.0000000000000000     
  0.51984098000000001       0.24548566999999999        0.0000000000000000     
  0.21212766999999999       0.18957676000000001        0.0000000000000000     
  0.28573643999999998       0.48586826999999999        0.0000000000000000     
  0.49667887999999999       0.82979849000000006        0.0000000000000000     
  0.22848407000000001       0.23366793000000000        0.0000000000000000     
  0.27860389000000002       0.86069733000000004        0.0000000000000000     
  0.36563702999999997       0.80971340999999997        0.0000000000000000     
  0.28045499000000002       0.80393031999999998        0.0000000000000000     
  0.40374228000000001       0.78127665000000002        0.0000000000000000     
  0.56160891999999996       0.55341227999999998        0.0000000000000000     
  0.37210935000000001       0.26787699999999998        0.0000000000000000     
  0.49899838000000002       0.57286409999999999        0.0000000000000000     
  0.41023869000000002       0.33464665999999998        0.0000000000000000     
  0.33484156999999998       0.29151022999999998        0.0000000000000000     
  0.46758665999999999       0.58262307999999996        0.0000000000000000     
  0.43303693999999998       0.36569945999999998        0.0000000000000000     
  0.25741280000000000       0.61805882999999995        0.0000000000000000     
  0.28853707000000001       0.59423020000000004        0.0000000000000000     
  0.67837254000000002       0.45038665999999999        0.0000000000000000     
  0.42159046000000000       0.50697913999999999        0.0000000000000000     
  0.60276470999999998       0.73940291000000002        0.0000000000000000     
  0.30758273000000003       0.77844542000000005        0.0000000000000000     
  0.45367541000000000       0.31842187000000000        0.0000000000000000     
  0.36974101999999998       0.35807864000000000        0.0000000000000000     
  0.26919625000000003       0.65312176000000000        0.0000000000000000     
  0.61908110999999999       0.42741791000000001        0.0000000000000000     
  0.54442267000000000       0.74200747000000000        0.0000000000000000     
  0.58930464999999999       0.41588288000000001        0.0000000000000000     
  0.51511633000000001       0.74331579000000003        0.0000000000000000     
  0.12878382999999999       0.33122940000000001        0.0000000000000000     
  0.15534365000000000       0.71749246000000000        0.0000000000000000     
  0.64877724999999997       0.30161799000000000        0.0000000000000000     
  0.58853643000000000       0.28101930000000003        0.0000000000000000     
  0.56390348000000001       0.30132482999999999        0.0000000000000000     
  0.29605991999999998       0.44474459999999999        0.0000000000000000     
  0.29900669000000002       0.52983276000000001        0.0000000000000000     
  0.55954318999999997       0.48654808999999999        0.0000000000000000     
  0.42341458999999998       0.38785072999999998        0.0000000000000000     
  0.45806291999999998       0.35892998999999998        0.0000000000000000     
  0.47820750000000001       0.31147424000000001        0.0000000000000000     
  0.36344222999999998       0.38139388000000002        0.0000000000000000     
  0.17186508000000000       0.28159534000000003        0.0000000000000000     
  0.18029876000000000       0.33292397000000001        0.0000000000000000     
  0.20696366999999999       0.71822465999999996        0.0000000000000000     
  0.61326404999999995       0.34468346000000000        0.0000000000000000     
  0.29887186999999998       0.42337377999999998        0.0000000000000000     
  0.33271837999999998       0.44383096000000000        0.0000000000000000     
  0.31835012000000001       0.54267131999999996        0.0000000000000000     
  0.54882964999999995       0.45462609999999998        0.0000000000000000     
  0.20448143999999999       0.28717446000000002        0.0000000000000000     
  0.20634120000000000       0.33378063000000002        0.0000000000000000     
  0.23301781999999999       0.71859421999999995        0.0000000000000000     
  0.58606499999999995       0.35199907000000002        0.0000000000000000     
  0.20841100000000001       0.45369578999999999        0.0000000000000000     
  0.24778198000000001       0.77708496000000005        0.0000000000000000     
  0.30748062999999998       0.61002621000000001        0.0000000000000000     
  0.23337332000000000       0.41981835000000001        0.0000000000000000     
  0.25985113999999998       0.75924943000000000        0.0000000000000000     
  0.24610213000000000       0.40254353999999998        0.0000000000000000     
  0.37350351999999998       0.50127178999999999        0.0000000000000000     
  0.43235204999999999       0.78236391000000005        0.0000000000000000     
  0.30749858000000002       0.28582627999999999        0.0000000000000000     
  0.30336816000000000       0.64635111000000001        0.0000000000000000     
  0.31418906000000002       0.43625961000000002        0.0000000000000000     
  0.27223414000000001       0.78063022000000004        0.0000000000000000     
  0.22829299000000000       0.75089561000000005        0.0000000000000000     
  0.26580239000000000       0.42989294000000000        0.0000000000000000     
  0.37369119000000001       0.51975733999999996        0.0000000000000000     
  0.39681665999999999       0.51027884000000001        0.0000000000000000     
  0.32086795000000001       0.65137668999999998        0.0000000000000000     
  0.31757218999999998       0.62987181000000003        0.0000000000000000     
  0.32959777000000001       0.42500900000000003        0.0000000000000000     
  0.24663835000000001       0.74537787000000000        0.0000000000000000     
  0.26354222999999999       0.41075105000000001        0.0000000000000000     
  0.28343712999999998       0.43221330000000002        0.0000000000000000     
  0.34682245000000000       0.43182289000000001        0.0000000000000000     
  0.35306810000000000       0.45344571000000000        0.0000000000000000     
  0.57327218000000002       0.15829040000000000        0.0000000000000000     
  0.51473097999999995       0.12621746000000000        0.0000000000000000     
  0.72829681999999996       0.40151571000000003        0.0000000000000000     
  0.42703184999999999       0.53501600999999999        0.0000000000000000     
  0.32612607999999998       0.75472421999999995        0.0000000000000000     
   9.9814849999999997E-002  0.28081352999999998        0.0000000000000000     
  0.13945825000000001       0.78732252999999996        0.0000000000000000     
  0.44199519999999998       0.38275643999999998        0.0000000000000000     
  0.40132215999999998       0.36508836000000000        0.0000000000000000     
  0.43963142999999999       0.34043466999999999        0.0000000000000000     
  0.47160058999999999       0.33493045999999999        0.0000000000000000     
  0.45615203999999998       0.28038164999999998        0.0000000000000000     
  0.34321279999999998       0.35314412000000001        0.0000000000000000     
  0.29178279000000001       0.56170810000000004        0.0000000000000000     
  0.49833080000000002       0.48416767999999999        0.0000000000000000     
  0.46386271000000001       0.46452802999999998        0.0000000000000000     
  0.44722043000000000       0.45300645000000000        0.0000000000000000     
  0.46562803000000003       0.44419790999999997        0.0000000000000000     
  0.43925322000000000       0.48229485999999999        0.0000000000000000     
  0.49117628000000002       0.45665803999999999        0.0000000000000000     
  0.43435156000000003       0.46523363000000001        0.0000000000000000     
  0.19405754000000000       0.31093060000000000        0.0000000000000000     
  0.22069087000000001       0.66905079000000001        0.0000000000000000     
  0.30776597999999999       0.59042684000000001        0.0000000000000000     
  0.29541507000000000       0.57849362000000004        0.0000000000000000     
  0.28335474999999999       0.61970232999999997        0.0000000000000000     
  0.29935165000000002       0.62852803999999995        0.0000000000000000     
  0.28459435999999999       0.64121777000000002        0.0000000000000000     
  0.26698675999999999       0.63435282999999998        0.0000000000000000     
  0.24031983000000001       0.64700659000000005        0.0000000000000000     
  0.33118850000000000       0.50233682999999996        0.0000000000000000     
  0.35257061000000001       0.51072803000000000        0.0000000000000000     
  0.29038973000000001       0.78732479000000000        0.0000000000000000     
  0.28737915000000003       0.76752330999999996        0.0000000000000000     
  0.21978159000000000       0.73315437000000006        0.0000000000000000     
  0.18119734000000001       0.76257752999999995        0.0000000000000000     
  0.20353571000000001       0.75186065999999996        0.0000000000000000     
  0.39122694000000002       0.49007234000000000        0.0000000000000000     
  0.59140473999999998       0.13507609000000001        0.0000000000000000     
  0.53156702000000000        9.7663528999999999E-002   0.0000000000000000     
  0.76346223999999996       0.39657278000000001        0.0000000000000000     
  0.41119013999999998       0.52354409999999996        0.0000000000000000     
   7.2558165999999993E-002  0.26885883999999999        0.0000000000000000     
  0.10497347000000000       0.79895936000000001        0.0000000000000000     
[...]
 CELL_DATA        2963
 SCALARS VEGF float
 LOOKUP_TABLE default
    0.20305781940970049669E-03
    0.11286526531899708156E-02
    0.48911105194525059114E-03
    0.58254595564665443471E-03
    0.67977459351267863381E-03
    0.34303126693347303590E-03
    0.26391829720674947566E-03
    0.10006803789344841538E-02
    0.14101199112292455849E-03
    0.20158687959494672737E-01
    0.82877678890924124603E-03
    0.58721841557630722729E-03
    0.34895049296534085513E-03
    0.92378332743587178010E-03
    0.15091532351931488134E-03
    0.32294364692777102494E-03
    0.14780757888382102527E-01
    0.40253639571770431478E-03
    0.38209865612922277144E-03
    0.10430102750033488999E-02
    0.73259733423930797642E-03
    0.41681615351750495035E-01
    0.58215854739958959596E-01
    0.10987660351599334938E-02
    0.20135304012240083649E-02
    0.42851961520074602352E-02
    0.10420209005381475802E-02
    0.33348806687348803244E-03
    0.51844332873711440352E-03
    0.70058830298969348299E-03
    0.37272406570930806217E-02
    0.15886653401080347899E-03
    0.84857736831391700726E-03
    0.28132013328750656023E-02
    0.79259852337249621021E-03
    0.11475198796142222282E-02
    0.68635476530551505457E-03
    0.34336500230286340178E-02
    0.25738127624124206060E-03
    0.15763295349039960214E-01
    0.26593382170579736145E-03
    0.61636491678627699023E-03
    0.14981527095840436407E-02
    0.81279323941844440222E-03
    0.14992161704422066735E-03
    0.65187523394771070689E-02
    0.25734004959165939158E-03
    0.20084137913925303011E-03
    0.65614121115323926700E-03
    0.15824492860827356669E-03
    0.50750889717348906388E-02
    0.29662385752968613122E-03
    0.28192560704141798227E-03
    0.37369082035336003951E-03
    0.50106799714956518077E-03
    0.54078509762719674178E-02
    0.26482655868467064450E-03
    0.36250679097006833183E-02
    0.11097429215121868903E-01
    0.40177716844551445308E-03
    0.94872279757181737780E-02
    0.11552063617075213411E-02
    0.25333714401725782647E-03
    0.16264992325847412889E-03
    0.68891177553449150280E-03
    0.79015116736209159432E-02
    0.20109983819243458340E-02
    0.10081803775378891594E-01
    0.36294943647514683882E-01
    0.39922691448774001201E-03
    0.25819966303753603401E-03
    0.85651393017930951140E-02
    0.64231943726636420416E-03
    0.55605585752159416690E-03
    0.19113078436464196741E-01
    0.19573552620619525527E-01
    0.42006585024571142795E-01
    0.13910776129221974831E-01
    0.29160546590962886778E-03
    0.72946936820080096261E-02
    0.17430672918191736972E-03
    0.54764991188426086210E-02
    0.10288895631595454047E-01
    0.29982195102766562300E-01
    0.24692584890873120994E-02
    0.79213604383387970203E-03
    0.56902582851840668044E-03
    0.12582578271862121435E-02
    0.14705977380450414513E-02
    0.27267199075042857555E-03
    0.90302976061170411697E-03
    0.53125812858630600335E-02
    0.57450717460388697755E-01
    0.41520351712810814326E-02
    0.15981265840581111801E-02
    0.34798463183626287751E-02
    0.41733511805861232824E-01
    0.79846039974696433970E-03
    0.57523861429506018342E-03
    0.50035901660441979566E-03
    0.51219986373531468243E-03
    0.10432462222030535436E-02
    0.53175582483806979606E-02
    0.67969197273755766614E-03
    0.86134680435446270980E-02
    0.35783235642345968775E-03
    0.68019453529936761693E-03
    0.27534609836110917735E-03
    0.58674284752662708362E-02
    0.48725180283241547067E-03
    0.47485876311553006264E-03
    0.46569488245604769190E-03
    0.25976422915810828962E-03
    0.44620658278359318343E-03
    0.29311854256166837126E-03
    0.44409575684381611673E-03
    0.22630130175759391562E-03
    0.24524770304783200621E-03
    0.26783411719561483338E-01
    0.11128254666927553732E-01
    0.45839918802666217894E-03
    0.31220431181691588301E-03
    0.35912708344101466939E-03
    0.29773195428225039325E-02
    0.28597312815989715850E-03
    0.23257545739533815390E-02
    0.36938003834456145744E-03
    0.70704839315790454779E-02
    0.52294414595215428163E-02
    0.11504196539473607666E-01
    0.22612376387391207658E-02
    0.35013769909505096378E-02
    0.18244284707457928546E-01
    0.23431621393255794815E-02
    0.58180216392982094659E-02
    0.96913180893175628755E-02
    0.97835892622509541133E-02
    0.38085810925650850564E-02
    0.35465490829096396261E-03
    0.48877544491083913317E-02
    0.11599057503776074099E-01
    0.19338026129521316328E-02
    0.54559650006585282134E-01
    0.84757355182255023074E-02
    0.66925139583662663148E-02
    0.20153303136620898638E-02
    0.65786236174737212652E-03
    0.21816304789396482981E-02
    0.41483889065824073759E-03
    0.94438288380550780565E-02
    0.86050386549668136070E-03
    0.42803483740755689235E-01
    0.73212742604243999378E-02
    0.19189331022429056018E-02
    0.59784580517457898072E-03
    0.44208032203496235892E-03
    0.32132873405675576629E-03
    0.63986515582432749484E-03
    0.57421828081214809462E-03
    0.58173038999320345055E-03
    0.61403624905379645352E-03
    0.53929102234002068619E-03
    0.17623634908013078790E-02
    0.30195985979270716440E-02
    0.53018113931830679417E-03
    0.56661302701225442491E-02
    0.29931322537750674941E-03
    0.32441114136863937779E-02
    0.24441433755980616904E-01
    0.24146490586067119802E-02
    0.36060085088688971500E-01
    0.56940753463797220447E-03
    0.57269819815439139844E-03
    0.44154842653964894092E-02
    0.44808652311679293082E-03
    0.40538482260287097246E-03
    0.10775024017724748118E-02
    0.60526597501771555853E-03
    0.56460846231782104224E-03
    0.30248728612741136159E-03
    0.21760389824054943847E-01
    0.88181079167834008729E-03
    0.12827087313743875101E-02
    0.48007066244253835405E-03
    0.47069470710535432113E-03
    0.49674769032364413362E-03
    0.48216509530435739880E-02
    0.38578557813507864671E-02
    0.84459422601051055424E-02
    0.26169638586121316253E-03
    0.85046611496355324286E-03
    0.24324813168059785523E-01
    0.44032165631210202442E-03
    0.32002867201240354838E-03
    0.94302813457546562359E-02
    0.30688652523370529932E-03
    0.16535965007272536431E-01
    0.30016357559025253626E-02
    0.21412328162296900315E-02
    0.36275189355248690926E-03
    0.10676396345297445040E-02
    0.61470673656509094897E-03
    0.57219630110657247746E-03
    0.47504642148890963496E-02
    0.65623225695475184693E-01
    0.63071246594294222421E-01
    0.39163773414536418027E-02
    0.61751139252072123620E-01
    0.33315326964697779266E-01
    0.34884323648416124030E-03
    0.39382373444696089013E-03
    0.45796971873218558780E-01
    0.56523302439483641413E-01
    0.39285169687011250181E-03
    0.10185605579152718757E-02
    0.57360527257667036274E-03
    0.27647952944963682768E-02
    0.29308249304586392325E-02
    0.81647688525725674313E-02
    0.84286531000443906669E-02
    0.10822440866344684805E-02
    0.89387653498279779924E-03
    0.26200115502401392573E-02
    0.10764414978977463258E-01
    0.95605224806425137540E-02
    0.80159463195579832955E-03
    0.33027876637484465672E-02
    0.24157184039122953957E-02
    0.23458141934894660881E-02
    0.34126062420913941264E-02
    0.28646626769886374825E-02
    0.15272845780182275292E-02
    0.48549047245073704941E-03
    0.65490268313555203422E-02
    0.17240555544948302051E-02
    0.44178442463423941641E-02
    0.23398256592811940034E-03
    0.11317977240376746184E-01
    0.54234975895532507029E-01
    0.43867836322292914908E-01
    0.86030977178653701004E-02
    0.69694903453015790568E-03
    0.13727078580745443251E-01
    0.16378038320481250190E-01
    0.44515039580072683634E-01
    0.43517271950664609265E-02
    0.58418360557553816390E-02
    0.61900992064558317193E-02
    0.50393072552409488504E-02
    0.22672203772090612078E-01
    0.28984954223576053778E-01
    0.88039582730364666658E-03
    0.35786009811899720766E-02
    0.54248684592992993392E-01
    0.21203513635561529842E-02
    0.12593037756584589317E-02
    0.44945698346024265737E-02
    0.48376587978983419044E-02
    0.39678088645837120141E-01
    0.90942007106455005454E-03
    0.35584415093306898115E-01
    0.31828069306127991511E-01
    0.28953442538658953620E-01
    0.65353452162648820005E-03
    0.50161822004170637801E-01
    0.38226943929737351117E-03
    0.61029777313918891213E-01
    0.35509510382343817403E-01
    0.13567252459115953719E-01
    0.58816747443812995855E-01
    0.78303604880098655588E-03
    0.70769781173478114172E-02
    0.39892442960134028018E-01
    0.15058734796189259322E-01
    0.16630769313196725606E-01
    0.44354030114303810359E-03
    0.66749897452361456763E-03
    0.78334351984810242885E-03
    0.32927481374444910822E-03
    0.16199583160110549857E-01
    0.36281354570619461222E-03
    0.45745970055367166096E-02
    0.20525346485215588931E-02
    0.10523939310715963325E-02
    0.16803120992349426105E-01
    0.29325162714198690309E-03
    0.13569244619522181222E-01
    0.15950805802060822464E-01
    0.55086797151774015077E-02
    0.11721140323352882348E-02
    0.10842103295496756908E-02
    0.98222596387483648156E-03
    0.11864025724344060692E-01
    0.35737693087631468552E-03
    0.89513752533692592973E-03
    0.13593741705292889527E-01
    0.18210237563747649903E-01
    0.68580944798770835085E-03
    0.69207654277245261865E-01
    0.11959364713956342069E-01
    0.23180849995913356890E-02
    0.14780766565621869524E-01
    0.71574662744864243902E-02
    0.33620686688652806108E-02
    0.43436648946869743648E-02
    0.37289284620264885259E-03
    0.21409929103500233843E-01
    0.33164686392986905249E-03
    0.32511162765031652311E-01
    0.84400814758443746394E-02
    0.12954954867898159018E-01
    0.39309976514570119099E-02
    0.79949306385327621738E-02
    0.14579436705073613514E-01
    0.57209185469096496962E-03
    0.24896025956359577047E-03
    0.47600477921214481847E-02
    0.56907188298531237100E-02
    0.96207840336662662356E-02
    0.43534583087823889181E-03
    0.39297308089268718698E-02
    0.13880522279434612774E-02
    0.23653988409002586063E-02
    0.46457620472217461566E-03
    0.76576839314535546759E-03
    0.30101354569436410656E-02
    0.14614407897560641961E-02
    0.12063411802584196597E-01
    0.37360415294886528507E-02
    0.12752892557877559734E-02
    0.10750373727660956363E-01
    0.82214661965218389234E-02
    0.86799654121888676628E-03
    0.85298253762904833585E-03
    0.21898202083647198835E-02
    0.27128466407675072905E-03
    0.26143153592673149845E-02
    0.54543935236657159135E-02
    0.31026079951400938745E-02
    0.28944871523956959471E-03
    0.46809000021846950161E-03
    0.33511575061863740736E-02
    0.54248667695934969790E-02
    0.96172852529490069490E-03
    0.27250794151091224660E-01
    0.18288418388990479446E-01
    0.64022373080524436553E-02
    0.25713313564116554479E-02
    0.55998133886996537701E-03
    0.36925112992774018978E-03
    0.36852605855809108994E-03
    0.46100019766585063116E-03
    0.44257841955505725778E-03
    0.42614540467100829818E-03
    0.38205572484208285373E-03
    0.33243517275418634719E-03
    0.36460453737629253341E-03
    0.41490324815454264528E-03
    0.44400387038275458251E-03
    0.60892376773553393010E-03
    0.48212401602742646373E-03
    0.50835372273649740218E-03
    0.84578516074315353637E-03
    0.27488998393341277683E-03
    0.28730158388569858579E-03
    0.27571901576582387525E-03
    0.28674373541222046742E-02
    0.38597828908438643579E-02
    0.56601611115009456410E-01
    0.53003291903189683754E-01
    0.62485325566518132301E-01
    0.58029109462919475915E-01
    0.60259851626907869060E-01
    0.61064782582117040077E-01
    0.63988411313847401440E-01
    0.69910353975168940122E-01
    0.67593627944112874562E-01
    0.47914391131583647376E-01
    0.63953080142131316088E-01
    0.62863250477335957944E-01
    0.60977245384891486102E-01
    0.49675463616832470082E-01
    0.80412596381958343240E-03
    0.65569016481702309916E-03
    0.85635169982103487643E-03
    0.20525405405326228349E-02
    0.39818380491458849751E-02
    0.47348044376863953828E-02
    0.30823079166673837681E-02
    0.50028246393637827369E-02
    0.26748689905180312622E-02
    0.23600895514864581731E-02
    0.22804282281368806230E-02
    0.27170442141093579039E-02
    0.20666099541242050584E-02
    0.19310137097886279165E-02
    0.12449986029865877258E-02
    0.22450361354308476930E-02
    0.38378301160041231651E-03
    0.18570923432939640766E-02
    0.96879622083538355359E-02
    0.11870268229933332582E-01
    0.20337963801862379148E-01
    0.16289848888114650399E-01
    0.42945688193288798253E-03
    0.41450546373973169061E-03
    0.45161318529236273937E-03
    0.47022791127578793865E-03
    0.63160146949043543315E-03
    0.53412190442480818927E-03
    0.48745744173933191340E-03
    0.34525576870599223884E-03
    0.44801963981518859014E-03
    0.39765074125845824944E-03
    0.25758043473441363802E-01
    0.32448136889400826244E-01
    0.20772335344892362344E-02
    0.12132758542037809166E-01
    0.63818562053135144407E-03
    0.82291974496003471307E-03
    0.57196422522353936382E-03
    0.55121111838995744819E-02
    0.42670063091473061159E-02
    0.41069275556945325500E-01
    0.37945103245621190913E-01
    0.27033100697491403838E-03
    0.48625116704183234204E-03
    0.38575541674104650656E-03
    0.31547742104849770504E-03
    0.26683271545508910338E-03
    0.42388169513021887840E-03
    0.40806221930944532993E-03
    0.35106345965029713647E-03
    0.35755070350078436417E-03
    0.41739504428952092785E-03
    0.38154476912032454870E-03
    0.34618610028246972867E-03
    0.30677402574267947314E-03
    0.34189476040400135172E-03
    0.31391003959479926288E-03
    0.30897253268575896939E-03
    0.32047675447618875853E-03
    0.42955826508975588794E-03
    0.62705940053947432401E-03
    0.53015568099682515608E-03
    0.51245483328771625035E-03
    0.52756733576809979221E-03
    0.54617045411217983626E-03
    0.55207876570396573635E-03
    0.81957752955177075056E-03
    0.45718074675649313229E-03
    0.74908509135231669037E-03
    0.75507768284436822901E-03
    0.11552499936916340879E-02
    0.29105771877204112850E-03
    0.29538169940910869588E-03
    0.71223899119664266580E-02
    0.49957012739510779295E-02
    0.49774658982703421511E-02
    0.57718783290367581609E-02
    0.57242908852006377241E-01
    0.66059539501768141379E-01
    0.55986768967854642909E-01
    0.63799993444442773538E-01
    0.70948425447373909044E-03
    0.52271881876448495451E-03
    0.64316204740493671237E-03
    0.67698595086050075351E-03
    0.81646591017263436037E-03
    0.97739903387047489050E-03
    0.60720369248067182413E-03
    0.12548379183335740816E-02
    0.24731318043512513435E-02
    0.27117318179946813157E-02
    0.14052715155171118921E-02
    0.13756466820398593857E-02
    0.18077008877256644376E-02
    0.27763188291681445766E-02
    0.18853594661577557055E-02
    0.42748931420256439453E-02
    0.25894864457990198793E-02
    0.31658660631644248984E-02
    0.84490686484133600137E-02
    0.14389832899918995196E-01
    0.63692879827986935079E-02
    0.81919586460463579558E-02
    0.12052135107620813581E-01
    0.14815950649483268856E-01
    0.11440690825600929523E-01
    0.89360301264172804780E-02
    0.96505827833532741716E-02
    0.10573069727661017422E-01
    0.47803182565187024187E-03
    0.47943703026452985259E-03
    0.33949885097662334992E-03
    0.43791125680167441005E-03
    0.67570466073759263056E-03
    0.55121199356208960829E-03
    0.41744848383028693162E-01
    0.47504633303016137458E-01
    0.66429091339623483857E-03
    0.93997214911120793770E-03
    0.54730225228842371236E-03
    0.46708753339272301650E-02
    0.44196586291123472062E-02
    0.28922118177130459304E-03
    0.35619457773849636482E-03
    0.27196331385450912528E-03
    0.32873201874634728472E-03
    0.48282423453200023610E-03
    0.50313827232220187727E-03
    0.39936488235913804572E-03
    0.47211049916296599083E-01
    0.50654576249627214501E-01
    0.54589167805399546607E-01
    0.64658158880985749928E-01
    0.77482092442596845697E-03
    0.64212611441006835818E-03
    0.86231607262335764705E-03
    0.76176299954468945121E-03
    0.10574392575620694072E-02
    0.10821985087974669761E-02
    0.99321948875997589749E-03
    0.16514220619580184061E-02
    0.28556385807282031256E-02
    0.33968476513670802126E-02
    0.25662474857205846458E-02
    0.31785478822891123120E-02
    0.35107657112238010999E-02
    0.71420086718883071808E-02
    0.41485029976849295552E-02
    0.43786719249291139802E-02
    0.16751727469478869953E-01
    0.11508035348693155739E-01
    0.13734737755420523345E-01
    0.11250565491490407966E-01
    0.13922263547197175418E-01
    0.15129258837269695878E-01
    0.79845484691856601078E-02
    0.11708916363490005225E-01
    0.68703373491488649999E-02
    0.81208750813472983104E-02
    0.59023944510045002823E-02
    0.33355654933199278475E-02
    0.64142777963260670659E-02
    0.68101695404287230715E-02
    0.59874583807661930709E-02
    0.55780148111488321930E-02
    0.35050837096113070896E-03
    0.32863872245576401581E-03
    0.39020529124761936003E-03
    0.21946693621470851642E-03
    0.28622290197560513840E-03
    0.35336458657201031070E-03
    0.37719476023662616834E-03
    0.32578825721983357272E-03
    0.37776716819693016919E-03
    0.38100816584844110881E-03
    0.45506900559028426066E-03
    0.41544005573476521214E-03
    0.44682447153343590350E-03
    0.56199608047887339348E-03
    0.37111532460379066493E-03
    0.42177068261078920486E-03
    0.42314239377576871480E-03
    0.47029044718976666063E-03
    0.38644587261945137881E-03
    0.32290298787050411436E-03
    0.58386128032162211508E-03
    0.52683252560220431102E-03
    0.50817455802857749991E-01
    0.62315306258005735696E-01
    0.22272044729448299896E-02
    0.16513416134271118041E-02
    0.19170598921650820832E-02
    0.21538848069066187860E-02
    0.14973040633895454317E-02
    0.12640735923739520805E-02
    0.15815221651707970976E-02
    0.22815576740799884715E-02
    0.72050946352305977188E-02
    0.28650814343143512011E-02
    0.38461311484108587182E-02
    0.29595172779337611257E-02
    0.24838140114952305358E-02
    0.32814820948942448678E-02
    0.21386298416295299214E-02
    0.19371464530145657973E-02
    0.39702221070086422122E-02
    0.43872142516119079156E-02
    0.36922427022041009494E-02
    0.52618964430387899639E-02
    0.28983847227604564618E-02
    0.46964169725243623890E-02
    0.58333741348739797175E-02
    0.62237131268068381085E-02
    0.48747830560491173246E-02
    0.55507975238429088302E-02
    0.12137454064941663803E-01
    0.14553866623032860050E-01
    0.18068486705193509412E-01
    0.15066532664029786553E-01
    0.23332970940592098752E-01
    0.21048055683670293531E-01
    0.11171010238029608491E-01
    0.93924230149460691264E-02
    0.33814795591373717713E-03
    0.36937068914432927150E-03
    0.67765457017696772296E-02
    0.54581650572493008514E-02
    0.23634004048612225479E-02
    0.28743862048845199818E-02
    0.14895075984389942632E-02
    0.31948102202448581260E-02
    0.30150814013553913807E-02
    0.48112580151343379078E-02
    0.20883351852640941876E-02
    0.26200700300965311211E-02
    0.42312229949790868379E-03
    0.47125487956582728802E-03
    0.31794697521840471245E-02
    0.26506010763989950284E-02
    0.32118091483126072440E-03
    0.39118665718321227317E-03
    0.29185783481470469044E-03
    0.34577862237609389420E-03
    0.38746747306535621108E-03
    0.51329200219913761853E-03
    0.67876074477803409902E-03
    0.76788227217067369854E-03
    0.59008329292845756748E-03
    0.59159121579585485350E-03
    0.72154675413674035280E-03
    0.61245389971127954434E-03
    0.92694278223476919004E-03
    0.73949598930155165631E-03
    0.18592249090208179396E-01
    0.95954301926659303634E-02
    0.17236686853255217544E-01
    0.14236925973741432205E-01
    0.13112260195058851597E-01
    0.82554034952659286623E-02
    0.79207193744603257048E-03