# vtk DataFile Version 3.0
LAPLACIEN  2D
ASCII
DATASET UNSTRUCTURED_GRID
 POINTS        1616  float
  0.45880792999999997       0.87913892999999999        0.0000000000000000     
  0.40372658000000000       0.18243693000000000        0.0000000000000000     
  0.52563972999999997       0.19039755999999999        0.0000000000000000     
  0.45642953000000003       0.24226190000000000        0.0000000000000000     
  0.51984098000000001       0.24548566999999999        0.0000000000000000     
  0.21212766999999999       0.18957676000000001        0.0000000000000000     
  0.28573643999999998       0.48586826999999999        0.0000000000000000     
  0.49667887999999999       0.82979849000000006        0.0000000000000000     
  0.22848407000000001       0.23366793000000000        0.0000000000000000     
  0.27860389000000002       0.86069733000000004        0.0000000000000000     
  0.36563702999999997       0.80971340999999997        0.0000000000000000     
  0.28045499000000002       0.80393031999999998        0.0000000000000000     
  0.40374228000000001       0.78127665000000002        0.0000000000000000     
  0.56160891999999996       0.55341227999999998        0.0000000000000000     
  0.37210935000000001       0.26787699999999998        0.0000000000000000     
  0.49899838000000002       0.57286409999999999        0.0000000000000000     
  0.41023869000000002       0.33464665999999998        0.0000000000000000     
  0.33484156999999998       0.29151022999999998        0.0000000000000000     
  0.46758665999999999       0.58262307999999996        0.0000000000000000     
  0.43303693999999998       0.36569945999999998        0.0000000000000000     
  0.25741280000000000       0.61805882999999995        0.0000000000000000     
  0.28853707000000001       0.59423020000000004        0.0000000000000000     
  0.67837254000000002       0.45038665999999999        0.0000000000000000     
  0.42159046000000000       0.50697913999999999        0.0000000000000000     
  0.60276470999999998       0.73940291000000002        0.0000000000000000     
  0.30758273000000003       0.77844542000000005        0.0000000000000000     
  0.45367541000000000       0.31842187000000000        0.0000000000000000     
  0.36974101999999998       0.35807864000000000        0.0000000000000000     
  0.26919625000000003       0.65312176000000000        0.0000000000000000     
  0.61908110999999999       0.42741791000000001        0.0000000000000000     
  0.54442267000000000       0.74200747000000000        0.0000000000000000     
  0.58930464999999999       0.41588288000000001        0.0000000000000000     
  0.51511633000000001       0.74331579000000003        0.0000000000000000     
  0.12878382999999999       0.33122940000000001        0.0000000000000000     
  0.15534365000000000       0.71749246000000000        0.0000000000000000     
  0.64877724999999997       0.30161799000000000        0.0000000000000000     
  0.58853643000000000       0.28101930000000003        0.0000000000000000     
  0.56390348000000001       0.30132482999999999        0.0000000000000000     
  0.29605991999999998       0.44474459999999999        0.0000000000000000     
  0.29900669000000002       0.52983276000000001        0.0000000000000000     
  0.55954318999999997       0.48654808999999999        0.0000000000000000     
  0.42341458999999998       0.38785072999999998        0.0000000000000000     
  0.45806291999999998       0.35892998999999998        0.0000000000000000     
  0.47820750000000001       0.31147424000000001        0.0000000000000000     
  0.36344222999999998       0.38139388000000002        0.0000000000000000     
  0.17186508000000000       0.28159534000000003        0.0000000000000000     
  0.18029876000000000       0.33292397000000001        0.0000000000000000     
  0.20696366999999999       0.71822465999999996        0.0000000000000000     
  0.61326404999999995       0.34468346000000000        0.0000000000000000     
  0.29887186999999998       0.42337377999999998        0.0000000000000000     
  0.33271837999999998       0.44383096000000000        0.0000000000000000     
  0.31835012000000001       0.54267131999999996        0.0000000000000000     
  0.54882964999999995       0.45462609999999998        0.0000000000000000     
  0.20448143999999999       0.28717446000000002        0.0000000000000000     
  0.20634120000000000       0.33378063000000002        0.0000000000000000     
  0.23301781999999999       0.71859421999999995        0.0000000000000000     
  0.58606499999999995       0.35199907000000002        0.0000000000000000     
  0.20841100000000001       0.45369578999999999        0.0000000000000000     
  0.24778198000000001       0.77708496000000005        0.0000000000000000     
  0.30748062999999998       0.61002621000000001        0.0000000000000000     
  0.23337332000000000       0.41981835000000001        0.0000000000000000     
  0.25985113999999998       0.75924943000000000        0.0000000000000000     
  0.24610213000000000       0.40254353999999998        0.0000000000000000     
  0.37350351999999998       0.50127178999999999        0.0000000000000000     
  0.43235204999999999       0.78236391000000005        0.0000000000000000     
  0.30749858000000002       0.28582627999999999        0.0000000000000000     
  0.30336816000000000       0.64635111000000001        0.0000000000000000     
  0.31418906000000002       0.43625961000000002        0.0000000000000000     
  0.27223414000000001       0.78063022000000004        0.0000000000000000     
  0.22829299000000000       0.75089561000000005        0.0000000000000000     
  0.26580239000000000       0.42989294000000000        0.0000000000000000     
  0.37369119000000001       0.51975733999999996        0.0000000000000000     
  0.39681665999999999       0.51027884000000001        0.0000000000000000     
  0.32086795000000001       0.65137668999999998        0.0000000000000000     
  0.31757218999999998       0.62987181000000003        0.0000000000000000     
  0.32959777000000001       0.42500900000000003        0.0000000000000000     
  0.24663835000000001       0.74537787000000000        0.0000000000000000     
  0.26354222999999999       0.41075105000000001        0.0000000000000000     
  0.28343712999999998       0.43221330000000002        0.0000000000000000     
  0.34682245000000000       0.43182289000000001        0.0000000000000000     
  0.35306810000000000       0.45344571000000000        0.0000000000000000     
  0.57327218000000002       0.15829040000000000        0.0000000000000000     
  0.51473097999999995       0.12621746000000000        0.0000000000000000     
  0.72829681999999996       0.40151571000000003        0.0000000000000000     
  0.42703184999999999       0.53501600999999999        0.0000000000000000     
  0.32612607999999998       0.75472421999999995        0.0000000000000000     
   9.9814849999999997E-002  0.28081352999999998        0.0000000000000000     
  0.13945825000000001       0.78732252999999996        0.0000000000000000     
  0.44199519999999998       0.38275643999999998        0.0000000000000000     
  0.40132215999999998       0.36508836000000000        0.0000000000000000     
  0.43963142999999999       0.34043466999999999        0.0000000000000000     
  0.47160058999999999       0.33493045999999999        0.0000000000000000     
  0.45615203999999998       0.28038164999999998        0.0000000000000000     
  0.34321279999999998       0.35314412000000001        0.0000000000000000     
  0.29178279000000001       0.56170810000000004        0.0000000000000000     
  0.49833080000000002       0.48416767999999999        0.0000000000000000     
  0.46386271000000001       0.46452802999999998        0.0000000000000000     
  0.44722043000000000       0.45300645000000000        0.0000000000000000     
  0.46562803000000003       0.44419790999999997        0.0000000000000000     
  0.43925322000000000       0.48229485999999999        0.0000000000000000     
  0.49117628000000002       0.45665803999999999        0.0000000000000000     
  0.43435156000000003       0.46523363000000001        0.0000000000000000     
  0.19405754000000000       0.31093060000000000        0.0000000000000000     
  0.22069087000000001       0.66905079000000001        0.0000000000000000     
  0.30776597999999999       0.59042684000000001        0.0000000000000000     
  0.29541507000000000       0.57849362000000004        0.0000000000000000     
  0.28335474999999999       0.61970232999999997        0.0000000000000000     
  0.29935165000000002       0.62852803999999995        0.0000000000000000     
  0.28459435999999999       0.64121777000000002        0.0000000000000000     
  0.26698675999999999       0.63435282999999998        0.0000000000000000     
  0.24031983000000001       0.64700659000000005        0.0000000000000000     
  0.33118850000000000       0.50233682999999996        0.0000000000000000     
  0.35257061000000001       0.51072803000000000        0.0000000000000000     
  0.29038973000000001       0.78732479000000000        0.0000000000000000     
  0.28737915000000003       0.76752330999999996        0.0000000000000000     
  0.21978159000000000       0.73315437000000006        0.0000000000000000     
  0.18119734000000001       0.76257752999999995        0.0000000000000000     
  0.20353571000000001       0.75186065999999996        0.0000000000000000     
  0.39122694000000002       0.49007234000000000        0.0000000000000000     
  0.59140473999999998       0.13507609000000001        0.0000000000000000     
  0.53156702000000000        9.7663528999999999E-002   0.0000000000000000     
  0.76346223999999996       0.39657278000000001        0.0000000000000000     
  0.41119013999999998       0.52354409999999996        0.0000000000000000     
   7.2558165999999993E-002  0.26885883999999999        0.0000000000000000     
  0.10497347000000000       0.79895936000000001        0.0000000000000000     
[...]
 CELL_DATA        2963
 SCALARS VEGF float
 LOOKUP_TABLE default
    0.32760756035052526725E-04
    0.19538528861613764921E-03
    0.12975508296570671305E-03
    0.11107279235744012757E-03
    0.13761080219070311124E-03
    0.55220347001675775813E-04
    0.54252314202822941056E-04
    0.21223851224718581375E-03
    0.24569012069703792262E-04
    0.56775484480848167901E-02
    0.14708966806318326528E-03
    0.16582624589164349379E-03
    0.93133553484203338664E-04
    0.18744961294980122665E-03
    0.26152153251459028354E-04
    0.86994151525055565246E-04
    0.45234758776489403936E-02
    0.91010275138699947648E-04
    0.59039762285179167361E-04
    0.32678397455629170981E-03
    0.18791601709726137243E-03
    0.97416255758082832827E-02
    0.91773452571573300995E-02
    0.33322200027308671770E-03
    0.69829959256860647809E-03
    0.55645772258104426317E-03
    0.26947804936572268856E-03
    0.51359207797025111691E-04
    0.13412483070658140906E-03
    0.20953945407080088468E-03
    0.80640232226466569947E-03
    0.31048794770209251252E-04
    0.23712183838184517086E-03
    0.10076029266402313639E-02
    0.19845772364873820958E-03
    0.31012345093626341244E-03
    0.19658666115796814074E-03
    0.12469189338467944524E-02
    0.80177464237696097551E-04
    0.42515935491937006246E-02
    0.85920672152331654362E-04
    0.12574513091464665972E-03
    0.47245113581296577969E-03
    0.23489611908425770889E-03
    0.27054108989049087446E-04
    0.23607543936552343421E-02
    0.79060671618430553085E-04
    0.36645285846782264740E-04
    0.19966926277627581156E-03
    0.28074142157705020032E-04
    0.18526645822061281032E-02
    0.10897625443069269564E-03
    0.10146000882637133645E-03
    0.13138560575758651016E-03
    0.13744662177980564687E-03
    0.15922778094969022508E-02
    0.87732060878548478815E-04
    0.13297574993019749701E-02
    0.37498365408401039198E-02
    0.10472095090829610167E-03
    0.32843532203835649683E-02
    0.20624434537168300700E-03
    0.44835020682733012600E-04
    0.32999487678519292329E-04
    0.16264391079035282663E-03
    0.28019082342575548500E-02
    0.56408566251566502701E-03
    0.34830758011522083492E-02
    0.76218231118385139367E-02
    0.93905766150634392871E-04
    0.81993035845410528395E-04
    0.29894164143944666062E-02
    0.19090608821437318895E-03
    0.15422485399182336266E-03
    0.54903372767059008958E-02
    0.56082119812620690943E-02
    0.94363953255708395845E-02
    0.43907252317938972805E-02
    0.10309063926684767262E-03
    0.26263664562817721181E-02
    0.34404878961713293323E-04
    0.19862422039412415409E-02
    0.35182403051157652880E-02
    0.72731819143990782475E-02
    0.90308574344521400524E-03
    0.18226418997606039750E-03
    0.93735550126161052038E-04
    0.36959574416613373169E-03
    0.48837849309881441705E-03
    0.40977094612806376809E-04
    0.28963721254887691463E-03
    0.19413299030074148213E-02
    0.90597982816934090333E-02
    0.15084173591057045520E-02
    0.57541102646730540870E-03
    0.12636774747707638783E-02
    0.95433802030421566176E-02
    0.25268365296956987309E-03
    0.17959642592522645044E-03
    0.14227782519983303284E-03
    0.15153384552093812285E-03
    0.34409346798587174847E-03
    0.19132608561803277677E-02
    0.20685416651087469076E-03
    0.21827586436081874988E-02
    0.68717188550926390782E-04
    0.20206551421807079070E-03
    0.40533640879972090488E-04
    0.21378649305661646604E-02
    0.13421463553102433116E-03
    0.11324430134385166157E-03
    0.13108667490859468043E-03
    0.76452378562609813752E-04
    0.12141969839962731220E-03
    0.58540172385822920398E-04
    0.12230395637291463008E-03
    0.33579235394766123249E-04
    0.41081989086809080232E-04
    0.68342868358613534027E-02
    0.35676176172333342457E-02
    0.12852463390550234032E-03
    0.63170619150260365034E-04
    0.12841083281637198903E-03
    0.10696531917226837893E-02
    0.10362951312331046354E-03
    0.81183895167366831175E-03
    0.57699103006408020502E-04
    0.25336409806610122285E-02
    0.11121834908756809100E-02
    0.38272340846731926073E-02
    0.84714604576541035173E-03
    0.12842044178129729658E-02
    0.49749128028942950566E-02
    0.87764616018108719108E-03
    0.17120283556058882562E-02
    0.31842264599705088005E-02
    0.32195046960421113032E-02
    0.65514748504031923657E-03
    0.84598145280927078177E-04
    0.10642794420468884662E-02
    0.38729486173849098779E-02
    0.71176673185230951001E-03
    0.86263043330093002597E-02
    0.28411728830787597380E-02
    0.23244019187455408279E-02
    0.74921801735718346164E-03
    0.14843310895943195144E-03
    0.81611230802640973968E-03
    0.10943386420681614261E-03
    0.30929122555127352805E-02
    0.19715370473294063845E-03
    0.87276936843633193958E-02
    0.25186407800841014229E-02
    0.70996970207319696090E-03
    0.18385762070161534832E-03
    0.14824754229690790576E-03
    0.11468889312858669596E-03
    0.19487457655980152055E-03
    0.17669044119378714231E-03
    0.17931572621507040608E-03
    0.18792518426490444224E-03
    0.15996488017084141832E-03
    0.63456126408537277643E-03
    0.75411535003484027762E-03
    0.15242566998371301790E-03
    0.20079731558273199339E-02
    0.10852633224676017142E-03
    0.11989818024804824604E-02
    0.66096056585933935304E-02
    0.90382474984670882565E-03
    0.80017653320595336086E-02
    0.17447187551058272324E-03
    0.18040236954112821919E-03
    0.16121017939574361529E-02
    0.15083749081791500359E-03
    0.14038474145796847148E-03
    0.30806492978771793856E-03
    0.17979009637066319734E-03
    0.10162400227291086487E-03
    0.11099670327642353960E-03
    0.60659514447765471717E-02
    0.24715872772014286108E-03
    0.34037013912903202112E-03
    0.12843210927882542914E-03
    0.15635457580384889737E-03
    0.16251136769859783680E-03
    0.13255267537893209405E-02
    0.51197744117217598801E-03
    0.28511787581070226899E-02
    0.84850177553665525362E-04
    0.16002822222654483056E-03
    0.64175345370376512405E-02
    0.70949689967394105714E-04
    0.11678338835041916115E-03
    0.24433003220270502372E-02
    0.11112689238577391163E-03
    0.44395291984319715933E-02
    0.11062408277025910161E-02
    0.54005139934381186755E-03
    0.12731860243408527284E-03
    0.29216845327129011564E-03
    0.18097311616601069288E-03
    0.14902354989587983424E-03
    0.17284702948128381674E-02
    0.90098674692723548785E-02
    0.90781489395905627660E-02
    0.14291402069026100299E-02
    0.91011622281829528819E-02
    0.73233713507309282018E-02
    0.12552427797998607522E-03
    0.13752822008592793194E-03
    0.97473336995792161236E-02
    0.97906087953352066711E-02
    0.72591760881790743363E-04
    0.17361121837888859615E-03
    0.16463880795796763845E-03
    0.98525130180359549170E-03
    0.70030771509369785406E-03
    0.20435087067353745194E-02
    0.29820363897022734642E-02
    0.19318452907761776184E-03
    0.15442254088115904098E-03
    0.42556248306636733228E-03
    0.36652378239045357508E-02
    0.33442386796540806565E-02
    0.14732276279831618042E-03
    0.64217389768510464189E-03
    0.89995027882683916853E-03
    0.87641321702685486082E-03
    0.84984000575521589232E-03
    0.10650964998161385321E-02
    0.39660642244545549250E-03
    0.13479933818244630188E-03
    0.16270524466189758856E-02
    0.58185696696247651404E-03
    0.10985018376354340960E-02
    0.36401026190521810035E-04
    0.29613510765024169021E-02
    0.99432532808980626099E-02
    0.81513000959578581911E-02
    0.30545392966346220261E-02
    0.20639205916149103940E-03
    0.36150696208570617766E-02
    0.44051672520812002951E-02
    0.90837375726145197508E-02
    0.56233802408229335151E-03
    0.14664241766143637849E-02
    0.21623097704456775876E-02
    0.71045852866323500833E-03
    0.57832150072901853527E-02
    0.72761022597466586473E-02
    0.26181554863528286098E-03
    0.47392502375738038102E-03
    0.86351998266324340309E-02
    0.79237439083240960788E-03
    0.43420169922253875477E-03
    0.16438702448992796416E-02
    0.70417427225661125521E-03
    0.85163783937692947440E-02
    0.29543168699959840165E-03
    0.80680026086624116038E-02
    0.78550331589075112620E-02
    0.74105727487896152009E-02
    0.19769122452930782698E-03
    0.88698038107809604874E-02
    0.13401380318011949194E-03
    0.88269326181846900770E-02
    0.83844073700542042643E-02
    0.47133214150256244612E-02
    0.90948651350354469541E-02
    0.23096813048905360556E-03
    0.17969448922337512634E-02
    0.86869355325168307741E-02
    0.52932926226911232795E-02
    0.57694015891995584569E-02
    0.10487552590682904582E-03
    0.19565654051515476812E-03
    0.24053650674229552059E-03
    0.11971181432839145449E-03
    0.57146930276685374561E-02
    0.68397783622285335974E-04
    0.16497143148457181147E-02
    0.46878706085587911563E-03
    0.29961993880773374723E-03
    0.58992250683871727893E-02
    0.10760372388435343984E-03
    0.36276029533922988721E-02
    0.56249649811273769173E-02
    0.82247924430499960800E-03
    0.33050223086498884328E-03
    0.30342867954144563851E-03
    0.27559305930016387556E-03
    0.38147123923517865275E-02
    0.81347544135836708998E-04
    0.25311268717309571381E-03
    0.35647334385702253261E-02
    0.63810667717825054340E-02
    0.20513861966196559271E-03
    0.90029124224413979022E-02
    0.40619073402530835384E-02
    0.82940324418243635638E-03
    0.49786734721312580002E-02
    0.22488644914497269919E-02
    0.63849424376530696055E-03
    0.10640781434558853943E-02
    0.13204386792420395175E-03
    0.73538990617371974984E-02
    0.10649240154452570772E-03
    0.94253199313237747553E-02
    0.23425846339126523907E-02
    0.40465987359221159900E-02
    0.14335995961160705962E-02
    0.21057117035668112756E-02
    0.51028206096333248235E-02
    0.15932070827632003945E-03
    0.43103105831906779639E-04
    0.17275227107174835617E-02
    0.10990687760517345133E-02
    0.22499717215805369909E-02
    0.11859298904604920807E-03
    0.11458419190617063869E-02
    0.38915990158172321075E-03
    0.65407063239178464022E-03
    0.13141258088558130292E-03
    0.13066056513079743668E-03
    0.86107065168897277234E-03
    0.34673396991278404187E-03
    0.35857909438210930526E-02
    0.90420869707698054308E-03
    0.20066070605114923425E-03
    0.35967972535117611645E-02
    0.29300347439548922457E-02
    0.15349839186968910944E-03
    0.16107108953551985716E-03
    0.80355029451971925723E-03
    0.88445943176196795826E-04
    0.97700631373121818619E-03
    0.16515375399843762374E-02
    0.68427921524674727768E-03
    0.79168752113797225120E-04
    0.13116283687242383292E-03
    0.67894890689779738378E-03
    0.86974205925396150078E-03
    0.25632054569736336704E-03
    0.70841929933961661145E-02
    0.63364873836280425495E-02
    0.22859427155272251525E-02
    0.72494858343658680200E-03
    0.15978132678501924492E-03
    0.62480168516134638383E-04
    0.65884817777163011713E-04
    0.11566024010881802836E-03
    0.11237863631657431555E-03
    0.14502451398810381391E-03
    0.13452735790101520187E-03
    0.11938947997368200662E-03
    0.12418298482149648580E-03
    0.14070334459697245535E-03
    0.14578996068400723552E-03
    0.18891995071984175858E-03
    0.15787413966963402610E-03
    0.16181918266369905730E-03
    0.23413387739026564143E-03
    0.92904341278193886748E-04
    0.10482216269128167760E-03
    0.96174204212869180623E-04
    0.10533929591343134217E-02
    0.14055908720473114966E-02
    0.88856278739404687128E-02
    0.89585997179766688192E-02
    0.90814394269180566399E-02
    0.90874956322051815560E-02
    0.91052646224402296327E-02
    0.91069303375039128978E-02
    0.89688108503738362548E-02
    0.90265048836887847722E-02
    0.91945550430903161265E-02
    0.89224498284734034270E-02
    0.90139310043807659156E-02
    0.88580399023363912137E-02
    0.90969858799500626090E-02
    0.89026195641399678837E-02
    0.23264535159215894407E-03
    0.18845391175594097604E-03
    0.26248511614635752429E-03
    0.72106563006557480942E-03
    0.14490380789097647221E-02
    0.17031654551377371516E-02
    0.11280418448800719200E-02
    0.17911443958155354519E-02
    0.99448412557127680717E-03
    0.87218558388552297825E-03
    0.84610163239351638721E-03
    0.10057326699643336435E-02
    0.76528023135866379920E-03
    0.70386682863092075568E-03
    0.43001549094427672301E-03
    0.81987966462936415993E-03
    0.66673894735770665790E-04
    0.66620773400482885453E-03
    0.32171657138394989250E-02
    0.39000512345344065177E-02
    0.57701932082329489629E-02
    0.48786593303653102288E-02
    0.11056218460630683371E-03
    0.10998907166257057859E-03
    0.12457866059032310997E-03
    0.13417678932080940798E-03
    0.18682119927022520448E-03
    0.14732518023568988777E-03
    0.13025923334402170466E-03
    0.68321469705913255056E-04
    0.11758315266818407299E-03
    0.89346067400232443909E-04
    0.67316336271410412428E-02
    0.75852793961824040506E-02
    0.31165498261906534683E-03
    0.39922098155319258803E-02
    0.11722655838181882907E-03
    0.14329841519602795857E-03
    0.11412275670226888140E-03
    0.82626485523952704088E-03
    0.57897756768972004435E-03
    0.91952976301500968792E-02
    0.87864064792184913555E-02
    0.41516895450998337529E-04
    0.14067491910730309853E-03
    0.62880067940355321597E-04
    0.51180775618720069395E-04
    0.47408907274909162948E-04
    0.14502881969002343878E-03
    0.14069225046623815034E-03
    0.12534060001754816858E-03
    0.12496803221212745617E-03
    0.14003591372529824717E-03
    0.13259401722431297054E-03
    0.12347995881854581502E-03
    0.11264997272059852520E-03
    0.12338772321373952211E-03
    0.11493716443948622560E-03
    0.11256630603159387127E-03
    0.11633707820888016221E-03
    0.14049820146834737160E-03
    0.18815625419556114453E-03
    0.17051283108288647992E-03
    0.16574725996895497038E-03
    0.16776807025551155618E-03
    0.17367248970231877539E-03
    0.17057919777529141820E-03
    0.23083670736937430819E-03
    0.14568568864987833152E-03
    0.20524618631511052226E-03
    0.21069121580575880782E-03
    0.30495867550078538345E-03
    0.10645816551775819374E-03
    0.10629064018607468456E-03
    0.24480159781911487414E-02
    0.17899585867448459826E-02
    0.17812215906338145759E-02
    0.20389425738358028448E-02
    0.87406166291002420493E-02
    0.89094207459069190563E-02
    0.87566959761949756530E-02
    0.88754264200241045346E-02
    0.19340120600789059702E-03
    0.12063960923720817593E-03
    0.17965428097379063229E-03
    0.18794011400775277555E-03
    0.24507256976139863867E-03
    0.30309907507874831898E-03
    0.16293459040440995433E-03
    0.42793240782187670071E-03
    0.89902852646250256546E-03
    0.98789051431001596512E-03
    0.48203109355003182293E-03
    0.41868956179737904606E-03
    0.64291066975345463694E-03
    0.10003973676228886027E-02
    0.67029893086090295163E-03
    0.15487368496848378900E-02
    0.93348500269106369186E-03
    0.11465763436448778070E-02
    0.28631958127447384999E-02
    0.44220490449449791071E-02
    0.22321515221547052511E-02
    0.28110416373573411837E-02
    0.38379638637276126609E-02
    0.45131438872306455651E-02
    0.37102944184535715383E-02
    0.30553675168683933766E-02
    0.33084175398639284298E-02
    0.35103470210591089171E-02
    0.13749053884796298090E-03
    0.13656300675252185453E-03
    0.78939090607053500953E-04
    0.10838827483248131007E-03
    0.18909169666209794665E-03
    0.14912844918613338361E-03
    0.84194332624038612650E-02
    0.87772675430389818924E-02
    0.11828514440634302688E-03
    0.16206981771873076384E-03
    0.10064879120248950057E-03
    0.62522350073469963594E-03
    0.60646538240641278440E-03
    0.43526547564398563814E-04
    0.55252192503026369575E-04
    0.41655414905428305935E-04
    0.11407176750548170805E-03
    0.14490771756113865476E-03
    0.15686530980027116712E-03
    0.12035440612369431915E-03
    0.83419539394457235121E-02
    0.84614308824731629399E-02
    0.91170773504183170999E-02
    0.90181906738287572617E-02
    0.21733239389133023663E-03
    0.17388060495336055372E-03
    0.25832865406758210225E-03
    0.22535749635348574201E-03
    0.34587350110454372423E-03
    0.36483568548066364502E-03
    0.31761128661474894840E-03
    0.56706415837846045613E-03
    0.10374879546593796745E-02
    0.12406511430532647135E-02
    0.91359421770235993161E-03
    0.11571316711186973355E-02
    0.12675310020126195811E-02
    0.24910525814180457631E-02
    0.14999490326650429667E-02
    0.15831389225265315047E-02
    0.49683786333520425435E-02
    0.36857081426758036766E-02
    0.43315128992356208976E-02
    0.37094016604929782102E-02
    0.43652830779434131925E-02
    0.46481025603401157631E-02
    0.27649439308276950455E-02
    0.37900398804828140838E-02
    0.24237658951004707741E-02
    0.28364967555597020259E-02
    0.21080724716186650253E-02
    0.12010317137555908459E-02
    0.23048982184197914710E-02
    0.24262489544265553564E-02
    0.21311587739305431002E-02
    0.20077158455322212556E-02
    0.76924200085070254312E-04
    0.71269458764634596249E-04
    0.96845022490385136043E-04
    0.31108189802638084968E-04
    0.52506212923543856214E-04
    0.75893985398494965612E-04
    0.88780596966855641590E-04
    0.65120439064126608769E-04
    0.79928416265793154373E-04
    0.85208346690006484155E-04
    0.12133742069335257086E-03
    0.10337063559961840961E-03
    0.10704166380976509764E-03
    0.15116494742518714984E-03
    0.12776803885620433314E-03
    0.13533089616428697790E-03
    0.13311216111234504527E-03
    0.14393832618321756494E-03
    0.12275115964702798294E-03
    0.96215500059860869326E-04
    0.16898087964240600563E-03
    0.16038324967025107954E-03
    0.84927198667891050377E-02
    0.89228993462628254651E-02
    0.80215913112866835035E-03
    0.55948316397662594800E-03
    0.67600763062564041966E-03
    0.76940810411133854496E-03
    0.51149929669416663389E-03
    0.38975692365975344580E-03
    0.51363827937033542260E-03
    0.79868982875046462631E-03
    0.24981535359951275409E-02
    0.10211867780937288700E-02
    0.13895996450798650014E-02
    0.10542525511954244696E-02
    0.88509028646365764306E-03
    0.11862217085916301404E-02
    0.75110095711794684376E-03
    0.66607488936036931843E-03
    0.14391342598918694263E-02
    0.15844713736290370540E-02
    0.13361119737828467454E-02
    0.18820808344349587975E-02
    0.10377044905461804691E-02
    0.16903058415497118801E-02
    0.20723373821790371657E-02
    0.21906297479760217586E-02
    0.17505199836654729371E-02
    0.19752376221895888257E-02
    0.38783752116454328282E-02
    0.44889762773938409607E-02
    0.52612514631818728394E-02
    0.46173636510759268753E-02
    0.62422977943737733078E-02
    0.58903268231088540610E-02
    0.36169491669392414557E-02
    0.31460248431293938616E-02
    0.63266790696127537500E-04
    0.63434713204792386818E-04
    0.23722723593644803701E-02
    0.19529234466309044246E-02
    0.82707243515170512753E-03
    0.10311189514819448041E-02
    0.46213665851197566984E-03
    0.11430464049307963517E-02
    0.10740569071221973355E-02
    0.17310967967592327029E-02
    0.71098121562053939650E-03
    0.92203828903445156188E-03
    0.92462377667754379893E-04
    0.11457564773923333728E-03
    0.11429696500391416276E-02
    0.93977901387817515486E-03
    0.57460837132335791048E-04
    0.82074834595745527937E-04
    0.44859539685229460771E-04
    0.61149944306546050827E-04
    0.75764553628338135102E-04
    0.12543339147438751016E-03
    0.20445017929512725695E-03
    0.21934438534987546888E-03
    0.18172923465637296739E-03
    0.17981170918213889350E-03
    0.21547352717752774835E-03
    0.18607032914391713084E-03
    0.26706624850068443359E-03
    0.21856918315217810323E-03
    0.63649680514987847652E-02
    0.31152871104744538078E-02
    0.60601869034466676958E-02
    0.48830093035645812452E-02
    0.44333889466264654947E-02
    0.25866623552141770719E-02
    0.13523285735714726786E-03