# vtk DataFile Version 3.0
LAPLACIEN  2D
ASCII
DATASET UNSTRUCTURED_GRID
 POINTS        1857  float
   3.1250000000000000E-002  0.93750000000000000        0.0000000000000000     
   6.2500000000000000E-002  0.93750000000000000        0.0000000000000000     
   6.2500000000000000E-002  0.96875000000000000        0.0000000000000000     
   1.8749999999999999E-002  0.95625000000000004        0.0000000000000000     
   4.0625000000000001E-002  0.95937499999999998        0.0000000000000000     
   4.3749999999999997E-002  0.98124999999999996        0.0000000000000000     
   2.1874999999999999E-002  0.97812500000000002        0.0000000000000000     
   9.3750000000000000E-002  0.93750000000000000        0.0000000000000000     
  0.12500000000000000       0.93750000000000000        0.0000000000000000     
  0.12500000000000000       0.96875000000000000        0.0000000000000000     
   8.1250000000000003E-002  0.95625000000000004        0.0000000000000000     
  0.10312499999999999       0.95937499999999998        0.0000000000000000     
  0.10625000000000000       0.98124999999999996        0.0000000000000000     
   8.4375000000000006E-002  0.97812500000000002        0.0000000000000000     
   3.1250000000000000E-002  0.87500000000000000        0.0000000000000000     
   6.2500000000000000E-002  0.87500000000000000        0.0000000000000000     
   6.2500000000000000E-002  0.90625000000000000        0.0000000000000000     
   1.8749999999999999E-002  0.89375000000000004        0.0000000000000000     
   4.0625000000000001E-002  0.89687499999999998        0.0000000000000000     
   4.3749999999999997E-002  0.91874999999999996        0.0000000000000000     
   2.1874999999999999E-002  0.91562500000000002        0.0000000000000000     
   9.3750000000000000E-002  0.87500000000000000        0.0000000000000000     
  0.12500000000000000       0.87500000000000000        0.0000000000000000     
  0.12500000000000000       0.90625000000000000        0.0000000000000000     
   8.1250000000000003E-002  0.89375000000000004        0.0000000000000000     
  0.10312499999999999       0.89687499999999998        0.0000000000000000     
  0.10625000000000000       0.91874999999999996        0.0000000000000000     
   8.4375000000000006E-002  0.91562500000000002        0.0000000000000000     
  0.15625000000000000       0.93750000000000000        0.0000000000000000     
  0.18750000000000000       0.93750000000000000        0.0000000000000000     
  0.18750000000000000       0.96875000000000000        0.0000000000000000     
  0.14374999999999999       0.95625000000000004        0.0000000000000000     
  0.16562499999999999       0.95937499999999998        0.0000000000000000     
  0.16875000000000001       0.98124999999999996        0.0000000000000000     
  0.14687500000000001       0.97812500000000002        0.0000000000000000     
  0.21875000000000000       0.93750000000000000        0.0000000000000000     
  0.25000000000000000       0.93750000000000000        0.0000000000000000     
  0.25000000000000000       0.96875000000000000        0.0000000000000000     
  0.20624999999999999       0.95625000000000004        0.0000000000000000     
  0.22812499999999999       0.95937499999999998        0.0000000000000000     
  0.23125000000000001       0.98124999999999996        0.0000000000000000     
  0.20937500000000001       0.97812500000000002        0.0000000000000000     
  0.15625000000000000       0.87500000000000000        0.0000000000000000     
  0.18750000000000000       0.87500000000000000        0.0000000000000000     
  0.18750000000000000       0.90625000000000000        0.0000000000000000     
  0.14374999999999999       0.89375000000000004        0.0000000000000000     
  0.16562499999999999       0.89687499999999998        0.0000000000000000     
  0.16875000000000001       0.91874999999999996        0.0000000000000000     
  0.14687500000000001       0.91562500000000002        0.0000000000000000     
  0.21875000000000000       0.87500000000000000        0.0000000000000000     
  0.25000000000000000       0.87500000000000000        0.0000000000000000     
  0.25000000000000000       0.90625000000000000        0.0000000000000000     
  0.20624999999999999       0.89375000000000004        0.0000000000000000     
  0.22812499999999999       0.89687499999999998        0.0000000000000000     
  0.23125000000000001       0.91874999999999996        0.0000000000000000     
  0.20937500000000001       0.91562500000000002        0.0000000000000000     
   3.1250000000000000E-002  0.81250000000000000        0.0000000000000000     
   6.2500000000000000E-002  0.81250000000000000        0.0000000000000000     
   6.2500000000000000E-002  0.84375000000000000        0.0000000000000000     
   1.8749999999999999E-002  0.83125000000000004        0.0000000000000000     
   4.0625000000000001E-002  0.83437499999999998        0.0000000000000000     
   4.3749999999999997E-002  0.85624999999999996        0.0000000000000000     
   2.1874999999999999E-002  0.85312500000000002        0.0000000000000000     
   9.3750000000000000E-002  0.81250000000000000        0.0000000000000000     
  0.12500000000000000       0.81250000000000000        0.0000000000000000     
  0.12500000000000000       0.84375000000000000        0.0000000000000000     
   8.1250000000000003E-002  0.83125000000000004        0.0000000000000000     
  0.10312499999999999       0.83437499999999998        0.0000000000000000     
  0.10625000000000000       0.85624999999999996        0.0000000000000000     
   8.4375000000000006E-002  0.85312500000000002        0.0000000000000000     
   3.1250000000000000E-002  0.75000000000000000        0.0000000000000000     
   6.2500000000000000E-002  0.75000000000000000        0.0000000000000000     
   6.2500000000000000E-002  0.78125000000000000        0.0000000000000000     
   1.8749999999999999E-002  0.76875000000000004        0.0000000000000000     
   4.0625000000000001E-002  0.77187499999999998        0.0000000000000000     
   4.3749999999999997E-002  0.79374999999999996        0.0000000000000000     
   2.1874999999999999E-002  0.79062500000000002        0.0000000000000000     
   9.3750000000000000E-002  0.75000000000000000        0.0000000000000000     
  0.12500000000000000       0.75000000000000000        0.0000000000000000     
  0.12500000000000000       0.78125000000000000        0.0000000000000000     
   8.1250000000000003E-002  0.76875000000000004        0.0000000000000000     
  0.10312499999999999       0.77187499999999998        0.0000000000000000     
  0.10625000000000000       0.79374999999999996        0.0000000000000000     
   8.4375000000000006E-002  0.79062500000000002        0.0000000000000000     
  0.15625000000000000       0.81250000000000000        0.0000000000000000     
  0.18750000000000000       0.81250000000000000        0.0000000000000000     
  0.18750000000000000       0.84375000000000000        0.0000000000000000     
  0.14374999999999999       0.83125000000000004        0.0000000000000000     
  0.16562499999999999       0.83437499999999998        0.0000000000000000     
  0.16875000000000001       0.85624999999999996        0.0000000000000000     
  0.14687500000000001       0.85312500000000002        0.0000000000000000     
  0.21875000000000000       0.81250000000000000        0.0000000000000000     
  0.25000000000000000       0.81250000000000000        0.0000000000000000     
  0.25000000000000000       0.84375000000000000        0.0000000000000000     
  0.20624999999999999       0.83125000000000004        0.0000000000000000     
  0.22812499999999999       0.83437499999999998        0.0000000000000000     
  0.23125000000000001       0.85624999999999996        0.0000000000000000     
  0.20937500000000001       0.85312500000000002        0.0000000000000000     
  0.15625000000000000       0.75000000000000000        0.0000000000000000     
  0.18750000000000000       0.75000000000000000        0.0000000000000000     
  0.18750000000000000       0.78125000000000000        0.0000000000000000     
  0.14374999999999999       0.76875000000000004        0.0000000000000000     
  0.16562499999999999       0.77187499999999998        0.0000000000000000     
  0.16875000000000001       0.79374999999999996        0.0000000000000000     
  0.14687500000000001       0.79062500000000002        0.0000000000000000     
  0.21875000000000000       0.75000000000000000        0.0000000000000000     
  0.25000000000000000       0.75000000000000000        0.0000000000000000     
  0.25000000000000000       0.78125000000000000        0.0000000000000000     
  0.20624999999999999       0.76875000000000004        0.0000000000000000     
  0.22812499999999999       0.77187499999999998        0.0000000000000000     
  0.23125000000000001       0.79374999999999996        0.0000000000000000     
  0.20937500000000001       0.79062500000000002        0.0000000000000000     
  0.28125000000000000       0.93750000000000000        0.0000000000000000     
  0.31250000000000000       0.93750000000000000        0.0000000000000000     
  0.31250000000000000       0.96875000000000000        0.0000000000000000     
  0.26874999999999999       0.95625000000000004        0.0000000000000000     
  0.29062500000000002       0.95937499999999998        0.0000000000000000     
  0.29375000000000001       0.98124999999999996        0.0000000000000000     
  0.27187499999999998       0.97812500000000002        0.0000000000000000     
  0.34375000000000000       0.93750000000000000        0.0000000000000000     
  0.37500000000000000       0.93750000000000000        0.0000000000000000     
  0.37500000000000000       0.96875000000000000        0.0000000000000000     
  0.33124999999999999       0.95625000000000004        0.0000000000000000     
  0.35312500000000002       0.95937499999999998        0.0000000000000000     
  0.35625000000000001       0.98124999999999996        0.0000000000000000     
[...]
 CELL_DATA        3584
 SCALARS Cells_density float
 LOOKUP_TABLE default
    0.99999775550159697435E+00
    0.99999946170238529497E+00
    0.99999928652755276648E+00
    0.99999944888106928609E+00
    0.99999948969041485558E+00
    0.99999742291708104691E+00
    0.99999956627581698676E+00
    0.99999869857497825087E+00
    0.99999946519035975978E+00
    0.99999970069165777797E+00
    0.99999888232297817758E+00
    0.99999960069567561671E+00
    0.99999996539589808275E+00
    0.99999994855759122281E+00
    0.99999951915461993135E+00
    0.10000001759274941282E+01
    0.99999945125147260416E+00
    0.99999954292802739619E+00
    0.99999962217203763881E+00
    0.99999749357116096693E+00
    0.99999969599149318711E+00
    0.99999887514862306759E+00
    0.99999954952331171487E+00
    0.99999779631382612610E+00
    0.99999969511950859147E+00
    0.99999939676914784137E+00
    0.10000004829980055909E+01
    0.10000001452457458750E+01
    0.99999782079297439008E+00
    0.99999958415337797391E+00
    0.99999938158955570255E+00
    0.99999965696803649884E+00
    0.10000002556525637853E+01
    0.99999945282486191189E+00
    0.99999947348879059117E+00
    0.99999959387981351977E+00
    0.99999761185207025616E+00
    0.99999963764839117086E+00
    0.99999897816149097007E+00
    0.99999971435649603890E+00
    0.10000001043516340005E+01
    0.10000005191475880295E+01
    0.99999960683721711430E+00
    0.10000003311645948578E+01
    0.99999947233229280474E+00
    0.99999967714997195500E+00
    0.10000003556683285666E+01
    0.99999948116858738967E+00
    0.99999964230426041656E+00
    0.10000003174072920054E+01
    0.99999941157852645368E+00
    0.99999969098212249108E+00
    0.10000003717099492651E+01
    0.99999956097511266684E+00
    0.10000009945486327823E+01
    0.10000010142242510280E+01
    0.99999955442430565888E+00
    0.10000001987138951165E+01
    0.99999945955682700838E+00
    0.99999954779672661775E+00
    0.99999963904219346666E+00
    0.99999749754732136786E+00
    0.99999970295614004634E+00
    0.99999890033207972095E+00
    0.99999957751486945323E+00
    0.99999784104939848373E+00
    0.99999974240376698909E+00
    0.99999945796491429562E+00
    0.10000006079686554195E+01
    0.10000002709903539344E+01
    0.99999955569606291395E+00
    0.10000001982431792058E+01
    0.99999945980082349806E+00
    0.99999954790416645256E+00
    0.99999963950278336622E+00
    0.99999749762559342336E+00
    0.99999970307009644621E+00
    0.99999890156320625501E+00
    0.99999957860386290420E+00
    0.99999784330355001583E+00
    0.99999974482563114275E+00
    0.99999946062818012571E+00
    0.10000006095279634355E+01
    0.10000002737654667406E+01
    0.99999962602700398495E+00
    0.10000003443497345046E+01
    0.99999948007650651949E+00
    0.99999968197881661247E+00
    0.10000003628003348854E+01
    0.99999948541342853492E+00
    0.99999965034371651740E+00
    0.10000003359488778276E+01
    0.99999944282278729890E+00
    0.99999969079756700907E+00
    0.10000004034660183727E+01
    0.99999959137344807125E+00
    0.10000010133620218511E+01
    0.10000010293336842881E+01
    0.99999962724403779202E+00
    0.10000003444727920687E+01
    0.99999948028595997407E+00
    0.99999968205980827030E+00
    0.10000003624681490511E+01
    0.99999948563936613688E+00
    0.99999965051180761400E+00
    0.10000003376284436474E+01
    0.99999944426023001931E+00
    0.99999969340826388997E+00
    0.10000004058217040193E+01
    0.99999959422941053777E+00
    0.10000010130674652498E+01
    0.10000010292814429658E+01
    0.99999782394299374655E+00
    0.99999958975665625971E+00
    0.99999938551223754857E+00
    0.99999966371764270612E+00
    0.10000002655328052992E+01
    0.99999948531033733268E+00
    0.99999947472176986540E+00
    0.99999962133580888590E+00
    0.99999765265869444697E+00
    0.99999966296188946835E+00
    0.99999899147711601710E+00
    0.99999972019996119510E+00
    0.10000001158549109981E+01
    0.10000005293790052985E+01
    0.99999961046717755764E+00
    0.10000003380835185141E+01
    0.99999947660644672442E+00
    0.99999968448536535881E+00
    0.10000003726424566697E+01
    0.99999950533365755678E+00
    0.99999961745300292026E+00
    0.10000003473123326714E+01
    0.99999946435924502719E+00
    0.99999972823384875031E+00
    0.10000003898794733725E+01
    0.99999956798524269885E+00
    0.10000010186977579263E+01
    0.10000010422667162668E+01
    0.99999782398388459281E+00
    0.99999958974436198300E+00
    0.99999938557462553224E+00
    0.99999966386433869481E+00
    0.10000002652343265019E+01
    0.99999948633674951015E+00
    0.99999947700424252073E+00
    0.99999962307623413427E+00
    0.99999765463249823405E+00
    0.99999966389735828187E+00
    0.99999899220296917246E+00
    0.99999972025966277211E+00
    0.10000001159411087137E+01
    0.10000005290857434392E+01
    0.99999961068008191845E+00
    0.10000003377316770692E+01
    0.99999947667081656721E+00
    0.99999968466274813395E+00
    0.10000003726840451801E+01
    0.99999950635647161246E+00
    0.99999961991969976705E+00
    0.10000003494319391617E+01
    0.99999946659339633559E+00
    0.99999972947592352668E+00
    0.10000003914865343013E+01
    0.99999956812077861468E+00
    0.10000010186152779035E+01
    0.10000010419115492599E+01
    0.99999962991168500626E+00
    0.10000003503842944674E+01
    0.99999948440678743111E+00
    0.99999968936601513203E+00
    0.10000003788491345080E+01
    0.99999950975941798159E+00
    0.99999962560472865913E+00
    0.10000003649588520283E+01
    0.99999948673741789751E+00
    0.99999972173720208524E+00
    0.10000004212835171824E+01
    0.99999959875209520899E+00
    0.10000010267160770461E+01
    0.10000010465005297888E+01
    0.99999963111398060267E+00
    0.10000003500088434638E+01
    0.99999948456752008052E+00
    0.99999968939445882388E+00
    0.10000003779539834436E+01
    0.99999951016512855784E+00
    0.99999962576524703550E+00
    0.10000003680121818395E+01
    0.99999948845383745955E+00
    0.99999972471883091796E+00
    0.10000004245017941606E+01
    0.99999960162501422278E+00
    0.10000010254821547484E+01
    0.10000010458631096721E+01
    0.99999963030509153583E+00
    0.10000003494588403097E+01
    0.99999948441625563511E+00
    0.99999968949271222929E+00
    0.10000003783830813120E+01
    0.99999951076657378479E+00
    0.99999962808863995800E+00
    0.10000003679411679780E+01
    0.99999948938057825476E+00
    0.99999972325965291731E+00
    0.10000004242513531594E+01
    0.99999959888016975995E+00
    0.10000010260067522250E+01
    0.10000010451651837329E+01
    0.99999962955828558542E+00
    0.10000003418853780079E+01
    0.99999942945078756917E+00
    0.99999964211875258524E+00
    0.10000003700875363943E+01
    0.99999950920622893147E+00
    0.99999962793035335196E+00
    0.10000003728009787540E+01
    0.99999949154014944330E+00
    0.99999972668395342712E+00
    0.10000004292763613467E+01
    0.99999960143264221557E+00
    0.10000010223670006138E+01
    0.10000010420988381110E+01
    0.99999955561078968103E+00
    0.10000001981572459453E+01
    0.99999945981220539348E+00
    0.99999954788648282022E+00
    0.99999963946377301571E+00
    0.99999749761911149726E+00
    0.99999970306027796685E+00
    0.99999890193868590238E+00
    0.99999957862733290792E+00
    0.99999784344451836393E+00
    0.99999974511216949136E+00
    0.99999946062749867082E+00
    0.10000006093457922685E+01
    0.10000002739011142339E+01
    0.99999955543529350788E+00
    0.10000001981313701993E+01
    0.99999945982052551585E+00
    0.99999954785421363290E+00
    0.99999963936282565413E+00
    0.99999749773458279645E+00
    0.99999970312825947616E+00
    0.99999890221303511240E+00
    0.99999957865956190517E+00
    0.99999784342861630648E+00
    0.99999974488384801852E+00
    0.99999946061284328280E+00
    0.10000006090076201115E+01
    0.10000002741168658726E+01
    0.99999962702371947287E+00
    0.10000003440866509496E+01
    0.99999948031900753875E+00
    0.99999968202579136989E+00
    0.10000003619385307019E+01
    0.99999948591555298805E+00
    0.99999965049820327412E+00
    0.10000003392116281198E+01
    0.99999944443229749069E+00
    0.99999969376606268057E+00
    0.10000004061665286326E+01
    0.99999959425257434198E+00
    0.10000010118967919137E+01
    0.10000010290812868519E+01
    0.99999962686570953441E+00
    0.10000003434834863203E+01
    0.99999948020930606862E+00
    0.99999968191963750641E+00
    0.10000003614981054501E+01
    0.99999948626732737544E+00
    0.99999965068316054584E+00
    0.10000003406541955187E+01
    0.99999944448802768893E+00
    0.99999969408857414255E+00
    0.10000004057698661519E+01
    0.99999959421907835821E+00
    0.10000010106944345889E+01
    0.10000010292884153884E+01
    0.99999955539575913210E+00
    0.10000001980044099792E+01
    0.99999945982662896693E+00
    0.99999954781704003537E+00
    0.99999963934363145235E+00
    0.99999749788278258222E+00
    0.99999970327053400165E+00
    0.99999890235267074878E+00
    0.99999957871257161290E+00
    0.99999784326732565898E+00
    0.99999974423133974888E+00
    0.99999946059925415298E+00
    0.10000006087724244708E+01
    0.10000002745622078582E+01
    0.99999955536970674963E+00
    0.10000001979619601578E+01
    0.99999945982856364157E+00
    0.99999954778207666983E+00
    0.99999963940926706041E+00
    0.99999749803353643607E+00
    0.99999970344835664715E+00
    0.99999890233871413514E+00
    0.99999957874434997063E+00
    0.99999784302707028782E+00
    0.99999974328331742157E+00
    0.99999946058979238828E+00
    0.10000006086926109816E+01
    0.10000002751472214513E+01
    0.99999962625663219029E+00
    0.10000003428381847304E+01
    0.99999947949355694199E+00
    0.99999968163933472542E+00
    0.10000003612364443129E+01
    0.99999948660860549232E+00
    0.99999965094745757455E+00
    0.10000003417014617924E+01
    0.99999944441354193803E+00
    0.99999969431204771553E+00
    0.10000004046380992495E+01
    0.99999959410456862319E+00
    0.10000010097576426116E+01
    0.10000010298745694026E+01
    0.99999962482466198122E+00
    0.10000003422345660198E+01
    0.99999947854169746186E+00
    0.99999968135087780041E+00
    0.10000003612129342301E+01
    0.99999948687202955266E+00
    0.99999965121203338025E+00
    0.10000003421574856777E+01
    0.99999944422467923477E+00
    0.99999969438018099233E+00
    0.10000004030413545131E+01
    0.99999959381675573855E+00
    0.10000010092747473323E+01
    0.10000010306877493704E+01
    0.99999962940733633232E+00
    0.10000003478214092301E+01
    0.99999947910534481288E+00
    0.99999968608537970205E+00
    0.10000003760675169051E+01
    0.99999951060072300724E+00
    0.99999962587829582805E+00
    0.10000003714182923442E+01
    0.99999948886314027341E+00
    0.99999972549726268145E+00
    0.10000004253460963444E+01
    0.99999960144179111943E+00
    0.10000010225813433795E+01
    0.10000010450566605424E+01
    0.99999960794924536156E+00
    0.10000003311072971357E+01
    0.99999939796481795984E+00
    0.99999966648851768003E+00
    0.10000003649055118071E+01
    0.99999950883116184297E+00
    0.99999962584532964271E+00
    0.10000003739349994092E+01
    0.99999948889593026635E+00
    0.99999972592543118211E+00
    0.10000004221129272786E+01
    0.99999959467503551913E+00
    0.10000010141346968862E+01
    0.10000010417313092148E+01
    0.99999452746936823289E+00
    0.99999404150743542719E+00
    0.99993548387423336621E+00
    0.99998793808189956334E+00
    0.99999934719514294024E+00
    0.99999936987854676218E+00
    0.99999961462257813682E+00
    0.10000003535993651216E+01
    0.99999948885961387202E+00
    0.99999972179787877113E+00
    0.10000003499012870556E+01
    0.99999924291208386329E+00
    0.10000004817852621297E+01
    0.10000008493361045581E+01
    0.99959394082327956976E+00
    0.99991577643538087639E+00
    0.99957900886930672879E+00
    0.99993390278103810864E+00
    0.99999182324742119654E+00
    0.99999788046201443237E+00
    0.99999930728558095172E+00
    0.99999995366057181645E+00
    0.99999939135150828218E+00
    0.99999940254064723089E+00
    0.99999644582122948488E+00
    0.99996363334849480697E+00
    0.99999239566256081790E+00
    0.99999806730134288557E+00
    0.99999929030619250092E+00
    0.10000002518469262025E+01
    0.99999888491547539449E+00
    0.99999952078254983334E+00
    0.10000003642319903463E+01
    0.99999950052989849958E+00
    0.99999962396849506607E+00
    0.10000003708151823378E+01
    0.99999948729886134480E+00
    0.99999972270084402926E+00
    0.10000003979630214257E+01
    0.99999953421226916994E+00
    0.10000009790365924633E+01
    0.10000010251634372516E+01
    0.99999823827892464490E+00
    0.99999992032894757799E+00
    0.99999809945557904811E+00
    0.99999929238273654875E+00
    0.10000003244048500939E+01
    0.99999949207995564304E+00
    0.99999962141179421504E+00
    0.10000003617489503505E+01
    0.99999948304402597188E+00
    0.99999971230923667687E+00
    0.10000003791510039264E+01
    0.99999933524609074809E+00
    0.10000008985881541079E+01
    0.10000009866811714332E+01
    0.99938038616485935783E+00
    0.99983639101759158585E+00
    0.99939295718565424043E+00
    0.99985225532633781320E+00
    0.99996940520734156621E+00
    0.99999186602464962270E+00
    0.99999768025553448236E+00
    0.99999678717380358073E+00
    0.99999845994330727184E+00
    0.99999740313643148415E+00
    0.99998524702364222083E+00
    0.99992283821852279146E+00
    0.99997313216135230718E+00
    0.99998616794876427072E+00
    0.99902238965395462333E+00
    0.99968129278030659624E+00
    0.99911185539816993462E+00
    0.99975605330276684501E+00
    0.99994031706887465116E+00
    0.99998567711399954927E+00
    0.99999543800300871865E+00
    0.99999026142318514498E+00
    0.99999572238818834613E+00
    0.99999046072155428622E+00
    0.99995228767155264205E+00
    0.99982142730239109696E+00
    0.99993070082613833005E+00
    0.99996259763003236820E+00
    0.99999782397504555220E+00
    0.99999958967427493572E+00
    0.99999938555321266076E+00
    0.99999966387220839970E+00
    0.10000002650997801279E+01
    0.99999948613495370786E+00
    0.99999947697552848958E+00
    0.99999962332898173489E+00
    0.99999765477265178948E+00
    0.99999966391757244555E+00
    0.99999899254643564994E+00
    0.99999972024656624825E+00
    0.10000001159088505176E+01
    0.10000005287340951732E+01
    0.99999961095561629154E+00
    0.10000003372009036440E+01
    0.99999947663532773312E+00
    0.99999968469446953723E+00
    0.10000003722960395525E+01
    0.99999950613204069416E+00
    0.99999961993329833376E+00
    0.10000003497717955270E+01
    0.99999946693671426523E+00
    0.99999972954612803555E+00
    0.10000003930526104590E+01
    0.99999956810472268032E+00
    0.10000010184121881363E+01
    0.10000010407387065481E+01
    0.99999782409037574205E+00
    0.99999958957330381537E+00
    0.99999938552125067215E+00
    0.99999966388046179766E+00
    0.10000002650739137078E+01
    0.99999948595914089911E+00
    0.99999947696016644461E+00
    0.99999962310070444893E+00
    0.99999765475601576359E+00
    0.99999966394974015849E+00
    0.99999899282075932483E+00
    0.99999972031460537814E+00
    0.10000001161247675796E+01
    0.10000005283963462333E+01
    0.99999961130741488180E+00
    0.10000003367607892546E+01
    0.99999947652974130463E+00
    0.99999968458457966225E+00
    0.10000003716923833164E+01
    0.99999950597333520097E+00
    0.99999961989889218916E+00
    0.10000003493752047667E+01
    0.99999946725896027289E+00
    0.99999972960189908999E+00
    0.10000003944953306245E+01
    0.99999956828969460698E+00
    0.10000010186192269668E+01
    0.10000010395357252779E+01
    0.99999963073890552057E+00
    0.10000003475651193519E+01
    0.99999948129038385147E+00
    0.99999968341815603790E+00
    0.10000003761904672217E+01
    0.99999950905344514585E+00
    0.99999962789451102285E+00
    0.10000003687819780662E+01
    0.99999949015993339074E+00
    0.99999972366605971441E+00
    0.10000004276553240423E+01
    0.99999959899137191854E+00
    0.10000010251975015585E+01
    0.10000010422614824535E+01
    0.99999950469904275163E+00
    0.99999933279701880284E+00
    0.99998768070585963841E+00
    0.99993567965210627957E+00
    0.99999404974278760516E+00
    0.99999438295246945163E+00
    0.99999926941215588894E+00
    0.10000002943318229143E+01
    0.99999948668974480981E+00
    0.99999972400928116567E+00
    0.10000004098338743930E+01
    0.99999958086981599603E+00
    0.10000008265956936704E+01
    0.10000004960497803630E+01
    0.99999962901305461394E+00
    0.10000003364881004941E+01
    0.99999943796652290828E+00
    0.99999961577289064873E+00
    0.10000003666643344502E+01
    0.99999947097136265839E+00
    0.99999962437741429788E+00
    0.10000003656656741846E+01
    0.99999949058588077921E+00
    0.99999972369892031754E+00
    0.10000004301902185588E+01
    0.99999959895961754164E+00
    0.10000010216480086367E+01
    0.10000010336814546541E+01
    0.99999803261680197952E+00
    0.99999182376216777524E+00
    0.99993362435147825629E+00
    0.99957918253168676070E+00
    0.99991576197825482453E+00
    0.99959378844111002049E+00
    0.99996362533594951305E+00
    0.99999637235564353688E+00
    0.99999920581015666610E+00
    0.99999962955588583835E+00
    0.10000000130026180933E+01
    0.99999929389589059525E+00
    0.99999804744816811475E+00
    0.99999239573179166118E+00
    0.99999782423874461479E+00
    0.99999958955429235630E+00
    0.99999938548421185569E+00
    0.99999966388624961233E+00
    0.10000002649469952321E+01
    0.99999948591973375489E+00
    0.99999947694664015341E+00
    0.99999962244814322165E+00
    0.99999765459468648032E+00
    0.99999966400272566336E+00
    0.99999899296032379592E+00
    0.99999972045671292609E+00
    0.10000001165701739581E+01
    0.10000005281610053753E+01
    0.99999961164877670949E+00
    0.10000003364991192356E+01
    0.99999947624846130534E+00
    0.99999968387017801330E+00
    0.10000003710474674179E+01
    0.99999950536510406884E+00
    0.99999961978447005073E+00
    0.10000003482434194346E+01
    0.99999946748245394090E+00
    0.99999972952735649567E+00
    0.10000003955426670643E+01
    0.99999956855393623556E+00
    0.10000010192054766822E+01
    0.10000010385993440831E+01
    0.99999782439025974856E+00
    0.99999958962025459197E+00
    0.99999938545190858452E+00
    0.99999966388834859998E+00
    0.10000002649049231085E+01
    0.99999948589384168862E+00
    0.99999947693727408993E+00
    0.99999962150017207563E+00
    0.99999765435459198049E+00
    0.99999966403455431418E+00
    0.99999899294645877568E+00
    0.99999972063444542147E+00
    0.10000001171547925338E+01
    0.10000005280810906338E+01
    0.99999961191513087044E+00
    0.10000003364763216940E+01
    0.99999947596178750953E+00
    0.99999968292022234362E+00
    0.10000003704439763830E+01
    0.99999950393802816695E+00
    0.99999961949650695292E+00
    0.10000003466471831803E+01
    0.99999946755056356995E+00
    0.99999972933884784254E+00
    0.10000003959989995916E+01
    0.99999956881872864578E+00
    0.10000010200184759057E+01
    0.10000010381164556872E+01
    0.99999962089356064787E+00
    0.10000003374675023871E+01
    0.99999927258333687341E+00
    0.99999908453027397393E+00
    0.10000002640330465375E+01
    0.99999914418203106337E+00
    0.99999956366350450931E+00
    0.10000003485423540894E+01
    0.99999948753352574382E+00
    0.99999972211686372070E+00
    0.10000004271107731935E+01
    0.99999959710022978676E+00
    0.10000010009038213799E+01
    0.10000009936308724701E+01
    0.99999202702972711521E+00
    0.99996941139483375149E+00
    0.99985196890819894033E+00
    0.99939312377131872545E+00
    0.99983637850833739780E+00
    0.99938024131608571565E+00
    0.99992280938097677367E+00
    0.99998516262100267671E+00
    0.99999725411205786507E+00
    0.99999871697321618402E+00
    0.99999684974615987709E+00
    0.99999767359776337017E+00