# vtk DataFile Version 3.0
LAPLACIEN  2D
ASCII
DATASET UNSTRUCTURED_GRID
 POINTS        1857  float
   3.1250000000000000E-002  0.93750000000000000        0.0000000000000000     
   6.2500000000000000E-002  0.93750000000000000        0.0000000000000000     
   6.2500000000000000E-002  0.96875000000000000        0.0000000000000000     
   1.8749999999999999E-002  0.95625000000000004        0.0000000000000000     
   4.0625000000000001E-002  0.95937499999999998        0.0000000000000000     
   4.3749999999999997E-002  0.98124999999999996        0.0000000000000000     
   2.1874999999999999E-002  0.97812500000000002        0.0000000000000000     
   9.3750000000000000E-002  0.93750000000000000        0.0000000000000000     
  0.12500000000000000       0.93750000000000000        0.0000000000000000     
  0.12500000000000000       0.96875000000000000        0.0000000000000000     
   8.1250000000000003E-002  0.95625000000000004        0.0000000000000000     
  0.10312499999999999       0.95937499999999998        0.0000000000000000     
  0.10625000000000000       0.98124999999999996        0.0000000000000000     
   8.4375000000000006E-002  0.97812500000000002        0.0000000000000000     
   3.1250000000000000E-002  0.87500000000000000        0.0000000000000000     
   6.2500000000000000E-002  0.87500000000000000        0.0000000000000000     
   6.2500000000000000E-002  0.90625000000000000        0.0000000000000000     
   1.8749999999999999E-002  0.89375000000000004        0.0000000000000000     
   4.0625000000000001E-002  0.89687499999999998        0.0000000000000000     
   4.3749999999999997E-002  0.91874999999999996        0.0000000000000000     
   2.1874999999999999E-002  0.91562500000000002        0.0000000000000000     
   9.3750000000000000E-002  0.87500000000000000        0.0000000000000000     
  0.12500000000000000       0.87500000000000000        0.0000000000000000     
  0.12500000000000000       0.90625000000000000        0.0000000000000000     
   8.1250000000000003E-002  0.89375000000000004        0.0000000000000000     
  0.10312499999999999       0.89687499999999998        0.0000000000000000     
  0.10625000000000000       0.91874999999999996        0.0000000000000000     
   8.4375000000000006E-002  0.91562500000000002        0.0000000000000000     
  0.15625000000000000       0.93750000000000000        0.0000000000000000     
  0.18750000000000000       0.93750000000000000        0.0000000000000000     
  0.18750000000000000       0.96875000000000000        0.0000000000000000     
  0.14374999999999999       0.95625000000000004        0.0000000000000000     
  0.16562499999999999       0.95937499999999998        0.0000000000000000     
  0.16875000000000001       0.98124999999999996        0.0000000000000000     
  0.14687500000000001       0.97812500000000002        0.0000000000000000     
  0.21875000000000000       0.93750000000000000        0.0000000000000000     
  0.25000000000000000       0.93750000000000000        0.0000000000000000     
  0.25000000000000000       0.96875000000000000        0.0000000000000000     
  0.20624999999999999       0.95625000000000004        0.0000000000000000     
  0.22812499999999999       0.95937499999999998        0.0000000000000000     
  0.23125000000000001       0.98124999999999996        0.0000000000000000     
  0.20937500000000001       0.97812500000000002        0.0000000000000000     
  0.15625000000000000       0.87500000000000000        0.0000000000000000     
  0.18750000000000000       0.87500000000000000        0.0000000000000000     
  0.18750000000000000       0.90625000000000000        0.0000000000000000     
  0.14374999999999999       0.89375000000000004        0.0000000000000000     
  0.16562499999999999       0.89687499999999998        0.0000000000000000     
  0.16875000000000001       0.91874999999999996        0.0000000000000000     
  0.14687500000000001       0.91562500000000002        0.0000000000000000     
  0.21875000000000000       0.87500000000000000        0.0000000000000000     
  0.25000000000000000       0.87500000000000000        0.0000000000000000     
  0.25000000000000000       0.90625000000000000        0.0000000000000000     
  0.20624999999999999       0.89375000000000004        0.0000000000000000     
  0.22812499999999999       0.89687499999999998        0.0000000000000000     
  0.23125000000000001       0.91874999999999996        0.0000000000000000     
  0.20937500000000001       0.91562500000000002        0.0000000000000000     
   3.1250000000000000E-002  0.81250000000000000        0.0000000000000000     
   6.2500000000000000E-002  0.81250000000000000        0.0000000000000000     
   6.2500000000000000E-002  0.84375000000000000        0.0000000000000000     
   1.8749999999999999E-002  0.83125000000000004        0.0000000000000000     
   4.0625000000000001E-002  0.83437499999999998        0.0000000000000000     
   4.3749999999999997E-002  0.85624999999999996        0.0000000000000000     
   2.1874999999999999E-002  0.85312500000000002        0.0000000000000000     
   9.3750000000000000E-002  0.81250000000000000        0.0000000000000000     
  0.12500000000000000       0.81250000000000000        0.0000000000000000     
  0.12500000000000000       0.84375000000000000        0.0000000000000000     
   8.1250000000000003E-002  0.83125000000000004        0.0000000000000000     
  0.10312499999999999       0.83437499999999998        0.0000000000000000     
  0.10625000000000000       0.85624999999999996        0.0000000000000000     
   8.4375000000000006E-002  0.85312500000000002        0.0000000000000000     
   3.1250000000000000E-002  0.75000000000000000        0.0000000000000000     
   6.2500000000000000E-002  0.75000000000000000        0.0000000000000000     
   6.2500000000000000E-002  0.78125000000000000        0.0000000000000000     
   1.8749999999999999E-002  0.76875000000000004        0.0000000000000000     
   4.0625000000000001E-002  0.77187499999999998        0.0000000000000000     
   4.3749999999999997E-002  0.79374999999999996        0.0000000000000000     
   2.1874999999999999E-002  0.79062500000000002        0.0000000000000000     
   9.3750000000000000E-002  0.75000000000000000        0.0000000000000000     
  0.12500000000000000       0.75000000000000000        0.0000000000000000     
  0.12500000000000000       0.78125000000000000        0.0000000000000000     
   8.1250000000000003E-002  0.76875000000000004        0.0000000000000000     
  0.10312499999999999       0.77187499999999998        0.0000000000000000     
  0.10625000000000000       0.79374999999999996        0.0000000000000000     
   8.4375000000000006E-002  0.79062500000000002        0.0000000000000000     
  0.15625000000000000       0.81250000000000000        0.0000000000000000     
  0.18750000000000000       0.81250000000000000        0.0000000000000000     
  0.18750000000000000       0.84375000000000000        0.0000000000000000     
  0.14374999999999999       0.83125000000000004        0.0000000000000000     
  0.16562499999999999       0.83437499999999998        0.0000000000000000     
  0.16875000000000001       0.85624999999999996        0.0000000000000000     
  0.14687500000000001       0.85312500000000002        0.0000000000000000     
  0.21875000000000000       0.81250000000000000        0.0000000000000000     
  0.25000000000000000       0.81250000000000000        0.0000000000000000     
  0.25000000000000000       0.84375000000000000        0.0000000000000000     
  0.20624999999999999       0.83125000000000004        0.0000000000000000     
  0.22812499999999999       0.83437499999999998        0.0000000000000000     
  0.23125000000000001       0.85624999999999996        0.0000000000000000     
  0.20937500000000001       0.85312500000000002        0.0000000000000000     
  0.15625000000000000       0.75000000000000000        0.0000000000000000     
  0.18750000000000000       0.75000000000000000        0.0000000000000000     
  0.18750000000000000       0.78125000000000000        0.0000000000000000     
  0.14374999999999999       0.76875000000000004        0.0000000000000000     
  0.16562499999999999       0.77187499999999998        0.0000000000000000     
  0.16875000000000001       0.79374999999999996        0.0000000000000000     
  0.14687500000000001       0.79062500000000002        0.0000000000000000     
  0.21875000000000000       0.75000000000000000        0.0000000000000000     
  0.25000000000000000       0.75000000000000000        0.0000000000000000     
  0.25000000000000000       0.78125000000000000        0.0000000000000000     
  0.20624999999999999       0.76875000000000004        0.0000000000000000     
  0.22812499999999999       0.77187499999999998        0.0000000000000000     
  0.23125000000000001       0.79374999999999996        0.0000000000000000     
  0.20937500000000001       0.79062500000000002        0.0000000000000000     
  0.28125000000000000       0.93750000000000000        0.0000000000000000     
  0.31250000000000000       0.93750000000000000        0.0000000000000000     
  0.31250000000000000       0.96875000000000000        0.0000000000000000     
  0.26874999999999999       0.95625000000000004        0.0000000000000000     
  0.29062500000000002       0.95937499999999998        0.0000000000000000     
  0.29375000000000001       0.98124999999999996        0.0000000000000000     
  0.27187499999999998       0.97812500000000002        0.0000000000000000     
  0.34375000000000000       0.93750000000000000        0.0000000000000000     
  0.37500000000000000       0.93750000000000000        0.0000000000000000     
  0.37500000000000000       0.96875000000000000        0.0000000000000000     
  0.33124999999999999       0.95625000000000004        0.0000000000000000     
  0.35312500000000002       0.95937499999999998        0.0000000000000000     
  0.35625000000000001       0.98124999999999996        0.0000000000000000     
[...]
 CELL_DATA        3584
 SCALARS Cells_density float
 LOOKUP_TABLE default
    0.99999551981850010041E+00
    0.99999804122273283635E+00
    0.99999804077466714070E+00
    0.99999816365958849040E+00
    0.99999804474712983282E+00
    0.99999527152496880955E+00
    0.99999821594620452725E+00
    0.99999718766951761761E+00
    0.99999849992846912006E+00
    0.99999879828757798350E+00
    0.99999746399311317813E+00
    0.99999833031390450433E+00
    0.10000005119453703184E+01
    0.10000004746264081756E+01
    0.99999857570386763150E+00
    0.99999992706680751464E+00
    0.99999859456555617587E+00
    0.99999846019101090722E+00
    0.99999838964668485985E+00
    0.99999530965806193716E+00
    0.99999845521395314130E+00
    0.99999744916688049212E+00
    0.99999821079711925798E+00
    0.99999571951811894177E+00
    0.99999853597342058809E+00
    0.99999815390658319814E+00
    0.10000018126024479148E+01
    0.10000011270838495836E+01
    0.99999568410653161266E+00
    0.99999836629743887872E+00
    0.99999829624955693941E+00
    0.99999881739004270464E+00
    0.10000000222815477180E+01
    0.99999871128287798339E+00
    0.99999832437741698055E+00
    0.99999843447942571295E+00
    0.99999543366623633300E+00
    0.99999832918273268145E+00
    0.99999760155958472563E+00
    0.99999853751798706281E+00
    0.10000010999972535064E+01
    0.10000018086424784514E+01
    0.99999879865910457077E+00
    0.99999996431039717137E+00
    0.99999867507731532434E+00
    0.99999891757848891061E+00
    0.10000000025835569240E+01
    0.99999865834102585893E+00
    0.99999881120861999761E+00
    0.99999994063448416348E+00
    0.99999857370394751310E+00
    0.99999904254094373890E+00
    0.10000001339646256149E+01
    0.99999873831045127393E+00
    0.10000027200389913773E+01
    0.10000027287761883432E+01
    0.99999868283438375638E+00
    0.10000001068135608850E+01
    0.99999865442342261712E+00
    0.99999851012642204662E+00
    0.99999854344726502031E+00
    0.99999535635007708034E+00
    0.99999851958055241408E+00
    0.99999762895676835850E+00
    0.99999830889993512884E+00
    0.99999573350821380213E+00
    0.99999875596534359978E+00
    0.99999835580853912997E+00
    0.10000022724540094110E+01
    0.10000015754831454995E+01
    0.99999872534251776912E+00
    0.10000001159521247907E+01
    0.99999865400300436136E+00
    0.99999850943361945355E+00
    0.99999854521604492064E+00
    0.99999535795182437070E+00
    0.99999852241177455969E+00
    0.99999763762278026658E+00
    0.99999832116053599673E+00
    0.99999575746994695535E+00
    0.99999877477454868213E+00
    0.99999838626143289222E+00
    0.10000022779467914180E+01
    0.10000015795874552804E+01
    0.99999885082756490018E+00
    0.10000000089625633581E+01
    0.99999869503817562233E+00
    0.99999892075850760342E+00
    0.10000000337961838515E+01
    0.99999871320545341558E+00
    0.99999885822353828946E+00
    0.99999999677143203147E+00
    0.99999866883019428165E+00
    0.99999895603429045376E+00
    0.10000001004274179373E+01
    0.99999882092771819053E+00
    0.10000027608730504003E+01
    0.10000027727865008487E+01
    0.99999879962427762337E+00
    0.10000000008971079435E+01
    0.99999853964327456435E+00
    0.99999884658747839605E+00
    0.10000000282836791765E+01
    0.99999868483151199694E+00
    0.99999885409362943012E+00
    0.10000000183077715210E+01
    0.99999874485525030998E+00
    0.99999903689596991718E+00
    0.10000001150319739462E+01
    0.99999880140043251320E+00
    0.10000027336162813363E+01
    0.10000027513018783232E+01
    0.99999570331948106627E+00
    0.99999839310789617741E+00
    0.99999831893212265399E+00
    0.99999884969478469721E+00
    0.10000000720620445538E+01
    0.99999878133156772098E+00
    0.99999838384703942928E+00
    0.99999850882683682940E+00
    0.99999554587475070200E+00
    0.99999840849969823253E+00
    0.99999765190875000709E+00
    0.99999856593769920199E+00
    0.10000011409841840226E+01
    0.10000018574439069052E+01
    0.99999882069720213984E+00
    0.99999999798876837431E+00
    0.99999868753744425298E+00
    0.99999892800527279135E+00
    0.10000000548452583349E+01
    0.99999871404731865976E+00
    0.99999879972102534431E+00
    0.10000000246919116265E+01
    0.99999871739639578649E+00
    0.99999908938533321745E+00
    0.10000001296182783328E+01
    0.99999876974698675980E+00
    0.10000027881049884382E+01
    0.10000028064381596415E+01
    0.99999570476063681657E+00
    0.99999840123399474923E+00
    0.99999831794381144334E+00
    0.99999884827353402450E+00
    0.10000000824635526531E+01
    0.99999879048125928094E+00
    0.99999840005449602831E+00
    0.99999853006881356254E+00
    0.99999556062144623336E+00
    0.99999841798769850687E+00
    0.99999766639492648768E+00
    0.99999856842912482335E+00
    0.10000012419562749333E+01
    0.10000019590248749868E+01
    0.99999879847428452262E+00
    0.99999998148576219048E+00
    0.99999854689426481702E+00
    0.99999879017054660313E+00
    0.10000000513709319527E+01
    0.99999865431894952028E+00
    0.99999880434322174771E+00
    0.10000000278463103687E+01
    0.99999873124267379954E+00
    0.99999909812858345237E+00
    0.10000001325904472882E+01
    0.99999876297345469123E+00
    0.10000027630330610151E+01
    0.10000027781153115747E+01
    0.99999880412473107771E+00
    0.10000000131924053903E+01
    0.99999839514331423374E+00
    0.99999866638436740729E+00
    0.10000000461954725584E+01
    0.99999865624577788381E+00
    0.99999881789909672580E+00
    0.10000000483873339174E+01
    0.99999873159956431667E+00
    0.99999897715396013353E+00
    0.10000001356874803626E+01
    0.99999881155894154716E+00
    0.10000027546434351322E+01
    0.10000027718964816792E+01
    0.99999636961392968093E+00
    0.99999703372329129536E+00
    0.99999047678639929604E+00
    0.99999183654645429353E+00
    0.99999759043076685838E+00
    0.99999719408741860605E+00
    0.99999836773348527164E+00
    0.99999980750873085356E+00
    0.99999862494180635775E+00
    0.99999884392235294239E+00
    0.99999991704251323110E+00
    0.99999821624635487627E+00
    0.10000017600522959071E+01
    0.10000018475625207515E+01
    0.99999738663962167706E+00
    0.99999758425022056141E+00
    0.99999148987135022537E+00
    0.99999066993514573731E+00
    0.99999700919944567445E+00
    0.99999618235550524759E+00
    0.99999815900970201454E+00
    0.99999980696017187753E+00
    0.99999862362756453127E+00
    0.99999885015102274455E+00
    0.99999990421190798617E+00
    0.99999840978180454254E+00
    0.10000018294123149687E+01
    0.10000017460106938039E+01
    0.99995380539827061206E+00
    0.99993448945923479876E+00
    0.99982672976073017068E+00
    0.99982700271602475972E+00
    0.99993445288414140038E+00
    0.99995355547070441382E+00
    0.99998371360440929667E+00
    0.99998732888674946029E+00
    0.99999459968420190137E+00
    0.99999479419831127647E+00
    0.99998746199039856286E+00
    0.99998378757302119890E+00
    0.99997394661372951408E+00
    0.99997393929123357115E+00
    0.99999870767272491801E+00
    0.10000001006502010625E+01
    0.99999859279586156280E+00
    0.99999848466951168913E+00
    0.99999853782384073853E+00
    0.99999535502417657984E+00
    0.99999852123716737040E+00
    0.99999763890238202446E+00
    0.99999832149814138482E+00
    0.99999575871958212847E+00
    0.99999877483989396687E+00
    0.99999838282586694937E+00
    0.10000022709064413373E+01
    0.10000015760979843460E+01
    0.99999860682140451207E+00
    0.99999986222452408313E+00
    0.99999841414101786619E+00
    0.99999842415592787859E+00
    0.99999850691560543403E+00
    0.99999534450278571018E+00
    0.99999851643237536170E+00
    0.99999763312646683389E+00
    0.99999831876359746019E+00
    0.99999575482982883123E+00
    0.99999875211439381850E+00
    0.99999834846324364701E+00
    0.10000020569857683839E+01
    0.10000015096479966115E+01
    0.99999790052661008399E+00
    0.99999927352402040448E+00
    0.99999653855906467381E+00
    0.99999757230332386726E+00
    0.99999963518805912166E+00
    0.99999846694680893933E+00
    0.99999876063388526415E+00
    0.99999999623866187015E+00
    0.99999866939604509231E+00
    0.99999895006286876331E+00
    0.10000000972584244252E+01
    0.99999860446950272763E+00
    0.10000025211117993251E+01
    0.10000025762327453549E+01
    0.99999191548545818264E+00
    0.99999485091580575524E+00
    0.99998674546377341876E+00
    0.99999173085739490041E+00
    0.99999753306515171136E+00
    0.99999759000013110910E+00
    0.99999841469649408676E+00
    0.99999965179550409644E+00
    0.99999845273774146115E+00
    0.99999862284439622329E+00
    0.99999930848752727197E+00
    0.99999672644554193912E+00
    0.10000010086316051261E+01
    0.10000014542462596356E+01
    0.99999833416288297361E+00
    0.99999971935157749847E+00
    0.99999814173166656772E+00
    0.99999830144459322945E+00
    0.99999844921473790560E+00
    0.99999532480925679145E+00
    0.99999850554279001713E+00
    0.99999760535758597246E+00
    0.99999830938827338755E+00
    0.99999573980539702145E+00
    0.99999867834250655285E+00
    0.99999826419269444155E+00
    0.10000018485121560108E+01
    0.10000013630521669139E+01
    0.99999794675140207811E+00
    0.99999956250091859289E+00
    0.99999788003134915115E+00
    0.99999818696214537450E+00
    0.99999841241400655445E+00
    0.99999531289458065686E+00
    0.99999849290826858805E+00
    0.99999758879279776469E+00
    0.99999829286497687875E+00
    0.99999571718663649023E+00
    0.99999861071733475715E+00
    0.99999812150397993094E+00
    0.10000017133976593087E+01
    0.10000012894424983312E+01
    0.99997204105550163700E+00
    0.99998246280631297722E+00
    0.99996446270988326166E+00
    0.99997991074941017242E+00
    0.99999299894775062203E+00
    0.99999593477045634060E+00
    0.99999772970823219698E+00
    0.99999846224086208490E+00
    0.99999786897589437729E+00
    0.99999759085062578379E+00
    0.99999599921886195286E+00
    0.99998946347877604168E+00
    0.99999645131183978464E+00
    0.99999823796084963412E+00
    0.99994251711317949649E+00
    0.99996801620374842212E+00
    0.99994511676405517520E+00
    0.99997151856857335872E+00
    0.99998942144133629029E+00
    0.99999489272891395331E+00
    0.99999716537833149843E+00
    0.99999710896903681867E+00
    0.99999704621351903633E+00
    0.99999591137388699202E+00
    0.99999086542548709655E+00
    0.99997705769518241414E+00
    0.99999092785081100665E+00
    0.99999468825041182285E+00
    0.99996293348296139136E+00
    0.99996295222079256693E+00
    0.99991162932931720864E+00
    0.99993243385341401552E+00
    0.99997488496217912246E+00
    0.99998538874116582598E+00
    0.99999423847577884050E+00
    0.99999506815751548761E+00
    0.99999695038851066364E+00
    0.99999669967448556740E+00
    0.99999285814201865907E+00
    0.99998710193404505286E+00
    0.99998815252699757572E+00
    0.99999008581099901871E+00
    0.99973403226656409881E+00
    0.99977195874059288094E+00
    0.99952658725892429281E+00
    0.99967526652048188662E+00
    0.99987147805441400905E+00
    0.99993728524978919836E+00
    0.99997526879427445223E+00
    0.99996884661270901695E+00
    0.99998608097943664230E+00
    0.99998118871118379936E+00
    0.99994424930685010811E+00
    0.99990307249532850431E+00
    0.99990980153327102542E+00
    0.99992667934364343196E+00
    0.99896524742395231833E+00
    0.99880356385384028162E+00
    0.99643278562721271374E+00
    0.99774271650435786274E+00
    0.99921675516264518713E+00
    0.99957000674776419480E+00
    0.99984174657059343705E+00
    0.99983603810913102006E+00
    0.99993943830487153068E+00
    0.99993124375175101992E+00
    0.99978853878626805507E+00
    0.99969430747322873820E+00
    0.99956676862181514931E+00
    0.99962133444491207968E+00
    0.98789495757308087853E+00
    0.99202482379273515534E+00
    0.98285230067281947886E+00
    0.98989837601405150647E+00
    0.99601639204239345027E+00
    0.99795859011543308625E+00
    0.99915920029545024494E+00
    0.99895923198751146455E+00
    0.99955928175875030650E+00
    0.99942004322404465189E+00
    0.99819129847607723782E+00
    0.99650773013642846010E+00
    0.99701851000060570662E+00
    0.99760916394380272365E+00
    0.99895473622416541826E+00
    0.99923628097197458864E+00
    0.99861654680150457875E+00
    0.99913894760599397671E+00
    0.99964297891750553138E+00
    0.99984284925987398918E+00
    0.99993277457149143395E+00
    0.99989798361002379945E+00
    0.99995077238375773554E+00
    0.99992479266312550568E+00
    0.99977875832852791671E+00
    0.99958514795010466880E+00
    0.99968555975972139827E+00
    0.99975748389559548901E+00
    0.99775221261388646887E+00
    0.99859255279765912761E+00
    0.99780005974736574181E+00
    0.99874890108164249281E+00
    0.99945708692933210582E+00
    0.99978078043796991814E+00
    0.99989643145663309465E+00
    0.99981705613491089757E+00
    0.99989823180404280301E+00
    0.99982839997987182912E+00
    0.99951891604697384874E+00
    0.99902083870139224420E+00
    0.99940834180648530083E+00
    0.99956785984059337569E+00
    0.96839542140726531105E+00
    0.97818481913998622801E+00
    0.96180261473992290089E+00
    0.97567918209559301168E+00
    0.98919608374428491526E+00
    0.99472490913222144648E+00
    0.99757097789668236487E+00
    0.99654258427505515439E+00
    0.99827762743732129103E+00
    0.99754223359714377928E+00
    0.99326707529227020732E+00
    0.98766373794486517212E+00
    0.99048241512621293392E+00
    0.99240900322607905615E+00
    0.94203799164222978835E+00
    0.96199485738567691584E+00
    0.94328101336030822921E+00
    0.96530667887077414857E+00
    0.98349613434168037251E+00
    0.99253937319194862621E+00
    0.99616549954228739150E+00
    0.99368891906164602545E+00
    0.99629645561455404401E+00
    0.99422586443959815039E+00
    0.98550624049173340957E+00
    0.97279950614041510448E+00
    0.98230118819035483479E+00
    0.98644557512158148604E+00
    0.99999570157977313301E+00
    0.99999838659225837034E+00
    0.99999829391138261858E+00
    0.99999880673989549607E+00
    0.10000000593133089311E+01
    0.99999874920402609391E+00
    0.99999839523754929793E+00
    0.99999852279465906157E+00
    0.99999556146728396655E+00
    0.99999841798502420165E+00
    0.99999766044465732140E+00
    0.99999856697327937916E+00
    0.10000011399717072536E+01
    0.10000018534254364599E+01
    0.99999862087324553617E+00
    0.99999962161822197881E+00
    0.99999724022677149993E+00
    0.99999674135577365508E+00
    0.99999925475513906648E+00
    0.99999772506119199988E+00
    0.99999856369774564602E+00
    0.10000000032232063685E+01
    0.99999869308567834736E+00
    0.99999904402527373115E+00
    0.10000001070651369783E+01
    0.99999868016603166154E+00
    0.10000025726849453012E+01
    0.10000025354881969530E+01
    0.99999569129836707315E+00
    0.99999835741412945733E+00
    0.99999818343203938920E+00
    0.99999866803738968191E+00
    0.99999985605357799567E+00
    0.99999856531576314378E+00
    0.99999835581378726523E+00
    0.99999850580592164473E+00
    0.99999555770561066037E+00
    0.99999841527627464366E+00
    0.99999765691747666274E+00
    0.99999856221089289399E+00
    0.10000011228369212191E+01
    0.10000016996901941457E+01
    0.99999777814771251272E+00
    0.99999752922369500308E+00
    0.99999138222004835264E+00
    0.99998693116943637715E+00
    0.99999484282105632893E+00
    0.99999176492749475287E+00
    0.99999664260607346034E+00
    0.99999918991601610685E+00
    0.99999847584628809294E+00
    0.99999882765355507797E+00
    0.99999977110204529840E+00
    0.99999840403181516901E+00
    0.10000014473110563351E+01
    0.10000010033001713872E+01
    0.99998561724597279099E+00
    0.99997488710145743251E+00
    0.99993206316976113168E+00
    0.99991179639545135771E+00
    0.99996290211316196661E+00
    0.99996275938910494929E+00
    0.99998699281329650468E+00
    0.99999272112463144513E+00
    0.99999658769726051943E+00
    0.99999723805418427869E+00
    0.99999517346620436786E+00
    0.99999428706363757691E+00
    0.99999006393328404574E+00
    0.99998812031927020172E+00
    0.99957027593481462269E+00
    0.99921676961213290458E+00
    0.99774233024228531352E+00
    0.99643294431972140313E+00
    0.99880348499630944303E+00
    0.99896501408339766215E+00
    0.99969419848715346255E+00
    0.99978840502237109611E+00
    0.99993119181846179533E+00
    0.99993975392129752500E+00
    0.99983615606129427889E+00
    0.99984179388670124666E+00
    0.99962131233092310634E+00
    0.99956672623539111200E+00
    0.99993753185914846515E+00
    0.99987148481168197645E+00
    0.99967488625915745803E+00
    0.99952674954447651157E+00
    0.99977192777439427562E+00
    0.99973388293978115993E+00
    0.99990294502352383699E+00
    0.99994411155538043268E+00
    0.99998112047967779858E+00
    0.99998639722091031690E+00
    0.99996896168694704432E+00
    0.99997531666645012027E+00
    0.99992665873996278147E+00
    0.99990976970675171653E+00
    0.99795886978332803974E+00
    0.99601640971900251564E+00
    0.98989798570611031714E+00
    0.98285244728705611905E+00
    0.99202478292490570144E+00
    0.98789480814272434550E+00
    0.99650758585678533841E+00
    0.99819116588983369809E+00
    0.99942001955027115478E+00
    0.99955962380526464095E+00
    0.99895935989922879372E+00
    0.99915924791066623722E+00
    0.99760914672794132052E+00
    0.99701847587336500656E+00
    0.99999567236519149027E+00
    0.99999830745078899241E+00
    0.99999801677259048116E+00
    0.99999836383367812775E+00
    0.99999968076247669480E+00
    0.99999826356963683605E+00
    0.99999825470715575371E+00
    0.99999844731143383569E+00
    0.99999554373925969575E+00
    0.99999840694923880502E+00
    0.99999764121078671408E+00
    0.99999855241172874720E+00
    0.10000010641189112093E+01
    0.10000015728125843939E+01
    0.99999613107307261384E+00
    0.99999299711646882916E+00
    0.99997955595912746407E+00
    0.99996464248699989952E+00
    0.99998245197461532729E+00
    0.99997189589234658502E+00
    0.99998936190404985602E+00
    0.99999587933118927463E+00
    0.99999750765366712812E+00
    0.99999825652843077339E+00
    0.99999859025533166523E+00
    0.99999774251582418394E+00
    0.99999822924648240630E+00
    0.99999643933857107481E+00
    0.99999566125169536690E+00
    0.99999828252914513271E+00
    0.99999791975961982438E+00
    0.99999809265060490837E+00
    0.99999952793996449429E+00
    0.99999786818208935557E+00
    0.99999810160381874535E+00
    0.99999838978871358197E+00
    0.99999552244687095470E+00
    0.99999839140004254112E+00
    0.99999764185078021672E+00
    0.99999854073624994122E+00
    0.10000010342493776960E+01
    0.10000014714615956812E+01
    0.99999499239507794179E+00
    0.99998941540571983921E+00
    0.99997117691103332149E+00
    0.99994528645714086945E+00
    0.99996800369399851949E+00
    0.99994237410335629068E+00
    0.99997694967029582269E+00
    0.99999074182634928309E+00
    0.99999583673009584395E+00
    0.99999742616013020946E+00
    0.99999723526525818862E+00
    0.99999717412123978466E+00
    0.99999467770203709360E+00
    0.99999091267800443994E+00
    0.99984310276646459759E+00
    0.99964298773873794257E+00
    0.99913856400733402907E+00
    0.99861670591412265985E+00
    0.99923624885466066914E+00
    0.99895459012098808405E+00
    0.99958501164615698453E+00
    0.99977862205030620935E+00
    0.99992474525399477336E+00
    0.99995110314854873668E+00
    0.99989810444998716843E+00
    0.99993282203327948920E+00
    0.99975746415936961320E+00
    0.99968552718677339275E+00
    0.99472519117695512580E+00
    0.98919610207672636903E+00
    0.97567879120649747549E+00
    0.96180274230019224824E+00
    0.97818477542731951946E+00
    0.96839527541114778231E+00
    0.98766358898577000236E+00
    0.99326694561202122369E+00
    0.99754222298960448789E+00
    0.99827797794422445943E+00
    0.99654271620993561953E+00
    0.99757102539453224033E+00