# vtk DataFile Version 3.0
LAPLACIEN  2D
ASCII
DATASET UNSTRUCTURED_GRID
 POINTS        1857  float
   3.1250000000000000E-002  0.93750000000000000        0.0000000000000000     
   6.2500000000000000E-002  0.93750000000000000        0.0000000000000000     
   6.2500000000000000E-002  0.96875000000000000        0.0000000000000000     
   1.8749999999999999E-002  0.95625000000000004        0.0000000000000000     
   4.0625000000000001E-002  0.95937499999999998        0.0000000000000000     
   4.3749999999999997E-002  0.98124999999999996        0.0000000000000000     
   2.1874999999999999E-002  0.97812500000000002        0.0000000000000000     
   9.3750000000000000E-002  0.93750000000000000        0.0000000000000000     
  0.12500000000000000       0.93750000000000000        0.0000000000000000     
  0.12500000000000000       0.96875000000000000        0.0000000000000000     
   8.1250000000000003E-002  0.95625000000000004        0.0000000000000000     
  0.10312499999999999       0.95937499999999998        0.0000000000000000     
  0.10625000000000000       0.98124999999999996        0.0000000000000000     
   8.4375000000000006E-002  0.97812500000000002        0.0000000000000000     
   3.1250000000000000E-002  0.87500000000000000        0.0000000000000000     
   6.2500000000000000E-002  0.87500000000000000        0.0000000000000000     
   6.2500000000000000E-002  0.90625000000000000        0.0000000000000000     
   1.8749999999999999E-002  0.89375000000000004        0.0000000000000000     
   4.0625000000000001E-002  0.89687499999999998        0.0000000000000000     
   4.3749999999999997E-002  0.91874999999999996        0.0000000000000000     
   2.1874999999999999E-002  0.91562500000000002        0.0000000000000000     
   9.3750000000000000E-002  0.87500000000000000        0.0000000000000000     
  0.12500000000000000       0.87500000000000000        0.0000000000000000     
  0.12500000000000000       0.90625000000000000        0.0000000000000000     
   8.1250000000000003E-002  0.89375000000000004        0.0000000000000000     
  0.10312499999999999       0.89687499999999998        0.0000000000000000     
  0.10625000000000000       0.91874999999999996        0.0000000000000000     
   8.4375000000000006E-002  0.91562500000000002        0.0000000000000000     
  0.15625000000000000       0.93750000000000000        0.0000000000000000     
  0.18750000000000000       0.93750000000000000        0.0000000000000000     
  0.18750000000000000       0.96875000000000000        0.0000000000000000     
  0.14374999999999999       0.95625000000000004        0.0000000000000000     
  0.16562499999999999       0.95937499999999998        0.0000000000000000     
  0.16875000000000001       0.98124999999999996        0.0000000000000000     
  0.14687500000000001       0.97812500000000002        0.0000000000000000     
  0.21875000000000000       0.93750000000000000        0.0000000000000000     
  0.25000000000000000       0.93750000000000000        0.0000000000000000     
  0.25000000000000000       0.96875000000000000        0.0000000000000000     
  0.20624999999999999       0.95625000000000004        0.0000000000000000     
  0.22812499999999999       0.95937499999999998        0.0000000000000000     
  0.23125000000000001       0.98124999999999996        0.0000000000000000     
  0.20937500000000001       0.97812500000000002        0.0000000000000000     
  0.15625000000000000       0.87500000000000000        0.0000000000000000     
  0.18750000000000000       0.87500000000000000        0.0000000000000000     
  0.18750000000000000       0.90625000000000000        0.0000000000000000     
  0.14374999999999999       0.89375000000000004        0.0000000000000000     
  0.16562499999999999       0.89687499999999998        0.0000000000000000     
  0.16875000000000001       0.91874999999999996        0.0000000000000000     
  0.14687500000000001       0.91562500000000002        0.0000000000000000     
  0.21875000000000000       0.87500000000000000        0.0000000000000000     
  0.25000000000000000       0.87500000000000000        0.0000000000000000     
  0.25000000000000000       0.90625000000000000        0.0000000000000000     
  0.20624999999999999       0.89375000000000004        0.0000000000000000     
  0.22812499999999999       0.89687499999999998        0.0000000000000000     
  0.23125000000000001       0.91874999999999996        0.0000000000000000     
  0.20937500000000001       0.91562500000000002        0.0000000000000000     
   3.1250000000000000E-002  0.81250000000000000        0.0000000000000000     
   6.2500000000000000E-002  0.81250000000000000        0.0000000000000000     
   6.2500000000000000E-002  0.84375000000000000        0.0000000000000000     
   1.8749999999999999E-002  0.83125000000000004        0.0000000000000000     
   4.0625000000000001E-002  0.83437499999999998        0.0000000000000000     
   4.3749999999999997E-002  0.85624999999999996        0.0000000000000000     
   2.1874999999999999E-002  0.85312500000000002        0.0000000000000000     
   9.3750000000000000E-002  0.81250000000000000        0.0000000000000000     
  0.12500000000000000       0.81250000000000000        0.0000000000000000     
  0.12500000000000000       0.84375000000000000        0.0000000000000000     
   8.1250000000000003E-002  0.83125000000000004        0.0000000000000000     
  0.10312499999999999       0.83437499999999998        0.0000000000000000     
  0.10625000000000000       0.85624999999999996        0.0000000000000000     
   8.4375000000000006E-002  0.85312500000000002        0.0000000000000000     
   3.1250000000000000E-002  0.75000000000000000        0.0000000000000000     
   6.2500000000000000E-002  0.75000000000000000        0.0000000000000000     
   6.2500000000000000E-002  0.78125000000000000        0.0000000000000000     
   1.8749999999999999E-002  0.76875000000000004        0.0000000000000000     
   4.0625000000000001E-002  0.77187499999999998        0.0000000000000000     
   4.3749999999999997E-002  0.79374999999999996        0.0000000000000000     
   2.1874999999999999E-002  0.79062500000000002        0.0000000000000000     
   9.3750000000000000E-002  0.75000000000000000        0.0000000000000000     
  0.12500000000000000       0.75000000000000000        0.0000000000000000     
  0.12500000000000000       0.78125000000000000        0.0000000000000000     
   8.1250000000000003E-002  0.76875000000000004        0.0000000000000000     
  0.10312499999999999       0.77187499999999998        0.0000000000000000     
  0.10625000000000000       0.79374999999999996        0.0000000000000000     
   8.4375000000000006E-002  0.79062500000000002        0.0000000000000000     
  0.15625000000000000       0.81250000000000000        0.0000000000000000     
  0.18750000000000000       0.81250000000000000        0.0000000000000000     
  0.18750000000000000       0.84375000000000000        0.0000000000000000     
  0.14374999999999999       0.83125000000000004        0.0000000000000000     
  0.16562499999999999       0.83437499999999998        0.0000000000000000     
  0.16875000000000001       0.85624999999999996        0.0000000000000000     
  0.14687500000000001       0.85312500000000002        0.0000000000000000     
  0.21875000000000000       0.81250000000000000        0.0000000000000000     
  0.25000000000000000       0.81250000000000000        0.0000000000000000     
  0.25000000000000000       0.84375000000000000        0.0000000000000000     
  0.20624999999999999       0.83125000000000004        0.0000000000000000     
  0.22812499999999999       0.83437499999999998        0.0000000000000000     
  0.23125000000000001       0.85624999999999996        0.0000000000000000     
  0.20937500000000001       0.85312500000000002        0.0000000000000000     
  0.15625000000000000       0.75000000000000000        0.0000000000000000     
  0.18750000000000000       0.75000000000000000        0.0000000000000000     
  0.18750000000000000       0.78125000000000000        0.0000000000000000     
  0.14374999999999999       0.76875000000000004        0.0000000000000000     
  0.16562499999999999       0.77187499999999998        0.0000000000000000     
  0.16875000000000001       0.79374999999999996        0.0000000000000000     
  0.14687500000000001       0.79062500000000002        0.0000000000000000     
  0.21875000000000000       0.75000000000000000        0.0000000000000000     
  0.25000000000000000       0.75000000000000000        0.0000000000000000     
  0.25000000000000000       0.78125000000000000        0.0000000000000000     
  0.20624999999999999       0.76875000000000004        0.0000000000000000     
  0.22812499999999999       0.77187499999999998        0.0000000000000000     
  0.23125000000000001       0.79374999999999996        0.0000000000000000     
  0.20937500000000001       0.79062500000000002        0.0000000000000000     
  0.28125000000000000       0.93750000000000000        0.0000000000000000     
  0.31250000000000000       0.93750000000000000        0.0000000000000000     
  0.31250000000000000       0.96875000000000000        0.0000000000000000     
  0.26874999999999999       0.95625000000000004        0.0000000000000000     
  0.29062500000000002       0.95937499999999998        0.0000000000000000     
  0.29375000000000001       0.98124999999999996        0.0000000000000000     
  0.27187499999999998       0.97812500000000002        0.0000000000000000     
  0.34375000000000000       0.93750000000000000        0.0000000000000000     
  0.37500000000000000       0.93750000000000000        0.0000000000000000     
  0.37500000000000000       0.96875000000000000        0.0000000000000000     
  0.33124999999999999       0.95625000000000004        0.0000000000000000     
  0.35312500000000002       0.95937499999999998        0.0000000000000000     
  0.35625000000000001       0.98124999999999996        0.0000000000000000     
[...]
 CELL_DATA        3584
 SCALARS Cells_density float
 LOOKUP_TABLE default
    0.99999659123981110564E+00
    0.99999875974398411138E+00
    0.99999871033497911288E+00
    0.99999885158292278753E+00
    0.99999876746064020328E+00
    0.99999621699761509497E+00
    0.99999891404183105514E+00
    0.99999794361860172565E+00
    0.99999901022151005403E+00
    0.99999929085974970100E+00
    0.99999818659058814507E+00
    0.99999900067492009104E+00
    0.10000001929655559785E+01
    0.10000001635564372826E+01
    0.99999906966283025334E+00
    0.10000001809563829891E+01
    0.99999905878501427203E+00
    0.99999903464516459728E+00
    0.99999900299439048457E+00
    0.99999634671192294544E+00
    0.99999911354716586320E+00
    0.99999816703847732580E+00
    0.99999889435648037228E+00
    0.99999664359982798345E+00
    0.99999911851054446021E+00
    0.99999881372267851454E+00
    0.10000011911344846016E+01
    0.10000005933279279002E+01
    0.99999670554247233056E+00
    0.99999897140949856045E+00
    0.99999886684893035671E+00
    0.99999927459309378985E+00
    0.10000002594433086145E+01
    0.99999913782298088805E+00
    0.99999894545865430917E+00
    0.99999901953266967514E+00
    0.99999647512120359849E+00
    0.99999901061558482684E+00
    0.99999830012400658941E+00
    0.99999916647090403288E+00
    0.10000005629917516625E+01
    0.10000011879286050398E+01
    0.99999922394869467102E+00
    0.10000001816176147251E+01
    0.99999909610437831553E+00
    0.99999932447778450140E+00
    0.10000002174975954894E+01
    0.99999909633940353704E+00
    0.99999926281371109837E+00
    0.10000001624315724147E+01
    0.99999900788938833607E+00
    0.99999938871596316670E+00
    0.10000002547574335932E+01
    0.99999917826310846802E+00
    0.10000018407463524550E+01
    0.10000018573862154980E+01
    0.99999913879061363975E+00
    0.10000002856612555391E+01
    0.99999908813988835909E+00
    0.99999905710917302848E+00
    0.99999908866255227124E+00
    0.99999636714300266238E+00
    0.99999914255398592022E+00
    0.99999826980509654017E+00
    0.99999896166899360228E+00
    0.99999673790646681493E+00
    0.99999925958782831525E+00
    0.99999893788617610912E+00
    0.10000015228659198119E+01
    0.10000009167970602686E+01
    0.99999914662494227002E+00
    0.10000002878646556681E+01
    0.99999908938912973611E+00
    0.99999905794823285010E+00
    0.99999908994516018002E+00
    0.99999636788206935911E+00
    0.99999914368247655450E+00
    0.99999827392591522646E+00
    0.99999896687563627484E+00
    0.99999674795629522883E+00
    0.99999926792920657004E+00
    0.99999894924850762923E+00
    0.10000015257026189097E+01
    0.10000009193130114937E+01
    0.99999926283497619917E+00
    0.10000002141170494241E+01
    0.99999911766984039829E+00
    0.99999933714272748464E+00
    0.10000002372257033034E+01
    0.99999911264590002347E+00
    0.99999928616452504748E+00
    0.10000002005672239402E+01
    0.99999904341887657644E+00
    0.99999931983971246385E+00
    0.10000002904109761559E+01
    0.99999923453232697490E+00
    0.10000018767595089120E+01
    0.10000018904496976724E+01
    0.99999926274006545324E+00
    0.10000002137035648442E+01
    0.99999911648027872690E+00
    0.99999933618900904708E+00
    0.10000002366728721892E+01
    0.99999911391080542611E+00
    0.99999928733308085516E+00
    0.10000002081645429364E+01
    0.99999910052353002676E+00
    0.99999938106854058262E+00
    0.10000002991500487326E+01
    0.99999923967072257280E+00
    0.10000018762868947420E+01
    0.10000018909921892796E+01
    0.99999671587021587982E+00
    0.99999898690666055856E+00
    0.99999887936770937014E+00
    0.99999929343655102887E+00
    0.10000002909913987548E+01
    0.99999918866019055219E+00
    0.99999895955191764330E+00
    0.99999906649476044684E+00
    0.99999655134992948557E+00
    0.99999906278260430881E+00
    0.99999833121221104459E+00
    0.99999918286575628645E+00
    0.10000005886402407729E+01
    0.10000012188220379628E+01
    0.99999923698399939553E+00
    0.10000002040906008638E+01
    0.99999911081241610322E+00
    0.99999934341216123457E+00
    0.10000002567331029990E+01
    0.99999914005558510066E+00
    0.99999923473285856623E+00
    0.10000002187121959096E+01
    0.99999911101384886258E+00
    0.99999945558061220652E+00
    0.10000002998472179438E+01
    0.99999919878782428384E+00
    0.10000018931280072465E+01
    0.10000019146885550381E+01
    0.99999671640447862497E+00
    0.99999898748231774714E+00
    0.99999887999212322409E+00
    0.99999929449874913612E+00
    0.10000002927791282747E+01
    0.99999919352563615416E+00
    0.99999896799576482032E+00
    0.99999907332573578778E+00
    0.99999655867833325829E+00
    0.99999906709620700607E+00
    0.99999833446221619848E+00
    0.99999918369380758065E+00
    0.10000005897022465895E+01
    0.10000012202216690405E+01
    0.99999923786201994069E+00
    0.10000002034089798819E+01
    0.99999910976267691876E+00
    0.99999934212509122844E+00
    0.10000002576868824988E+01
    0.99999914474497375583E+00
    0.99999924443273857655E+00
    0.10000002272743933052E+01
    0.99999911987275558189E+00
    0.99999946113532300895E+00
    0.10000003060374300645E+01
    0.99999919986478091882E+00
    0.10000018935770060846E+01
    0.10000019142337375211E+01
    0.99999927031011026646E+00
    0.10000002294889485110E+01
    0.99999912771263455014E+00
    0.99999935371362369541E+00
    0.10000002713495561579E+01
    0.99999915352700574633E+00
    0.99999925654481958137E+00
    0.10000002528831886117E+01
    0.99999913249041672003E+00
    0.99999938122544529406E+00
    0.10000003322398784977E+01
    0.99999925101774356229E+00
    0.10000019075315755845E+01
    0.10000019260952368594E+01
    0.99999925563707892096E+00
    0.10000002266663006179E+01
    0.99999899116393298204E+00
    0.99999927951062583809E+00
    0.10000002728733818902E+01
    0.99999913191533917889E+00
    0.99999925178829174310E+00
    0.10000002577867004305E+01
    0.99999913547503904709E+00
    0.99999939033650375730E+00
    0.10000003369445420454E+01
    0.99999925129266808987E+00
    0.10000018872247020685E+01
    0.10000019093295697825E+01
    0.99999925519799848228E+00
    0.10000002246635546488E+01
    0.99999900548193543237E+00
    0.99999923728052542149E+00
    0.10000002707438746530E+01
    0.99999912071792373958E+00
    0.99999926185286092117E+00
    0.10000002569993231560E+01
    0.99999913817074137512E+00
    0.99999938627373707867E+00
    0.10000003369837910938E+01
    0.99999924614893198616E+00
    0.10000018901476823707E+01
    0.10000019057465374672E+01
    0.99999771825102701239E+00
    0.99999769298337992662E+00
    0.99998980651379631990E+00
    0.99999006290260961105E+00
    0.99999769000869742630E+00
    0.99999754508685534393E+00
    0.99999888010416460027E+00
    0.10000001025053724124E+01
    0.99999908267912873683E+00
    0.99999931343787851201E+00
    0.10000001814489027918E+01
    0.99999889796376362217E+00
    0.10000011066136198501E+01
    0.10000011134359367837E+01
    0.99999914683565493956E+00
    0.10000002876199507451E+01
    0.99999908920504954057E+00
    0.99999905781647313585E+00
    0.99999908980696639027E+00
    0.99999636787300938412E+00
    0.99999914369070674880E+00
    0.99999827511523253776E+00
    0.99999896713070091092E+00
    0.99999674867218468766E+00
    0.99999926898742041992E+00
    0.99999894962435353918E+00
    0.10000015245965701016E+01
    0.10000009193548358155E+01
    0.99999914526336841636E+00
    0.10000002870421333956E+01
    0.99999908783594293471E+00
    0.99999905717335291211E+00
    0.99999908936941284132E+00
    0.99999636812619663306E+00
    0.99999914387594779352E+00
    0.99999827594148782417E+00
    0.99999896722250725123E+00
    0.99999674862372389672E+00
    0.99999926824859575181E+00
    0.99999894940173184033E+00
    0.10000015232387591269E+01
    0.10000009200739432558E+01
    0.99999924792484484737E+00
    0.10000002001250669625E+01
    0.99999908069137710687E+00
    0.99999931835606115094E+00
    0.10000002288006049067E+01
    0.99999911205170777251E+00
    0.99999928674527216454E+00
    0.10000002125098499395E+01
    0.99999910234310684931E+00
    0.99999938341182736945E+00
    0.10000002990835743510E+01
    0.99999923674449531230E+00
    0.10000018685544465047E+01
    0.10000018876611913576E+01
    0.99999915089105173571E+00
    0.10000001746617126486E+01
    0.99999889887063087013E+00
    0.99999926446433962113E+00
    0.10000002240535015297E+01
    0.99999909873175185648E+00
    0.99999928383177538738E+00
    0.10000002107946519558E+01
    0.99999909909788187168E+00
    0.99999937935169858072E+00
    0.10000002820616511467E+01
    0.99999920783245432876E+00
    0.10000018395675154270E+01
    0.10000018700206887434E+01
    0.99999913973341980622E+00
    0.10000002852318032875E+01
    0.99999908396747738681E+00
    0.99999905560839785768E+00
    0.99999908890613853352E+00
    0.99999636840058370169E+00
    0.99999914425419667019E+00
    0.99999827629736259826E+00
    0.99999896734975446400E+00
    0.99999674813360817094E+00
    0.99999926600359256845E+00
    0.99999894871558125953E+00
    0.10000015219751687834E+01
    0.10000009214637244348E+01
    0.99999913383191119109E+00
    0.10000002828989860149E+01
    0.99999908018218786054E+00
    0.99999905437326119806E+00
    0.99999908873867560111E+00
    0.99999636870975205927E+00
    0.99999914473983875229E+00
    0.99999827616015901643E+00
    0.99999896739838589621E+00
    0.99999674738255250883E+00
    0.99999926260561100566E+00
    0.99999894704027603165E+00
    0.10000015211064172682E+01
    0.10000009233078956949E+01
    0.99999859321727357919E+00
    0.99999997157039599571E+00
    0.99999816628597648638E+00
    0.99999898339658344071E+00
    0.10000001723457536684E+01
    0.99999907312150804195E+00
    0.99999927487676021354E+00
    0.10000001928380399807E+01
    0.99999904048298504655E+00
    0.99999931335447578284E+00
    0.10000002502254308201E+01
    0.99999909056889313419E+00
    0.10000017515865595730E+01
    0.10000018169985831484E+01
    0.99999743031786159086E+00
    0.99999952609846798346E+00
    0.99999738020964656915E+00
    0.99999868733408103783E+00
    0.10000000927798753381E+01
    0.99999905352232953959E+00
    0.99999926576753295215E+00
    0.10000001848103172719E+01
    0.99999902629645276431E+00
    0.99999928516934044609E+00
    0.10000001723707352408E+01
    0.99999876902812223634E+00
    0.10000016140601810655E+01
    0.10000017567274601671E+01
    0.99999812544982158435E+00
    0.99999913437811105421E+00
    0.99999557772229641373E+00
    0.99999700657917678370E+00
    0.99999962917780971239E+00
    0.99999884158212859475E+00
    0.99999918099343532152E+00
    0.10000002494569439904E+01
    0.99999910610009234979E+00
    0.99999935223489067049E+00
    0.10000003152768652814E+01
    0.99999903156079317235E+00
    0.10000016028061347040E+01
    0.10000016881483664299E+01
    0.99998439474002320804E+00
    0.99998817366089631786E+00
    0.99996804613012224561E+00
    0.99998089150886160237E+00
    0.99999443262257259324E+00
    0.99999687424756389387E+00
    0.99999858637995597821E+00
    0.99999947026880708911E+00
    0.99999885518535502893E+00
    0.99999890927929024897E+00
    0.99999860350908509332E+00
    0.99999523002339507638E+00
    0.99999813691535421878E+00
    0.99999909875798631553E+00
    0.99987450335882754882E+00
    0.99985125157417531483E+00
    0.99929175023688554536E+00
    0.99970318359284182641E+00
    0.99993111557942182532E+00
    0.99997051327979746826E+00
    0.99999119451784213020E+00
    0.99999192664733504987E+00
    0.99999684675811184587E+00
    0.99999656895950672642E+00
    0.99998825365296484247E+00
    0.99997665528933299406E+00
    0.99996804866494870545E+00
    0.99997619967117967743E+00
    0.99683870405264451975E+00
    0.99857504052008672080E+00
    0.99593838940917800429E+00
    0.99834932467873482853E+00
    0.99951199627537079540E+00
    0.99979954596277365031E+00
    0.99993322055627220646E+00
    0.99991345453536839560E+00
    0.99997007263290071943E+00
    0.99995610115072819379E+00
    0.99980562590546417923E+00
    0.99942842434811940411E+00
    0.99964068864678812254E+00
    0.99975131739804767861E+00
    0.99991526051288104338E+00
    0.99994443179491521168E+00
    0.99987887042250367386E+00
    0.99993596152430630486E+00
    0.99997897406833236023E+00
    0.99999175335813217380E+00
    0.99999677013604859610E+00
    0.99999610869680177760E+00
    0.99999751929149949259E+00
    0.99999642862115567521E+00
    0.99998899792835282962E+00
    0.99997321193847443777E+00
    0.99998361727927398412E+00
    0.99998908830471511244E+00
    0.99978001257350568309E+00
    0.99988044195711089923E+00
    0.99978422344405371014E+00
    0.99989779441786541536E+00
    0.99996442861573231475E+00
    0.99998791521503993529E+00
    0.99999495368488711122E+00
    0.99999142944405028377E+00
    0.99999501162739412585E+00
    0.99999101020600988932E+00
    0.99996980390775547232E+00
    0.99992344238105668186E+00
    0.99996164807653187268E+00
    0.99997551555852315364E+00
    0.99240250498768367571E+00
    0.99579208951613129575E+00
    0.99089973665835573424E+00
    0.99539125197466515882E+00
    0.99834850356845084018E+00
    0.99934276782952524698E+00
    0.99975001639827165700E+00
    0.99961024890221483741E+00
    0.99983936950756691076E+00
    0.99974409594956914482E+00
    0.99908671992689068730E+00
    0.99789973066207682262E+00
    0.99858558818473275309E+00
    0.99896622028463799570E+00
    0.98486335592770557490E+00
    0.99169602747086327277E+00
    0.98537162903809127901E+00
    0.99279321613962245863E+00
    0.99719710406463968333E+00
    0.99898160163431004577E+00
    0.99955883648339749481E+00
    0.99917173768586331484E+00
    0.99958384603730998652E+00
    0.99925849533065913555E+00
    0.99762570484524837333E+00
    0.99462776063047730890E+00
    0.99693374280922975039E+00
    0.99785748501206872341E+00
    0.99999671638270481999E+00
    0.99999898729592928692E+00
    0.99999887984412616504E+00
    0.99999929429342382381E+00
    0.10000002924454056696E+01
    0.99999919333572284685E+00
    0.99999896823679901292E+00
    0.99999907429618617449E+00
    0.99999655931335285075E+00
    0.99999906731017562667E+00
    0.99999833559661421845E+00
    0.99999918368352491704E+00
    0.10000005896392640814E+01
    0.10000012190030240777E+01
    0.99999923635105103514E+00
    0.10000001956554867011E+01
    0.99999908857594133060E+00
    0.99999932374816502545E+00
    0.10000002440456003949E+01
    0.99999912977450100549E+00
    0.99999924143334761872E+00
    0.10000002269985761583E+01
    0.99999912077168462421E+00
    0.99999946150165541781E+00
    0.10000003101833532249E+01
    0.99999919926754154975E+00
    0.10000018902230438655E+01
    0.10000019064170175831E+01
    0.99999671663562472723E+00
    0.99999898685635901785E+00
    0.99999887916214269534E+00
    0.99999929288649980208E+00
    0.10000002918738037927E+01
    0.99999919209895404837E+00
    0.99999896801652754519E+00
    0.99999907355432382516E+00
    0.99999655926009023421E+00
    0.99999906740054178567E+00
    0.99999833642264501776E+00
    0.99999918386868258402E+00
    0.10000005903581727917E+01
    0.10000012176432671041E+01
    0.99999922518090755830E+00
    0.10000001807969332024E+01
    0.99999898079136184670E+00
    0.99999912833945669988E+00
    0.10000002126617291154E+01
    0.99999900532687635568E+00
    0.99999921754499698778E+00
    0.10000002112108985486E+01
    0.99999911832263410627E+00
    0.99999945982976090608E+00
    0.10000003087509856670E+01
    0.99999919618046295700E+00
    0.10000018693005805481E+01
    0.10000018743987830749E+01
    0.99999899092805133449E+00
    0.99999961240622381453E+00
    0.99999669467855190064E+00
    0.99999577593459076930E+00
    0.99999913049179367519E+00
    0.99999796839286625438E+00
    0.99999901178993788609E+00
    0.10000002307706117310E+01
    0.99999910706981309794E+00
    0.99999935648034721236E+00
    0.10000003301679400991E+01
    0.99999918189071657082E+00
    0.10000016660873152219E+01
    0.10000016021074853434E+01
    0.99997072304516732011E+00
    0.99993112211583068394E+00
    0.99970284118290697606E+00
    0.99929192370929709188E+00
    0.99985120856176501469E+00
    0.99987430890538342432E+00
    0.99997659019621942811E+00
    0.99998813623199345191E+00
    0.99999643498542278852E+00
    0.99999711934947865810E+00
    0.99999201823197159111E+00
    0.99999122654044647618E+00
    0.99997618114889919028E+00
    0.99996802659242567390E+00
    0.99999704726952653999E+00
    0.99999442636700475173E+00
    0.99998056209889463197E+00
    0.99996822718845068678E+00
    0.99998816171336091241E+00
    0.99998424636418237199E+00
    0.99999516780703412433E+00
    0.99999849039686672381E+00
    0.99999874334530225450E+00
    0.99999912364172505175E+00
    0.99999955605190626873E+00
    0.99999860784555660853E+00
    0.99999907841960400390E+00
    0.99999812357935136120E+00
    0.99979977390525243131E+00
    0.99951200751906621456E+00
    0.99834897029782576627E+00
    0.99593854947377491449E+00
    0.99857501102748180699E+00
    0.99683855392962705810E+00
    0.99942832610026133278E+00
    0.99980550391696509926E+00
    0.99995601717108417716E+00
    0.99997037705734181934E+00
    0.99991355526053571356E+00
    0.99993325255118248318E+00
    0.99975129896534453700E+00
    0.99964066382385030618E+00
    0.99999671691015490360E+00
    0.99999898639349893426E+00
    0.99999887759505823315E+00
    0.99999928847016272826E+00
    0.10000002898264843676E+01
    0.99999918867699821856E+00
    0.99999896713145419724E+00
    0.99999907128665754819E+00
    0.99999655876914306241E+00
    0.99999906752755218786E+00
    0.99999833677813498856E+00
    0.99999918424652911586E+00
    0.10000005917450878190E+01
    0.10000012163552600697E+01
    0.99999919932081116070E+00
    0.10000001468367940571E+01
    0.99999869351325132438E+00
    0.99999837799611279721E+00
    0.99999998912330523293E+00
    0.99999844612057031679E+00
    0.99999907830608580905E+00
    0.10000001805620839512E+01
    0.99999910440191686067E+00
    0.99999945199920559080E+00
    0.10000002912047123438E+01
    0.99999918614439631259E+00
    0.10000018061770703515E+01
    0.10000017745528000379E+01
    0.99999671722102323468E+00
    0.99999898622712590779E+00
    0.99999887633645712093E+00
    0.99999928404402771420E+00
    0.10000002872189261982E+01
    0.99999916954058898355E+00
    0.99999896522808107147E+00
    0.99999906789738768342E+00
    0.99999655801854536730E+00
    0.99999906757636858323E+00
    0.99999833664116644094E+00
    0.99999918473296445232E+00
    0.10000005935887898989E+01
    0.10000012154949813326E+01
    0.99999917891557610350E+00
    0.10000000731865039683E+01
    0.99999842733769839231E+00
    0.99999758755239986918E+00
    0.99999954378460398363E+00
    0.99999728825599532023E+00
    0.99999874230236329709E+00
    0.10000000923454368529E+01
    0.99999907557944167635E+00
    0.99999942639001226929E+00
    0.10000002809727790432E+01
    0.99999917574857555280E+00
    0.10000017412586470478E+01
    0.10000016326040723769E+01
    0.99999193637708483351E+00
    0.99997897211640152104E+00
    0.99993562575807648507E+00
    0.99987904562784279960E+00
    0.99994441795554633856E+00
    0.99991511694725354609E+00
    0.99997313105840668346E+00
    0.99998887806217640062E+00
    0.99999630252402582631E+00
    0.99999780629345524918E+00
    0.99999620002931566276E+00
    0.99999679568518173856E+00
    0.99998906835843148766E+00
    0.99998359939125525120E+00
    0.99934300291820299389E+00
    0.99834851712946814928E+00
    0.99539089452535511882E+00
    0.99089989205052353416E+00
    0.99579206032370304325E+00
    0.99240236017712502026E+00
    0.99789962215726224493E+00
    0.99908659859045423346E+00
    0.99974403370505526834E+00
    0.99983968826974101152E+00
    0.99961035494977623639E+00
    0.99975004836682412890E+00