# vtk DataFile Version 3.0
LAPLACIEN  2D
ASCII
DATASET UNSTRUCTURED_GRID
 POINTS        1857  float
   3.1250000000000000E-002  0.93750000000000000        0.0000000000000000     
   6.2500000000000000E-002  0.93750000000000000        0.0000000000000000     
   6.2500000000000000E-002  0.96875000000000000        0.0000000000000000     
   1.8749999999999999E-002  0.95625000000000004        0.0000000000000000     
   4.0625000000000001E-002  0.95937499999999998        0.0000000000000000     
   4.3749999999999997E-002  0.98124999999999996        0.0000000000000000     
   2.1874999999999999E-002  0.97812500000000002        0.0000000000000000     
   9.3750000000000000E-002  0.93750000000000000        0.0000000000000000     
  0.12500000000000000       0.93750000000000000        0.0000000000000000     
  0.12500000000000000       0.96875000000000000        0.0000000000000000     
   8.1250000000000003E-002  0.95625000000000004        0.0000000000000000     
  0.10312499999999999       0.95937499999999998        0.0000000000000000     
  0.10625000000000000       0.98124999999999996        0.0000000000000000     
   8.4375000000000006E-002  0.97812500000000002        0.0000000000000000     
   3.1250000000000000E-002  0.87500000000000000        0.0000000000000000     
   6.2500000000000000E-002  0.87500000000000000        0.0000000000000000     
   6.2500000000000000E-002  0.90625000000000000        0.0000000000000000     
   1.8749999999999999E-002  0.89375000000000004        0.0000000000000000     
   4.0625000000000001E-002  0.89687499999999998        0.0000000000000000     
   4.3749999999999997E-002  0.91874999999999996        0.0000000000000000     
   2.1874999999999999E-002  0.91562500000000002        0.0000000000000000     
   9.3750000000000000E-002  0.87500000000000000        0.0000000000000000     
  0.12500000000000000       0.87500000000000000        0.0000000000000000     
  0.12500000000000000       0.90625000000000000        0.0000000000000000     
   8.1250000000000003E-002  0.89375000000000004        0.0000000000000000     
  0.10312499999999999       0.89687499999999998        0.0000000000000000     
  0.10625000000000000       0.91874999999999996        0.0000000000000000     
   8.4375000000000006E-002  0.91562500000000002        0.0000000000000000     
  0.15625000000000000       0.93750000000000000        0.0000000000000000     
  0.18750000000000000       0.93750000000000000        0.0000000000000000     
  0.18750000000000000       0.96875000000000000        0.0000000000000000     
  0.14374999999999999       0.95625000000000004        0.0000000000000000     
  0.16562499999999999       0.95937499999999998        0.0000000000000000     
  0.16875000000000001       0.98124999999999996        0.0000000000000000     
  0.14687500000000001       0.97812500000000002        0.0000000000000000     
  0.21875000000000000       0.93750000000000000        0.0000000000000000     
  0.25000000000000000       0.93750000000000000        0.0000000000000000     
  0.25000000000000000       0.96875000000000000        0.0000000000000000     
  0.20624999999999999       0.95625000000000004        0.0000000000000000     
  0.22812499999999999       0.95937499999999998        0.0000000000000000     
  0.23125000000000001       0.98124999999999996        0.0000000000000000     
  0.20937500000000001       0.97812500000000002        0.0000000000000000     
  0.15625000000000000       0.87500000000000000        0.0000000000000000     
  0.18750000000000000       0.87500000000000000        0.0000000000000000     
  0.18750000000000000       0.90625000000000000        0.0000000000000000     
  0.14374999999999999       0.89375000000000004        0.0000000000000000     
  0.16562499999999999       0.89687499999999998        0.0000000000000000     
  0.16875000000000001       0.91874999999999996        0.0000000000000000     
  0.14687500000000001       0.91562500000000002        0.0000000000000000     
  0.21875000000000000       0.87500000000000000        0.0000000000000000     
  0.25000000000000000       0.87500000000000000        0.0000000000000000     
  0.25000000000000000       0.90625000000000000        0.0000000000000000     
  0.20624999999999999       0.89375000000000004        0.0000000000000000     
  0.22812499999999999       0.89687499999999998        0.0000000000000000     
  0.23125000000000001       0.91874999999999996        0.0000000000000000     
  0.20937500000000001       0.91562500000000002        0.0000000000000000     
   3.1250000000000000E-002  0.81250000000000000        0.0000000000000000     
   6.2500000000000000E-002  0.81250000000000000        0.0000000000000000     
   6.2500000000000000E-002  0.84375000000000000        0.0000000000000000     
   1.8749999999999999E-002  0.83125000000000004        0.0000000000000000     
   4.0625000000000001E-002  0.83437499999999998        0.0000000000000000     
   4.3749999999999997E-002  0.85624999999999996        0.0000000000000000     
   2.1874999999999999E-002  0.85312500000000002        0.0000000000000000     
   9.3750000000000000E-002  0.81250000000000000        0.0000000000000000     
  0.12500000000000000       0.81250000000000000        0.0000000000000000     
  0.12500000000000000       0.84375000000000000        0.0000000000000000     
   8.1250000000000003E-002  0.83125000000000004        0.0000000000000000     
  0.10312499999999999       0.83437499999999998        0.0000000000000000     
  0.10625000000000000       0.85624999999999996        0.0000000000000000     
   8.4375000000000006E-002  0.85312500000000002        0.0000000000000000     
   3.1250000000000000E-002  0.75000000000000000        0.0000000000000000     
   6.2500000000000000E-002  0.75000000000000000        0.0000000000000000     
   6.2500000000000000E-002  0.78125000000000000        0.0000000000000000     
   1.8749999999999999E-002  0.76875000000000004        0.0000000000000000     
   4.0625000000000001E-002  0.77187499999999998        0.0000000000000000     
   4.3749999999999997E-002  0.79374999999999996        0.0000000000000000     
   2.1874999999999999E-002  0.79062500000000002        0.0000000000000000     
   9.3750000000000000E-002  0.75000000000000000        0.0000000000000000     
  0.12500000000000000       0.75000000000000000        0.0000000000000000     
  0.12500000000000000       0.78125000000000000        0.0000000000000000     
   8.1250000000000003E-002  0.76875000000000004        0.0000000000000000     
  0.10312499999999999       0.77187499999999998        0.0000000000000000     
  0.10625000000000000       0.79374999999999996        0.0000000000000000     
   8.4375000000000006E-002  0.79062500000000002        0.0000000000000000     
  0.15625000000000000       0.81250000000000000        0.0000000000000000     
  0.18750000000000000       0.81250000000000000        0.0000000000000000     
  0.18750000000000000       0.84375000000000000        0.0000000000000000     
  0.14374999999999999       0.83125000000000004        0.0000000000000000     
  0.16562499999999999       0.83437499999999998        0.0000000000000000     
  0.16875000000000001       0.85624999999999996        0.0000000000000000     
  0.14687500000000001       0.85312500000000002        0.0000000000000000     
  0.21875000000000000       0.81250000000000000        0.0000000000000000     
  0.25000000000000000       0.81250000000000000        0.0000000000000000     
  0.25000000000000000       0.84375000000000000        0.0000000000000000     
  0.20624999999999999       0.83125000000000004        0.0000000000000000     
  0.22812499999999999       0.83437499999999998        0.0000000000000000     
  0.23125000000000001       0.85624999999999996        0.0000000000000000     
  0.20937500000000001       0.85312500000000002        0.0000000000000000     
  0.15625000000000000       0.75000000000000000        0.0000000000000000     
  0.18750000000000000       0.75000000000000000        0.0000000000000000     
  0.18750000000000000       0.78125000000000000        0.0000000000000000     
  0.14374999999999999       0.76875000000000004        0.0000000000000000     
  0.16562499999999999       0.77187499999999998        0.0000000000000000     
  0.16875000000000001       0.79374999999999996        0.0000000000000000     
  0.14687500000000001       0.79062500000000002        0.0000000000000000     
  0.21875000000000000       0.75000000000000000        0.0000000000000000     
  0.25000000000000000       0.75000000000000000        0.0000000000000000     
  0.25000000000000000       0.78125000000000000        0.0000000000000000     
  0.20624999999999999       0.76875000000000004        0.0000000000000000     
  0.22812499999999999       0.77187499999999998        0.0000000000000000     
  0.23125000000000001       0.79374999999999996        0.0000000000000000     
  0.20937500000000001       0.79062500000000002        0.0000000000000000     
  0.28125000000000000       0.93750000000000000        0.0000000000000000     
  0.31250000000000000       0.93750000000000000        0.0000000000000000     
  0.31250000000000000       0.96875000000000000        0.0000000000000000     
  0.26874999999999999       0.95625000000000004        0.0000000000000000     
  0.29062500000000002       0.95937499999999998        0.0000000000000000     
  0.29375000000000001       0.98124999999999996        0.0000000000000000     
  0.27187499999999998       0.97812500000000002        0.0000000000000000     
  0.34375000000000000       0.93750000000000000        0.0000000000000000     
  0.37500000000000000       0.93750000000000000        0.0000000000000000     
  0.37500000000000000       0.96875000000000000        0.0000000000000000     
  0.33124999999999999       0.95625000000000004        0.0000000000000000     
  0.35312500000000002       0.95937499999999998        0.0000000000000000     
  0.35625000000000001       0.98124999999999996        0.0000000000000000     
[...]
 CELL_DATA        3584
 SCALARS Cells_density float
 LOOKUP_TABLE default
    0.99999802386401825949E+00
    0.99999959941360139215E+00
    0.99999939102860802009E+00
    0.99999955832865683458E+00
    0.99999963060492125244E+00
    0.99999770327527182090E+00
    0.99999968604268130168E+00
    0.99999886208228261353E+00
    0.99999955643693216878E+00
    0.99999977591925981457E+00
    0.99999902901632331531E+00
    0.99999970951959660237E+00
    0.99999992848435692583E+00
    0.99999991467364302000E+00
    0.99999961030849970900E+00
    0.10000002012805848661E+01
    0.99999952581675810581E+00
    0.99999963617009968164E+00
    0.99999974384499457081E+00
    0.99999776207138635353E+00
    0.99999979853681775221E+00
    0.99999902174121746423E+00
    0.99999967136146583613E+00
    0.99999806024863635567E+00
    0.99999980931146026375E+00
    0.99999950408697135806E+00
    0.10000003719699934734E+01
    0.10000000744348187531E+01
    0.99999807852048960832E+00
    0.99999970615020705722E+00
    0.99999947857094872994E+00
    0.99999973130253527742E+00
    0.10000002139756807296E+01
    0.99999950470596232766E+00
    0.99999956983701887570E+00
    0.99999971558315370324E+00
    0.99999787455771560474E+00
    0.99999975253252182394E+00
    0.99999911789428697073E+00
    0.99999980950569222760E+00
    0.10000000376576323458E+01
    0.10000003544431526059E+01
    0.99999967958672431045E+00
    0.10000003432977244699E+01
    0.99999954426350956549E+00
    0.99999974200177998984E+00
    0.10000003648011352997E+01
    0.99999955318978350771E+00
    0.99999970901144663582E+00
    0.10000003315419008221E+01
    0.99999949234894036643E+00
    0.99999973655550722373E+00
    0.10000003781709176920E+01
    0.99999963118516199678E+00
    0.10000008137229376981E+01
    0.10000008338258241647E+01
    0.99999963784697365465E+00
    0.10000002171792443662E+01
    0.99999953126700236172E+00
    0.99999963916427803134E+00
    0.99999975100392168859E+00
    0.99999776445919397183E+00
    0.99999980313934122567E+00
    0.99999903546732260562E+00
    0.99999969313859549125E+00
    0.99999809629340430384E+00
    0.99999984123256735469E+00
    0.99999955386896599574E+00
    0.10000004398440813791E+01
    0.10000001384702257301E+01
    0.99999963854160445198E+00
    0.10000002175850128960E+01
    0.99999953136385077990E+00
    0.99999963920544643337E+00
    0.99999975124398476911E+00
    0.99999776448231247894E+00
    0.99999980316915593193E+00
    0.99999903621380437091E+00
    0.99999969375957831197E+00
    0.99999809769467051801E+00
    0.99999984270330932734E+00
    0.99999955550945840432E+00
    0.10000004429079873969E+01
    0.10000001414709089875E+01
    0.99999969428650614667E+00
    0.10000003527949610227E+01
    0.99999954958945369565E+00
    0.99999974515923106821E+00
    0.10000003696759722782E+01
    0.99999955596371625788E+00
    0.99999971458457037610E+00
    0.10000003454312709206E+01
    0.99999951964731081944E+00
    0.99999975940455365642E+00
    0.10000004062818117490E+01
    0.99999965658538525481E+00
    0.10000008281363508278E+01
    0.10000008449759738571E+01
    0.99999969495748242121E+00
    0.10000003527674510284E+01
    0.99999954970247584285E+00
    0.99999974519377299309E+00
    0.10000003693876551303E+01
    0.99999955610584179144E+00
    0.99999971465799919468E+00
    0.10000003465300013605E+01
    0.99999952050366069933E+00
    0.99999976104580334813E+00
    0.10000004077523425572E+01
    0.99999965835196447106E+00
    0.10000008278703034215E+01
    0.10000008448814832196E+01
    0.99999808058893713270E+00
    0.99999970997008269524E+00
    0.99999948113168934949E+00
    0.99999973594042745884E+00
    0.10000002259384186409E+01
    0.99999953385877593526E+00
    0.99999957372013037471E+00
    0.99999973899679184264E+00
    0.99999790782844055759E+00
    0.99999977246137361497E+00
    0.99999912779245947458E+00
    0.99999981358640488427E+00
    0.10000000462985820793E+01
    0.10000003664440300089E+01
    0.99999968185901166873E+00
    0.10000003476631260657E+01
    0.99999954697769777301E+00
    0.99999974694927329377E+00
    0.10000003771904908412E+01
    0.99999957325686716914E+00
    0.99999968969151153964E+00
    0.10000003562010104652E+01
    0.99999953378107031554E+00
    0.99999976767685483381E+00
    0.10000003909892296594E+01
    0.99999963588862927910E+00
    0.10000008312893637896E+01
    0.10000008548010763665E+01
    0.99999808060009032218E+00
    0.99999970992254416657E+00
    0.99999948115616199562E+00
    0.99999973601377933896E+00
    0.10000002260242812913E+01
    0.99999953443481182092E+00
    0.99999957513579029733E+00
    0.99999974008335268394E+00
    0.99999790907564056752E+00
    0.99999977299907660822E+00
    0.99999912823285697083E+00
    0.99999981359541334491E+00
    0.10000000463150715557E+01
    0.10000003665085379634E+01
    0.99999968199616373621E+00
    0.10000003473654979214E+01
    0.99999954700357385207E+00
    0.99999974704432759154E+00
    0.10000003771149510445E+01
    0.99999957380109949501E+00
    0.99999969117940301633E+00
    0.10000003575111189313E+01
    0.99999953514187722714E+00
    0.99999976840436965997E+00
    0.10000003920451638884E+01
    0.99999963594603191730E+00
    0.10000008312003907385E+01
    0.10000008545196712451E+01
    0.99999969675164768201E+00
    0.10000003567816080352E+01
    0.99999955235396320585E+00
    0.99999975015267006384E+00
    0.10000003816483624686E+01
    0.99999957614521117755E+00
    0.99999969533515398190E+00
    0.10000003697195958274E+01
    0.99999955403633877804E+00
    0.99999978359703622921E+00
    0.10000004192378215695E+01
    0.99999966155975150706E+00
    0.10000008378129212616E+01
    0.10000008579850734325E+01
    0.99999969741087402220E+00
    0.10000003563960664366E+01
    0.99999955250467897905E+00
    0.99999975020038989193E+00
    0.10000003809511226471E+01
    0.99999957642088765919E+00
    0.99999969540515465383E+00
    0.10000003717880827647E+01
    0.99999955508702664808E+00
    0.99999978549271084649E+00
    0.10000004213084299209E+01
    0.99999966333113388117E+00
    0.10000008369321169432E+01
    0.10000008575070584715E+01
    0.99999969702168711727E+00
    0.10000003560679204817E+01
    0.99999955239155680076E+00
    0.99999975028476784100E+00
    0.10000003812084152788E+01
    0.99999957667750039025E+00
    0.99999969682867440035E+00
    0.10000003716327894310E+01
    0.99999955569583176551E+00
    0.99999978452174931309E+00
    0.10000004212547091154E+01
    0.99999966161185982472E+00
    0.10000008372927415845E+01
    0.10000008570420044762E+01
    0.99999969765972940294E+00
    0.10000003540602497853E+01
    0.99999953916036543600E+00
    0.99999973683656373513E+00
    0.10000003788943379046E+01
    0.99999957693353813681E+00
    0.99999969688831336079E+00
    0.10000003751370927230E+01
    0.99999955709873367127E+00
    0.99999978676910439290E+00
    0.10000004247610003727E+01
    0.99999966337164603036E+00
    0.10000008354455793835E+01
    0.10000008555985908654E+01
    0.99999963846895179032E+00
    0.10000002175164239837E+01
    0.99999953137454877794E+00
    0.99999963919116052757E+00
    0.99999975121109296872E+00
    0.99999776447691990366E+00
    0.99999980316073788789E+00
    0.99999903647604815315E+00
    0.99999969377080044630E+00
    0.99999809778577619657E+00
    0.99999984289691856709E+00
    0.99999955549257102394E+00
    0.10000004428752897745E+01
    0.10000001416460184700E+01
    0.99999963833571348104E+00
    0.10000002174980369141E+01
    0.99999953138400443642E+00
    0.99999963916553402665E+00
    0.99999975113694794526E+00
    0.99999776456418165704E+00
    0.99999980320964187985E+00
    0.99999903667155898290E+00
    0.99999969379414599402E+00
    0.99999809777413917189E+00
    0.99999984273272501945E+00
    0.99999955548208641076E+00
    0.10000004426544197855E+01
    0.10000001417861557051E+01
    0.99999969478174866033E+00
    0.10000003524820999523E+01
    0.99999954974193094870E+00
    0.99999974517127776519E+00
    0.10000003689967322806E+01
    0.99999955631055459371E+00
    0.99999971464750958550E+00
    0.10000003476534455871E+01
    0.99999952062705987910E+00
    0.99999976130136503105E+00
    0.10000004079843505256E+01
    0.99999965835472348630E+00
    0.10000008271045555119E+01
    0.10000008447494048713E+01
    0.99999969469687854939E+00
    0.10000003520662850143E+01
    0.99999954977226901409E+00
    0.99999974512631462087E+00
    0.10000003686790268631E+01
    0.99999955657491257366E+00
    0.99999971478457794216E+00
    0.10000003486770774330E+01
    0.99999952066872810352E+00
    0.99999976154486269753E+00
    0.10000004076964725819E+01
    0.99999965833740200871E+00
    0.10000008263240414141E+01
    0.10000008448864221577E+01
    0.99999963830379745566E+00
    0.10000002174066833227E+01
    0.99999953139124830859E+00
    0.99999963913507272650E+00
    0.99999975112309880121E+00
    0.99999776467662837565E+00
    0.99999980331171078873E+00
    0.99999903677180101980E+00
    0.99999969383203690665E+00
    0.99999809765399272354E+00
    0.99999984226715932234E+00
    0.99999955547247065812E+00
    0.10000004425007735787E+01
    0.10000001420762645310E+01
    0.99999963828331450699E+00
    0.10000002173777893244E+01
    0.99999953139392716572E+00
    0.99999963910553024693E+00
    0.99999975117167838601E+00
    0.99999776479102508997E+00
    0.99999980343959593565E+00
    0.99999903676310164524E+00
    0.99999969385417641909E+00
    0.99999809747454571074E+00
    0.99999984159200849820E+00
    0.99999955546581398291E+00
    0.10000004424485680055E+01
    0.10000001424573148334E+01
    0.99999969458679061063E+00
    0.10000003517480109405E+01
    0.99999954974348193026E+00
    0.99999974506178790357E+00
    0.10000003685161775735E+01
    0.99999955683686936325E+00
    0.99999971498106687839E+00
    0.10000003494222806655E+01
    0.99999952061301045081E+00
    0.99999976171595073016E+00
    0.10000004068999339690E+01
    0.99999965831573278674E+00
    0.10000008257376695742E+01
    0.10000008452813382576E+01
    0.99999969442663982910E+00
    0.10000003515879167804E+01
    0.99999954967383564153E+00
    0.99999974499660881921E+00
    0.10000003685321112723E+01
    0.99999955704110909949E+00
    0.99999971517768349027E+00
    0.10000003497499547755E+01
    0.99999952047246520870E+00
    0.99999976177427452040E+00
    0.10000004057989924089E+01
    0.99999965828549686186E+00
    0.10000008254704968458E+01
    0.10000008458329410210E+01
    0.99999969697882729047E+00
    0.10000003556891556844E+01
    0.99999955203504520274E+00
    0.99999974991656459533E+00
    0.10000003800042411850E+01
    0.99999957687720397725E+00
    0.99999969551163925274E+00
    0.10000003742321315059E+01
    0.99999955539212725952E+00
    0.99999978607145667553E+00
    0.10000004219448337395E+01
    0.99999966332142997683E+00
    0.10000008351994027489E+01
    0.10000008570955014608E+01
    0.99999969182788162048E+00
    0.10000003515393296460E+01
    0.99999953918661377283E+00
    0.99999974460457496939E+00
    0.10000003782535493713E+01
    0.99999957725756460913E+00
    0.99999969582905767762E+00
    0.10000003765790310695E+01
    0.99999955553926156426E+00
    0.99999978664687627639E+00
    0.10000004212358362121E+01
    0.99999966259966044380E+00
    0.10000008327842515587E+01
    0.10000008569582483631E+01
    0.99999765419616049034E+00
    0.99999778651632309501E+00
    0.99996856032568692818E+00
    0.99999507394407971539E+00
    0.10000000561620667749E+01
    0.99999954749499964102E+00
    0.99999969416663525568E+00
    0.10000003761872047203E+01
    0.99999955751768943024E+00
    0.99999978705969649884E+00
    0.10000004066107821554E+01
    0.99999954248030042958E+00
    0.10000006534874601449E+01
    0.10000008049763831064E+01
    0.99978230363607412112E+00
    0.99996293995888196893E+00
    0.99978100256161217541E+00
    0.99997359717621747688E+00
    0.99999792726682235067E+00
    0.99999927822739664851E+00
    0.99999965591458583880E+00
    0.10000003320140640195E+01
    0.99999953925407836230E+00
    0.99999970855847852835E+00
    0.99999906933295723555E+00
    0.99998336587708891443E+00
    0.99999784408751146714E+00
    0.10000001187257381297E+01
    0.99999965874722929193E+00
    0.10000003325490780526E+01
    0.99999947039912817637E+00
    0.99999973144811937775E+00
    0.10000003722234036552E+01
    0.99999957673278283554E+00
    0.99999969603364080584E+00
    0.10000003777728305732E+01
    0.99999955535915296956E+00
    0.99999978672321210293E+00
    0.10000004169775602580E+01
    0.99999965354099751291E+00
    0.10000008270306690594E+01
    0.10000008556226342993E+01
    0.99999951670216247201E+00
    0.10000003349526720431E+01
    0.99999936145482914984E+00
    0.99999970796785253579E+00
    0.10000003706613382892E+01
    0.99999957602626898812E+00
    0.99999969610753580707E+00
    0.10000003773931729345E+01
    0.99999955475492730006E+00
    0.99999978561396618559E+00
    0.10000004062741154609E+01
    0.99999961982773577507E+00
    0.10000008184924282784E+01
    0.10000008535148079414E+01
    0.99970110098046605085E+00
    0.99994156881669471471E+00
    0.99972860668962959529E+00
    0.99995307596459725996E+00
    0.99999295962332668264E+00
    0.99999811575321329027E+00
    0.99999938381772579543E+00
    0.99999982702475542773E+00
    0.99999940572994094889E+00
    0.99999935299306597081E+00
    0.99999672558741004025E+00
    0.99997126680523429343E+00
    0.99999358660727299952E+00
    0.99999774141874908651E+00
    0.99959271456945741896E+00
    0.99989843368978625904E+00
    0.99964168281955401163E+00
    0.99992651593628212314E+00
    0.99998591440796424923E+00
    0.99999679493921800333E+00
    0.99999897161756257091E+00
    0.99999854209027494445E+00
    0.99999892048948624268E+00
    0.99999796092837756056E+00
    0.99998905556503880909E+00
    0.99994460051216815799E+00
    0.99998323785960074872E+00
    0.99999242390529508029E+00
    0.99999808059392336634E+00
    0.99999970987022746005E+00
    0.99999948113980907660E+00
    0.99999973602298086739E+00
    0.10000002259263038873E+01
    0.99999953423039000810E+00
    0.99999957510485959489E+00
    0.99999974025741877881E+00
    0.99999790917111464061E+00
    0.99999977300967446414E+00
    0.99999912847528504845E+00
    0.99999981358564205003E+00
    0.10000000462925722200E+01
    0.10000003662776879576E+01
    0.99999968220049684220E+00
    0.10000003469743812268E+01
    0.99999954697963799877E+00
    0.99999974708272920676E+00
    0.10000003768288558970E+01
    0.99999957362331581834E+00
    0.99999969117757514514E+00
    0.10000003577413729694E+01
    0.99999953539292019133E+00
    0.99999976841349735857E+00
    0.10000003931588246076E+01
    0.99999963593456631106E+00
    0.10000008310671266720E+01
    0.10000008537527675934E+01
    0.99999808068104967251E+00
    0.99999970979622665457E+00
    0.99999948111448688781E+00
    0.99999973603244440845E+00
    0.10000002259077231948E+01
    0.99999953409702058149E+00
    0.99999957509390924315E+00
    0.99999974009332859293E+00
    0.99999790915910113931E+00
    0.99999977303298936970E+00
    0.99999912867073348366E+00
    0.99999981363453516181E+00
    0.10000000464329461547E+01
    0.10000003660572316377E+01
    0.99999968246489401302E+00
    0.10000003466566715904E+01
    0.99999954693519033100E+00
    0.99999974711303463160E+00
    0.10000003764123348571E+01
    0.99999957353803137217E+00
    0.99999969115952047627E+00
    0.10000003574537268403E+01
    0.99999953563615051610E+00
    0.99999976845534377379E+00
    0.10000003941825068576E+01
    0.99999963607163333545E+00
    0.10000008312042025782E+01
    0.10000008529718160677E+01
    0.99999969747724259950E+00
    0.10000003551197154117E+01
    0.99999955210454305465E+00
    0.99999974981044792433E+00
    0.10000003804977832811E+01
    0.99999957624045932025E+00
    0.99999969681335321159E+00
    0.10000003722684129848E+01
    0.99999955627910575018E+00
    0.99999978482562046356E+00
    0.10000004236977264593E+01
    0.99999966171711629492E+00
    0.10000008368794228719E+01
    0.10000008553080006468E+01
    0.99999966833275710787E+00
    0.10000000289646631124E+01
    0.99999484132139815351E+00
    0.99996876594103190072E+00
    0.99999781015539634943E+00
    0.99999752108576067666E+00
    0.99999957824133101081E+00
    0.10000003570365292305E+01
    0.99999955738839663155E+00
    0.99999978718397741773E+00
    0.10000004258022181514E+01
    0.99999966064520440234E+00
    0.10000007848384953046E+01
    0.10000006735242958911E+01
    0.99999969785695708158E+00
    0.10000003533348622575E+01
    0.99999954682219138746E+00
    0.99999974401732372176E+00
    0.10000003761222691079E+01
    0.99999957104388159657E+00
    0.99999969608783223496E+00
    0.10000003715569996121E+01
    0.99999955685414898543E+00
    0.99999978497254260468E+00
    0.10000004260442543202E+01
    0.99999966203432444356E+00
    0.10000008367397021924E+01
    0.10000008528672261754E+01
    0.99999941448760210072E+00
    0.99999792209018434352E+00
    0.99997334122502978815E+00
    0.99978118037927199424E+00
    0.99996292904902750465E+00
    0.99978215114105184469E+00
    0.99998338503092987217E+00
    0.99999901654591194511E+00
    0.99999947975477521123E+00
    0.99999976869363271792E+00
    0.10000003825583483330E+01
    0.99999962184216262262E+00
    0.10000000964279185389E+01
    0.99999785302496346784E+00
    0.99999808079346963474E+00
    0.99999970978233509999E+00
    0.99999948108419811632E+00
    0.99999973603942104994E+00
    0.10000002258165170410E+01
    0.99999953406512054332E+00
    0.99999957508439385467E+00
    0.99999973962774435510E+00
    0.99999790903891316862E+00
    0.99999977307082044131E+00
    0.99999912877089824903E+00
    0.99999981373660551398E+00
    0.10000000467230103496E+01
    0.10000003659034639725E+01
    0.99999968272688399828E+00
    0.10000003464936351172E+01
    0.99999954686989733776E+00
    0.99999974708425587444E+00
    0.10000003760942735020E+01
    0.99999957342753587053E+00
    0.99999969113764108908E+00
    0.10000003566569803937E+01
    0.99999953580734679548E+00
    0.99999976839965942776E+00
    0.10000003949276574655E+01
    0.99999963626800525418E+00
    0.10000008315990909225E+01
    0.10000008523859655885E+01
    0.99999808090832575935E+00
    0.99999970983103625422E+00
    0.99999948105573077672E+00
    0.99999973604230130153E+00
    0.10000002257878692902E+01
    0.99999953404478481023E+00
    0.99999957507778836074E+00
    0.99999973895266780488E+00
    0.99999790885961870046E+00
    0.99999977309297227723E+00
    0.99999912876242935678E+00
    0.99999981386418002050E+00
    0.10000000471038517080E+01
    0.10000003658512119920E+01
    0.99999968293161756172E+00
    0.10000003465102269562E+01
    0.99999954680626867987E+00
    0.99999974701545901734E+00
    0.10000003759344786580E+01
    0.99999957326815391845E+00
    0.99999969110741349088E+00
    0.10000003555564080937E+01
    0.99999953586569256814E+00
    0.99999976825930037005E+00
    0.10000003952556779652E+01
    0.99999963646462919353E+00
    0.10000008321507860565E+01
    0.10000008521187315758E+01
    0.99999969735007832039E+00
    0.10000003472846454855E+01
    0.99999952032610206487E+00
    0.99999967945001289049E+00
    0.10000003641499972673E+01
    0.99999952072411935067E+00
    0.99999969127595211837E+00
    0.10000003674845285850E+01
    0.99999955692919118011E+00
    0.99999978479363060835E+00
    0.10000004272723732601E+01
    0.99999966224140091064E+00
    0.10000008348734608088E+01
    0.10000008466746939106E+01
    0.99999825880073978102E+00
    0.99999296195241138552E+00
    0.99995281105234923302E+00
    0.99972877539505911049E+00
    0.99994156127791677946E+00
    0.99970095715731033259E+00
    0.99997126208042141915E+00
    0.99999665618266975198E+00
    0.99999917414408245886E+00
    0.99999964751753678271E+00
    0.99999987949593571734E+00
    0.99999936071411055227E+00