# vtk DataFile Version 3.0
LAPLACIEN  2D
ASCII
DATASET UNSTRUCTURED_GRID
 POINTS        1857  float
   3.1250000000000000E-002  0.93750000000000000        0.0000000000000000     
   6.2500000000000000E-002  0.93750000000000000        0.0000000000000000     
   6.2500000000000000E-002  0.96875000000000000        0.0000000000000000     
   1.8749999999999999E-002  0.95625000000000004        0.0000000000000000     
   4.0625000000000001E-002  0.95937499999999998        0.0000000000000000     
   4.3749999999999997E-002  0.98124999999999996        0.0000000000000000     
   2.1874999999999999E-002  0.97812500000000002        0.0000000000000000     
   9.3750000000000000E-002  0.93750000000000000        0.0000000000000000     
  0.12500000000000000       0.93750000000000000        0.0000000000000000     
  0.12500000000000000       0.96875000000000000        0.0000000000000000     
   8.1250000000000003E-002  0.95625000000000004        0.0000000000000000     
  0.10312499999999999       0.95937499999999998        0.0000000000000000     
  0.10625000000000000       0.98124999999999996        0.0000000000000000     
   8.4375000000000006E-002  0.97812500000000002        0.0000000000000000     
   3.1250000000000000E-002  0.87500000000000000        0.0000000000000000     
   6.2500000000000000E-002  0.87500000000000000        0.0000000000000000     
   6.2500000000000000E-002  0.90625000000000000        0.0000000000000000     
   1.8749999999999999E-002  0.89375000000000004        0.0000000000000000     
   4.0625000000000001E-002  0.89687499999999998        0.0000000000000000     
   4.3749999999999997E-002  0.91874999999999996        0.0000000000000000     
   2.1874999999999999E-002  0.91562500000000002        0.0000000000000000     
   9.3750000000000000E-002  0.87500000000000000        0.0000000000000000     
  0.12500000000000000       0.87500000000000000        0.0000000000000000     
  0.12500000000000000       0.90625000000000000        0.0000000000000000     
   8.1250000000000003E-002  0.89375000000000004        0.0000000000000000     
  0.10312499999999999       0.89687499999999998        0.0000000000000000     
  0.10625000000000000       0.91874999999999996        0.0000000000000000     
   8.4375000000000006E-002  0.91562500000000002        0.0000000000000000     
  0.15625000000000000       0.93750000000000000        0.0000000000000000     
  0.18750000000000000       0.93750000000000000        0.0000000000000000     
  0.18750000000000000       0.96875000000000000        0.0000000000000000     
  0.14374999999999999       0.95625000000000004        0.0000000000000000     
  0.16562499999999999       0.95937499999999998        0.0000000000000000     
  0.16875000000000001       0.98124999999999996        0.0000000000000000     
  0.14687500000000001       0.97812500000000002        0.0000000000000000     
  0.21875000000000000       0.93750000000000000        0.0000000000000000     
  0.25000000000000000       0.93750000000000000        0.0000000000000000     
  0.25000000000000000       0.96875000000000000        0.0000000000000000     
  0.20624999999999999       0.95625000000000004        0.0000000000000000     
  0.22812499999999999       0.95937499999999998        0.0000000000000000     
  0.23125000000000001       0.98124999999999996        0.0000000000000000     
  0.20937500000000001       0.97812500000000002        0.0000000000000000     
  0.15625000000000000       0.87500000000000000        0.0000000000000000     
  0.18750000000000000       0.87500000000000000        0.0000000000000000     
  0.18750000000000000       0.90625000000000000        0.0000000000000000     
  0.14374999999999999       0.89375000000000004        0.0000000000000000     
  0.16562499999999999       0.89687499999999998        0.0000000000000000     
  0.16875000000000001       0.91874999999999996        0.0000000000000000     
  0.14687500000000001       0.91562500000000002        0.0000000000000000     
  0.21875000000000000       0.87500000000000000        0.0000000000000000     
  0.25000000000000000       0.87500000000000000        0.0000000000000000     
  0.25000000000000000       0.90625000000000000        0.0000000000000000     
  0.20624999999999999       0.89375000000000004        0.0000000000000000     
  0.22812499999999999       0.89687499999999998        0.0000000000000000     
  0.23125000000000001       0.91874999999999996        0.0000000000000000     
  0.20937500000000001       0.91562500000000002        0.0000000000000000     
   3.1250000000000000E-002  0.81250000000000000        0.0000000000000000     
   6.2500000000000000E-002  0.81250000000000000        0.0000000000000000     
   6.2500000000000000E-002  0.84375000000000000        0.0000000000000000     
   1.8749999999999999E-002  0.83125000000000004        0.0000000000000000     
   4.0625000000000001E-002  0.83437499999999998        0.0000000000000000     
   4.3749999999999997E-002  0.85624999999999996        0.0000000000000000     
   2.1874999999999999E-002  0.85312500000000002        0.0000000000000000     
   9.3750000000000000E-002  0.81250000000000000        0.0000000000000000     
  0.12500000000000000       0.81250000000000000        0.0000000000000000     
  0.12500000000000000       0.84375000000000000        0.0000000000000000     
   8.1250000000000003E-002  0.83125000000000004        0.0000000000000000     
  0.10312499999999999       0.83437499999999998        0.0000000000000000     
  0.10625000000000000       0.85624999999999996        0.0000000000000000     
   8.4375000000000006E-002  0.85312500000000002        0.0000000000000000     
   3.1250000000000000E-002  0.75000000000000000        0.0000000000000000     
   6.2500000000000000E-002  0.75000000000000000        0.0000000000000000     
   6.2500000000000000E-002  0.78125000000000000        0.0000000000000000     
   1.8749999999999999E-002  0.76875000000000004        0.0000000000000000     
   4.0625000000000001E-002  0.77187499999999998        0.0000000000000000     
   4.3749999999999997E-002  0.79374999999999996        0.0000000000000000     
   2.1874999999999999E-002  0.79062500000000002        0.0000000000000000     
   9.3750000000000000E-002  0.75000000000000000        0.0000000000000000     
  0.12500000000000000       0.75000000000000000        0.0000000000000000     
  0.12500000000000000       0.78125000000000000        0.0000000000000000     
   8.1250000000000003E-002  0.76875000000000004        0.0000000000000000     
  0.10312499999999999       0.77187499999999998        0.0000000000000000     
  0.10625000000000000       0.79374999999999996        0.0000000000000000     
   8.4375000000000006E-002  0.79062500000000002        0.0000000000000000     
  0.15625000000000000       0.81250000000000000        0.0000000000000000     
  0.18750000000000000       0.81250000000000000        0.0000000000000000     
  0.18750000000000000       0.84375000000000000        0.0000000000000000     
  0.14374999999999999       0.83125000000000004        0.0000000000000000     
  0.16562499999999999       0.83437499999999998        0.0000000000000000     
  0.16875000000000001       0.85624999999999996        0.0000000000000000     
  0.14687500000000001       0.85312500000000002        0.0000000000000000     
  0.21875000000000000       0.81250000000000000        0.0000000000000000     
  0.25000000000000000       0.81250000000000000        0.0000000000000000     
  0.25000000000000000       0.84375000000000000        0.0000000000000000     
  0.20624999999999999       0.83125000000000004        0.0000000000000000     
  0.22812499999999999       0.83437499999999998        0.0000000000000000     
  0.23125000000000001       0.85624999999999996        0.0000000000000000     
  0.20937500000000001       0.85312500000000002        0.0000000000000000     
  0.15625000000000000       0.75000000000000000        0.0000000000000000     
  0.18750000000000000       0.75000000000000000        0.0000000000000000     
  0.18750000000000000       0.78125000000000000        0.0000000000000000     
  0.14374999999999999       0.76875000000000004        0.0000000000000000     
  0.16562499999999999       0.77187499999999998        0.0000000000000000     
  0.16875000000000001       0.79374999999999996        0.0000000000000000     
  0.14687500000000001       0.79062500000000002        0.0000000000000000     
  0.21875000000000000       0.75000000000000000        0.0000000000000000     
  0.25000000000000000       0.75000000000000000        0.0000000000000000     
  0.25000000000000000       0.78125000000000000        0.0000000000000000     
  0.20624999999999999       0.76875000000000004        0.0000000000000000     
  0.22812499999999999       0.77187499999999998        0.0000000000000000     
  0.23125000000000001       0.79374999999999996        0.0000000000000000     
  0.20937500000000001       0.79062500000000002        0.0000000000000000     
  0.28125000000000000       0.93750000000000000        0.0000000000000000     
  0.31250000000000000       0.93750000000000000        0.0000000000000000     
  0.31250000000000000       0.96875000000000000        0.0000000000000000     
  0.26874999999999999       0.95625000000000004        0.0000000000000000     
  0.29062500000000002       0.95937499999999998        0.0000000000000000     
  0.29375000000000001       0.98124999999999996        0.0000000000000000     
  0.27187499999999998       0.97812500000000002        0.0000000000000000     
  0.34375000000000000       0.93750000000000000        0.0000000000000000     
  0.37500000000000000       0.93750000000000000        0.0000000000000000     
  0.37500000000000000       0.96875000000000000        0.0000000000000000     
  0.33124999999999999       0.95625000000000004        0.0000000000000000     
  0.35312500000000002       0.95937499999999998        0.0000000000000000     
  0.35625000000000001       0.98124999999999996        0.0000000000000000     
[...]
 CELL_DATA        3584
 SCALARS Cells_density float
 LOOKUP_TABLE default
    0.99999760862266495742E+00
    0.99999938139998545417E+00
    0.99999922455644207897E+00
    0.99999938441804303579E+00
    0.99999940732364334117E+00
    0.99999726981584402541E+00
    0.99999949490448825085E+00
    0.99999860780238936098E+00
    0.99999941355266808163E+00
    0.99999965680215674446E+00
    0.99999880035668953226E+00
    0.99999953566736499155E+00
    0.99999998696204328574E+00
    0.99999996846162253483E+00
    0.99999946577437304196E+00
    0.10000002006884389782E+01
    0.99999940662714281725E+00
    0.99999948775872182782E+00
    0.99999955053114697456E+00
    0.99999734724936883978E+00
    0.99999963398990199259E+00
    0.99999879166601046698E+00
    0.99999947734616601025E+00
    0.99999765134619900131E+00
    0.99999962682522580693E+00
    0.99999933313178457350E+00
    0.10000005836165370976E+01
    0.10000001848120361192E+01
    0.99999767986843857148E+00
    0.99999951281493837385E+00
    0.99999932457491969018E+00
    0.99999961472329079726E+00
    0.10000002775003244970E+01
    0.99999942164338773143E+00
    0.99999941674749448506E+00
    0.99999952552779480808E+00
    0.99999746784409038192E+00
    0.99999956912542642407E+00
    0.99999889867656255316E+00
    0.99999965662577483538E+00
    0.10000001485936873546E+01
    0.10000006092137860847E+01
    0.99999956439682935461E+00
    0.10000003203107596939E+01
    0.99999943051403794581E+00
    0.99999963899956978430E+00
    0.10000003465505171718E+01
    0.99999943910579525141E+00
    0.99999960231149231937E+00
    0.10000003056199624485E+01
    0.99999936504913000679E+00
    0.99999966191065414733E+00
    0.10000003646270547719E+01
    0.99999951937493769538E+00
    0.10000010946687754032E+01
    0.10000011141106848189E+01
    0.99999950510583479613E+00
    0.10000002322722938430E+01
    0.99999941659593494236E+00
    0.99999949399125354077E+00
    0.99999957430578956252E+00
    0.99999735242633147614E+00
    0.99999964263742591175E+00
    0.99999882475107171320E+00
    0.99999950916917157429E+00
    0.99999770127718978774E+00
    0.99999968379893722226E+00
    0.99999940103765960764E+00
    0.10000007405477986389E+01
    0.10000003405010171598E+01
    0.99999950670432569133E+00
    0.10000002321365990543E+01
    0.99999941687910187671E+00
    0.99999949414993338781E+00
    0.99999957486805379769E+00
    0.99999735254863153511E+00
    0.99999964281967190782E+00
    0.99999882626102765126E+00
    0.99999951058634672929E+00
    0.99999770412314881174E+00
    0.99999968670635042134E+00
    0.99999940440312629075E+00
    0.10000007422217376263E+01
    0.10000003429970261148E+01
    0.99999958599238658596E+00
    0.10000003356765863050E+01
    0.99999943975815064334E+00
    0.99999964489915627031E+00
    0.10000003550792737617E+01
    0.99999944429666121071E+00
    0.99999961188777641841E+00
    0.10000003267644490546E+01
    0.99999939769540202583E+00
    0.99999965054071127124E+00
    0.10000003976399356453E+01
    0.99999955275672580690E+00
    0.10000011158981507720E+01
    0.10000011315144563540E+01
    0.99999958759571383471E+00
    0.10000003359244193923E+01
    0.99999944004358476413E+00
    0.99999964501966143171E+00
    0.10000003547348448318E+01
    0.99999944458499734345E+00
    0.99999961213013344175E+00
    0.10000003288416521308E+01
    0.99999939953416128180E+00
    0.99999965379637434371E+00
    0.10000004005957754405E+01
    0.99999955633585113635E+00
    0.10000011156070063301E+01
    0.10000011315101295928E+01
    0.99999768371351938079E+00
    0.99999951945456622138E+00
    0.99999932934809387941E+00
    0.99999962262617081432E+00
    0.10000002903023474943E+01
    0.99999945592257033500E+00
    0.99999941734660413584E+00
    0.99999955499716119967E+00
    0.99999751290787164404E+00
    0.99999959756166145741E+00
    0.99999891396262863275E+00
    0.99999966356189529115E+00
    0.10000001613401310330E+01
    0.10000006223678670203E+01
    0.99999956891667174386E+00
    0.10000003288520658007E+01
    0.99999943580898387196E+00
    0.99999964783413564096E+00
    0.10000003662061640597E+01
    0.99999946557765051480E+00
    0.99999957550296958431E+00
    0.10000003385350662022E+01
    0.99999942440278677402E+00
    0.99999970267054472117E+00
    0.10000003859248962623E+01
    0.99999952779213807652E+00
    0.10000011224862437320E+01
    0.10000011460318194434E+01
    0.99999768378056241858E+00
    0.99999951946997944763E+00
    0.99999932944083802511E+00
    0.99999962281802190489E+00
    0.10000002901839439851E+01
    0.99999945725102756811E+00
    0.99999942019978427243E+00
    0.99999955715938038114E+00
    0.99999751536340353297E+00
    0.99999959877520638862E+00
    0.99999891488372993908E+00
    0.99999966366546844121E+00
    0.10000001614459526067E+01
    0.10000006222443922344E+01
    0.99999956918568488895E+00
    0.10000003284793828051E+01
    0.99999943590686724004E+00
    0.99999964807725372218E+00
    0.10000003663496863648E+01
    0.99999946694435437600E+00
    0.99999957863001665004E+00
    0.10000003412077358433E+01
    0.99999942722507473292E+00
    0.99999970426930839817E+00
    0.10000003879083387837E+01
    0.99999952798738955817E+00
    0.10000011224289966361E+01
    0.10000011456515174313E+01
    0.99999959080592260019E+00
    0.10000003430011958905E+01
    0.99999944510577298828E+00
    0.99999965378186239651E+00
    0.10000003734758127205E+01
    0.99999947098673624968E+00
    0.99999958518824438869E+00
    0.10000003584476413465E+01
    0.99999944725269729329E+00
    0.99999968527883376090E+00
    0.10000004183577273498E+01
    0.99999956164283776427E+00
    0.10000011314153831599E+01
    0.10000011510489390520E+01
    0.99999959236260493878E+00
    0.10000003426139008056E+01
    0.99999944506752147522E+00
    0.99999965364118026390E+00
    0.10000003724368080604E+01
    0.99999947147095524791E+00
    0.99999958542029132591E+00
    0.10000003621590718428E+01
    0.99999944942991303432E+00
    0.99999968898331270672E+00
    0.10000004223464964426E+01
    0.99999956524301514271E+00
    0.10000011299622884042E+01
    0.10000011503193311224E+01
    0.99999959127231929923E+00
    0.10000003419219321010E+01
    0.99999944493967463099E+00
    0.99999965369874910248E+00
    0.10000003729739508351E+01
    0.99999947230528163367E+00
    0.99999958833635615996E+00
    0.10000003621518096519E+01
    0.99999945055897276891E+00
    0.99999968721926046911E+00
    0.10000004219610234557E+01
    0.99999956183180294111E+00
    0.10000011305934668471E+01
    0.10000011494684952762E+01
    0.99999958628764551438E+00
    0.10000003240202051114E+01
    0.99999932804055968738E+00
    0.99999955339041957103E+00
    0.10000003544329210126E+01
    0.99999946618981250257E+00
    0.99999958742906880360E+00
    0.10000003674421862332E+01
    0.99999945315799809720E+00
    0.99999969134494515188E+00
    0.10000004275309728463E+01
    0.99999956429242264910E+00
    0.10000011241399686668E+01
    0.10000011436942652931E+01
    0.99999950661489322989E+00
    0.10000002320382890275E+01
    0.99999941689114846266E+00
    0.99999949413045707836E+00
    0.99999957482281698340E+00
    0.99999735254188759637E+00
    0.99999964280949871220E+00
    0.99999882670712980648E+00
    0.99999951062062397700E+00
    0.99999770430180345837E+00
    0.99999968705335140484E+00
    0.99999940442015433639E+00
    0.10000007419486560689E+01
    0.10000003431137409748E+01
    0.99999950641310209054E+00
    0.10000002320076259998E+01
    0.99999941689804139333E+00
    0.99999949409420763047E+00
    0.99999957470489697631E+00
    0.99999735267478806477E+00
    0.99999964288965681458E+00
    0.99999882703235776216E+00
    0.99999951065863201816E+00
    0.99999770428312662052E+00
    0.99999968678412820555E+00
    0.99999940440305246092E+00
    0.10000007415334641880E+01
    0.10000003433792195029E+01
    0.99999958734541105621E+00
    0.10000003354705144787E+01
    0.99999944004662633112E+00
    0.99999964496692839155E+00
    0.10000003541162199028E+01
    0.99999944490552550302E+00
    0.99999961211480936640E+00
    0.10000003307218383597E+01
    0.99999939973994611542E+00
    0.99999965422381209557E+00
    0.10000004010176657410E+01
    0.99999955637772641737E+00
    0.10000011141703393225E+01
    0.10000011312655299189E+01
    0.99999958700729496552E+00
    0.10000003346630643719E+01
    0.99999943953979664180E+00
    0.99999964470242541648E+00
    0.10000003535733716920E+01
    0.99999944530612550064E+00
    0.99999961232873513239E+00
    0.10000003324322286336E+01
    0.99999939980408469875E+00
    0.99999965459471118479E+00
    0.10000004005445779498E+01
    0.99999955630938408557E+00
    0.10000011126731380706E+01
    0.10000011315084709196E+01
    0.99999950636825496453E+00
    0.10000002318576299842E+01
    0.99999941690168603348E+00
    0.99999949405273280689E+00
    0.99999957468231182034E+00
    0.99999735284525270718E+00
    0.99999964305743660464E+00
    0.99999882719737864800E+00
    0.99999951072130366381E+00
    0.99999770409606447696E+00
    0.99999968601174404892E+00
    0.99999940438675538612E+00
    0.10000007412444871235E+01
    0.10000003439267379779E+01
    0.99999950633654421939E+00
    0.10000002318057215067E+01
    0.99999941690141358475E+00
    0.99999949401454313325E+00
    0.99999957475863876510E+00
    0.99999735301840242396E+00
    0.99999964326695345296E+00
    0.99999882718006971594E+00
    0.99999951075925119781E+00
    0.99999770381780672679E+00
    0.99999968488832657876E+00
    0.99999940437507817137E+00
    0.10000007411462861207E+01
    0.10000003446460437040E+01
    0.99999958512981046432E+00
    0.10000003333549962736E+01
    0.99999943722272244262E+00
    0.99999964384794326477E+00
    0.10000003531524817024E+01
    0.99999944567711007704E+00
    0.99999961263141723400E+00
    0.10000003336630527428E+01
    0.99999939971491713653E+00
    0.99999965484219399681E+00
    0.10000003991445094442E+01
    0.99999955594389167146E+00
    0.10000011114116447164E+01
    0.10000011321706057110E+01
    0.99999958050667225873E+00
    0.10000003316969003908E+01
    0.99999943426551984871E+00
    0.99999964299348065300E+00
    0.10000003530016721154E+01
    0.99999944596014744835E+00
    0.99999961293371208981E+00
    0.10000003341840655313E+01
    0.99999939948918059596E+00
    0.99999965489431896781E+00
    0.10000003970998792013E+01
    0.99999955497511761049E+00
    0.10000011106214936607E+01
    0.10000011330773357354E+01
    0.99999958760290974524E+00
    0.10000003372632797483E+01
    0.99999942820369558394E+00
    0.99999964344508174285E+00
    0.10000003687738530100E+01
    0.99999947149737478114E+00
    0.99999958545792844156E+00
    0.10000003660875185219E+01
    0.99999944988928446410E+00
    0.99999968986300802332E+00
    0.10000004231431447455E+01
    0.99999956454611405032E+00
    0.10000011257723748770E+01
    0.10000011488629099166E+01
    0.99999951016650612257E+00
    0.10000003138147697257E+01
    0.99999921658246671008E+00
    0.99999958640288055811E+00
    0.10000003688630278997E+01
    0.99999946497418223945E+00
    0.99999958426870227957E+00
    0.10000003671506529912E+01
    0.99999944948361008112E+00
    0.99999968951474937917E+00
    0.10000004143684482205E+01
    0.99999954453655504061E+00
    0.10000011091329104040E+01
    0.10000011408774303057E+01
    0.99999148863007869537E+00
    0.99999037884160135725E+00
    0.99990780279654944973E+00
    0.99998086310951106448E+00
    0.99999845084503458104E+00
    0.99999914099158715430E+00
    0.99999954251975187169E+00
    0.10000003414149900571E+01
    0.99999944231214799029E+00
    0.99999967468943107285E+00
    0.10000002971675336916E+01
    0.99999892662051281800E+00
    0.10000001921628973722E+01
    0.10000007699544388728E+01
    0.99944712303291582955E+00
    0.99987222423806143556E+00
    0.99941386499307172109E+00
    0.99989329468382548427E+00
    0.99998415948512575646E+00
    0.99999578524183385664E+00
    0.99999877892829369674E+00
    0.99999924884441149242E+00
    0.99999918593294156999E+00
    0.99999900299939814552E+00
    0.99999335507840969584E+00
    0.99994588709036524854E+00
    0.99998609291211071337E+00
    0.99999506013161720830E+00
    0.99999865951876487635E+00
    0.99999994995887953042E+00
    0.99999788523394073092E+00
    0.99999912127065548884E+00
    0.10000002862537922255E+01
    0.99999944171474819399E+00
    0.99999958056750382074E+00
    0.10000003536154775663E+01
    0.99999944450816602437E+00
    0.99999967939868561473E+00
    0.10000003868035196586E+01
    0.99999940137536524887E+00
    0.10000010041828406582E+01
    0.10000010823833223039E+01
    0.99999614832550087762E+00
    0.99999903906698162093E+00
    0.99999603798621616857E+00
    0.99999856084091975905E+00
    0.10000001492884234011E+01
    0.99999941827505445247E+00
    0.99999957366217728794E+00
    0.10000003621162336653E+01
    0.99999943113377653958E+00
    0.99999964736590030157E+00
    0.10000002733079618178E+01
    0.99999881465190587626E+00
    0.10000008036941838707E+01
    0.10000010020302312341E+01
    0.99909866434185667927E+00
    0.99972468567267525064E+00
    0.99907938350256952909E+00
    0.99973868316512604082E+00
    0.99993910921075679354E+00
    0.99998289303676568540E+00
    0.99999504663878469035E+00
    0.99999213723034441337E+00
    0.99999696163099904833E+00
    0.99999451041416764774E+00
    0.99997025620573765092E+00
    0.99987150980434669201E+00
    0.99994724200506612810E+00
    0.99997012231153270534E+00
    0.99847840524977837795E+00
    0.99944521494684268603E+00
    0.99859742464760248293E+00
    0.99956465886641354679E+00
    0.99988307823946243058E+00
    0.99997016368009072895E+00
    0.99999012879880821991E+00
    0.99997836728156253017E+00
    0.99999087003205577862E+00
    0.99997985546486556352E+00
    0.99990561604161143361E+00
    0.99968338833042313940E+00
    0.99986580484861642404E+00
    0.99992328304895783386E+00
    0.99999768377022568711E+00
    0.99999951938908360205E+00
    0.99999932941658953300E+00
    0.99999962282478438436E+00
    0.10000002900296798281E+01
    0.99999945705112125438E+00
    0.99999942017963416863E+00
    0.99999955746610591500E+00
    0.99999751553589943942E+00
    0.99999959880404087897E+00
    0.99999891529340123597E+00
    0.99999966365056991435E+00
    0.10000001614081635015E+01
    0.10000006218144197323E+01
    0.99999956950548962720E+00
    0.10000003278590947620E+01
    0.99999943585230166576E+00
    0.99999964807852437243E+00
    0.10000003658930787243E+01
    0.99999946668802075500E+00
    0.99999957865860511497E+00
    0.10000003416221057151E+01
    0.99999942763276394864E+00
    0.99999970437844021287E+00
    0.10000003897680027620E+01
    0.99999952796879720829E+00
    0.10000011221804738781E+01
    0.10000011442116212290E+01
    0.99999768390308718669E+00
    0.99999951927125563245E+00
    0.99999932938057622955E+00
    0.99999962283161636378E+00
    0.10000002899990636518E+01
    0.99999945684898416953E+00
    0.99999942016154541591E+00
    0.99999955719686695055E+00
    0.99999751551646354208E+00
    0.99999959884187217263E+00
    0.99999891561859788336E+00
    0.99999966373078152948E+00
    0.10000001616737701493E+01
    0.10000006213994876436E+01
    0.99999956990610283647E+00
    0.10000003273165303241E+01
    0.99999943558841974944E+00
    0.99999964757210257904E+00
    0.10000003650853619419E+01
    0.99999946634945013901E+00
    0.99999957858935506483E+00
    0.10000003411488842531E+01
    0.99999942800311403257E+00
    0.99999970444260510849E+00
    0.10000003914784654224E+01
    0.99999952818284421063E+00
    0.10000011224233060769E+01
    0.10000011427136863418E+01
    0.99999959129606452723E+00
    0.10000003382229591953E+01
    0.99999943521976442096E+00
    0.99999964610197322745E+00
    0.10000003673792994263E+01
    0.99999946749881485353E+00
    0.99999958762346663477E+00
    0.10000003629414764283E+01
    0.99999945143674950909E+00
    0.99999968767425484462E+00
    0.10000004258864632067E+01
    0.99999956186737748443E+00
    0.10000011291298138705E+01
    0.10000011452418742230E+01
    0.99999928308809504784E+00
    0.99999844119132974551E+00
    0.99998059260881932975E+00
    0.99990799458855128545E+00
    0.99999037963585679645E+00
    0.99999133772238091300E+00
    0.99999894389849897092E+00
    0.10000002400729073315E+01
    0.99999943682905245712E+00
    0.99999968029281027793E+00
    0.10000004014573402600E+01
    0.99999952024089300284E+00
    0.10000007476957137875E+01
    0.10000002015403965938E+01
    0.99999958479393957766E+00
    0.10000003330879141394E+01
    0.99999933344336544572E+00
    0.99999942772151584336E+00
    0.10000003391469587388E+01
    0.99999936795119348520E+00
    0.99999957537483874503E+00
    0.10000003546846922831E+01
    0.99999945109682109035E+00
    0.99999968727565813342E+00
    0.10000004270470184142E+01
    0.99999956068904016782E+00
    0.10000011183777948176E+01
    0.10000011257350056582E+01
    0.99999594718860596032E+00
    0.99998416231243392183E+00
    0.99989300436765460312E+00
    0.99941403686434826525E+00
    0.99987220783252750422E+00
    0.99944697071792487630E+00
    0.99994586519706907257E+00
    0.99999327187502096148E+00
    0.99999882606251555561E+00
    0.99999943360331766673E+00
    0.99999931328101188122E+00
    0.99999877492538802315E+00
    0.99999504095831193151E+00
    0.99998608870837157880E+00
    0.99999768407366174117E+00
    0.99999951924887686694E+00
    0.99999932933919755129E+00
    0.99999962283500987148E+00
    0.10000002898490998327E+01
    0.99999945680424984218E+00
    0.99999942014523834910E+00
    0.99999955642434035230E+00
    0.99999751532936986820E+00
    0.99999959890450029754E+00
    0.99999891578353650168E+00
    0.99999966389837391390E+00
    0.10000001622213925412E+01
    0.10000006211104306431E+01
    0.99999957027708519242E+00
    0.10000003268958728153E+01
    0.99999943473927055404E+00
    0.99999964512936645455E+00
    0.10000003637837320269E+01
    0.99999946447598797583E+00
    0.99999957822401563945E+00
    0.10000003397488901324E+01
    0.99999942825063148355E+00
    0.99999970435330998164E+00
    0.10000003927095331147E+01
    0.99999952848532736027E+00
    0.10000011230853043109E+01
    0.10000011414530609599E+01
    0.99999768424777146780E+00
    0.99999951932566399915E+00
    0.99999932930464885406E+00
    0.99999962283510479555E+00
    0.10000002897974589189E+01
    0.99999945677279267198E+00
    0.99999942013387643769E+00
    0.99999955530096273915E+00
    0.99999751505128742224E+00
    0.99999959894249346171E+00
    0.99999891576620070222E+00
    0.99999966410795537719E+00
    0.10000001629402717196E+01
    0.10000006210121747952E+01
    0.99999957056436106217E+00
    0.10000003267462769241E+01
    0.99999943388491163709E+00
    0.99999964192201973301E+00
    0.10000003620972024443E+01
    0.99999945927390698763E+00
    0.99999957722896881673E+00
    0.10000003377044626163E+01
    0.99999942830279830996E+00
    0.99999970412801486574E+00
    0.10000003932307821586E+01
    0.99999952878803810563E+00
    0.10000011239919719408E+01
    0.10000011406624671473E+01
    0.99999955852785971100E+00
    0.10000002660277877986E+01
    0.99999885998090776162E+00
    0.99999808078266272382E+00
    0.99999995807360253508E+00
    0.99999851414973783825E+00
    0.99999941297956962405E+00
    0.10000003273763478084E+01
    0.99999944159555342882E+00
    0.99999968235126912575E+00
    0.10000004132837421178E+01
    0.99999955378211846657E+00
    0.10000010569449926390E+01
    0.10000010165011823382E+01
    0.99998306425301497491E+00
    0.99993911693868031687E+00
    0.99973838540849169210E+00
    0.99907954911801977183E+00
    0.99972467067753145731E+00
    0.99909851907113234049E+00
    0.99987146869003240557E+00
    0.99997016474823718912E+00
    0.99999437536232638202E+00
    0.99999722756996167750E+00
    0.99999220563466895140E+00
    0.99999504714948916906E+00