# vtk DataFile Version 3.0
LAPLACIEN  2D
ASCII
DATASET UNSTRUCTURED_GRID
 POINTS        1857  float
   3.1250000000000000E-002  0.93750000000000000        0.0000000000000000     
   6.2500000000000000E-002  0.93750000000000000        0.0000000000000000     
   6.2500000000000000E-002  0.96875000000000000        0.0000000000000000     
   1.8749999999999999E-002  0.95625000000000004        0.0000000000000000     
   4.0625000000000001E-002  0.95937499999999998        0.0000000000000000     
   4.3749999999999997E-002  0.98124999999999996        0.0000000000000000     
   2.1874999999999999E-002  0.97812500000000002        0.0000000000000000     
   9.3750000000000000E-002  0.93750000000000000        0.0000000000000000     
  0.12500000000000000       0.93750000000000000        0.0000000000000000     
  0.12500000000000000       0.96875000000000000        0.0000000000000000     
   8.1250000000000003E-002  0.95625000000000004        0.0000000000000000     
  0.10312499999999999       0.95937499999999998        0.0000000000000000     
  0.10625000000000000       0.98124999999999996        0.0000000000000000     
   8.4375000000000006E-002  0.97812500000000002        0.0000000000000000     
   3.1250000000000000E-002  0.87500000000000000        0.0000000000000000     
   6.2500000000000000E-002  0.87500000000000000        0.0000000000000000     
   6.2500000000000000E-002  0.90625000000000000        0.0000000000000000     
   1.8749999999999999E-002  0.89375000000000004        0.0000000000000000     
   4.0625000000000001E-002  0.89687499999999998        0.0000000000000000     
   4.3749999999999997E-002  0.91874999999999996        0.0000000000000000     
   2.1874999999999999E-002  0.91562500000000002        0.0000000000000000     
   9.3750000000000000E-002  0.87500000000000000        0.0000000000000000     
  0.12500000000000000       0.87500000000000000        0.0000000000000000     
  0.12500000000000000       0.90625000000000000        0.0000000000000000     
   8.1250000000000003E-002  0.89375000000000004        0.0000000000000000     
  0.10312499999999999       0.89687499999999998        0.0000000000000000     
  0.10625000000000000       0.91874999999999996        0.0000000000000000     
   8.4375000000000006E-002  0.91562500000000002        0.0000000000000000     
  0.15625000000000000       0.93750000000000000        0.0000000000000000     
  0.18750000000000000       0.93750000000000000        0.0000000000000000     
  0.18750000000000000       0.96875000000000000        0.0000000000000000     
  0.14374999999999999       0.95625000000000004        0.0000000000000000     
  0.16562499999999999       0.95937499999999998        0.0000000000000000     
  0.16875000000000001       0.98124999999999996        0.0000000000000000     
  0.14687500000000001       0.97812500000000002        0.0000000000000000     
  0.21875000000000000       0.93750000000000000        0.0000000000000000     
  0.25000000000000000       0.93750000000000000        0.0000000000000000     
  0.25000000000000000       0.96875000000000000        0.0000000000000000     
  0.20624999999999999       0.95625000000000004        0.0000000000000000     
  0.22812499999999999       0.95937499999999998        0.0000000000000000     
  0.23125000000000001       0.98124999999999996        0.0000000000000000     
  0.20937500000000001       0.97812500000000002        0.0000000000000000     
  0.15625000000000000       0.87500000000000000        0.0000000000000000     
  0.18750000000000000       0.87500000000000000        0.0000000000000000     
  0.18750000000000000       0.90625000000000000        0.0000000000000000     
  0.14374999999999999       0.89375000000000004        0.0000000000000000     
  0.16562499999999999       0.89687499999999998        0.0000000000000000     
  0.16875000000000001       0.91874999999999996        0.0000000000000000     
  0.14687500000000001       0.91562500000000002        0.0000000000000000     
  0.21875000000000000       0.87500000000000000        0.0000000000000000     
  0.25000000000000000       0.87500000000000000        0.0000000000000000     
  0.25000000000000000       0.90625000000000000        0.0000000000000000     
  0.20624999999999999       0.89375000000000004        0.0000000000000000     
  0.22812499999999999       0.89687499999999998        0.0000000000000000     
  0.23125000000000001       0.91874999999999996        0.0000000000000000     
  0.20937500000000001       0.91562500000000002        0.0000000000000000     
   3.1250000000000000E-002  0.81250000000000000        0.0000000000000000     
   6.2500000000000000E-002  0.81250000000000000        0.0000000000000000     
   6.2500000000000000E-002  0.84375000000000000        0.0000000000000000     
   1.8749999999999999E-002  0.83125000000000004        0.0000000000000000     
   4.0625000000000001E-002  0.83437499999999998        0.0000000000000000     
   4.3749999999999997E-002  0.85624999999999996        0.0000000000000000     
   2.1874999999999999E-002  0.85312500000000002        0.0000000000000000     
   9.3750000000000000E-002  0.81250000000000000        0.0000000000000000     
  0.12500000000000000       0.81250000000000000        0.0000000000000000     
  0.12500000000000000       0.84375000000000000        0.0000000000000000     
   8.1250000000000003E-002  0.83125000000000004        0.0000000000000000     
  0.10312499999999999       0.83437499999999998        0.0000000000000000     
  0.10625000000000000       0.85624999999999996        0.0000000000000000     
   8.4375000000000006E-002  0.85312500000000002        0.0000000000000000     
   3.1250000000000000E-002  0.75000000000000000        0.0000000000000000     
   6.2500000000000000E-002  0.75000000000000000        0.0000000000000000     
   6.2500000000000000E-002  0.78125000000000000        0.0000000000000000     
   1.8749999999999999E-002  0.76875000000000004        0.0000000000000000     
   4.0625000000000001E-002  0.77187499999999998        0.0000000000000000     
   4.3749999999999997E-002  0.79374999999999996        0.0000000000000000     
   2.1874999999999999E-002  0.79062500000000002        0.0000000000000000     
   9.3750000000000000E-002  0.75000000000000000        0.0000000000000000     
  0.12500000000000000       0.75000000000000000        0.0000000000000000     
  0.12500000000000000       0.78125000000000000        0.0000000000000000     
   8.1250000000000003E-002  0.76875000000000004        0.0000000000000000     
  0.10312499999999999       0.77187499999999998        0.0000000000000000     
  0.10625000000000000       0.79374999999999996        0.0000000000000000     
   8.4375000000000006E-002  0.79062500000000002        0.0000000000000000     
  0.15625000000000000       0.81250000000000000        0.0000000000000000     
  0.18750000000000000       0.81250000000000000        0.0000000000000000     
  0.18750000000000000       0.84375000000000000        0.0000000000000000     
  0.14374999999999999       0.83125000000000004        0.0000000000000000     
  0.16562499999999999       0.83437499999999998        0.0000000000000000     
  0.16875000000000001       0.85624999999999996        0.0000000000000000     
  0.14687500000000001       0.85312500000000002        0.0000000000000000     
  0.21875000000000000       0.81250000000000000        0.0000000000000000     
  0.25000000000000000       0.81250000000000000        0.0000000000000000     
  0.25000000000000000       0.84375000000000000        0.0000000000000000     
  0.20624999999999999       0.83125000000000004        0.0000000000000000     
  0.22812499999999999       0.83437499999999998        0.0000000000000000     
  0.23125000000000001       0.85624999999999996        0.0000000000000000     
  0.20937500000000001       0.85312500000000002        0.0000000000000000     
  0.15625000000000000       0.75000000000000000        0.0000000000000000     
  0.18750000000000000       0.75000000000000000        0.0000000000000000     
  0.18750000000000000       0.78125000000000000        0.0000000000000000     
  0.14374999999999999       0.76875000000000004        0.0000000000000000     
  0.16562499999999999       0.77187499999999998        0.0000000000000000     
  0.16875000000000001       0.79374999999999996        0.0000000000000000     
  0.14687500000000001       0.79062500000000002        0.0000000000000000     
  0.21875000000000000       0.75000000000000000        0.0000000000000000     
  0.25000000000000000       0.75000000000000000        0.0000000000000000     
  0.25000000000000000       0.78125000000000000        0.0000000000000000     
  0.20624999999999999       0.76875000000000004        0.0000000000000000     
  0.22812499999999999       0.77187499999999998        0.0000000000000000     
  0.23125000000000001       0.79374999999999996        0.0000000000000000     
  0.20937500000000001       0.79062500000000002        0.0000000000000000     
  0.28125000000000000       0.93750000000000000        0.0000000000000000     
  0.31250000000000000       0.93750000000000000        0.0000000000000000     
  0.31250000000000000       0.96875000000000000        0.0000000000000000     
  0.26874999999999999       0.95625000000000004        0.0000000000000000     
  0.29062500000000002       0.95937499999999998        0.0000000000000000     
  0.29375000000000001       0.98124999999999996        0.0000000000000000     
  0.27187499999999998       0.97812500000000002        0.0000000000000000     
  0.34375000000000000       0.93750000000000000        0.0000000000000000     
  0.37500000000000000       0.93750000000000000        0.0000000000000000     
  0.37500000000000000       0.96875000000000000        0.0000000000000000     
  0.33124999999999999       0.95625000000000004        0.0000000000000000     
  0.35312500000000002       0.95937499999999998        0.0000000000000000     
  0.35625000000000001       0.98124999999999996        0.0000000000000000     
[...]
 CELL_DATA        3584
 SCALARS Cells_density float
 LOOKUP_TABLE default
    0.99999577705968412111E+00
    0.99999821767873942058E+00
    0.99999821151855450285E+00
    0.99999833825615280780E+00
    0.99999821795443100125E+00
    0.99999549508521612395E+00
    0.99999838531152629439E+00
    0.99999737298596058643E+00
    0.99999863035447245085E+00
    0.99999892604339724045E+00
    0.99999764353368403302E+00
    0.99999849840034304993E+00
    0.10000004266550996945E+01
    0.10000003904747296612E+01
    0.99999870245158939408E+00
    0.10000000035039293689E+01
    0.99999871547017327167E+00
    0.99999860582968436162E+00
    0.99999853938927085739E+00
    0.99999555713195031892E+00
    0.99999862011428530817E+00
    0.99999762524453550405E+00
    0.99999837436928906698E+00
    0.99999593770045691610E+00
    0.99999867721475943494E+00
    0.99999832110649833350E+00
    0.10000016610811663931E+01
    0.10000009932129101387E+01
    0.99999592886401600378E+00
    0.99999851387761273802E+00
    0.99999844035748064464E+00
    0.99999893637910763911E+00
    0.10000000944897271538E+01
    0.99999882159001651782E+00
    0.99999848414464109769E+00
    0.99999857964130767218E+00
    0.99999568313287467980E+00
    0.99999849828793585527E+00
    0.99999777432215097850E+00
    0.99999869578657640812E+00
    0.10000009648439174281E+01
    0.10000016566202234447E+01
    0.99999890667667568067E+00
    0.10000000217093780730E+01
    0.99999878214765192119E+00
    0.99999902247686722756E+00
    0.10000000602984204789E+01
    0.99999876671760346003E+00
    0.99999892809457435749E+00
    0.99999999942731665481E+00
    0.99999868169293748554E+00
    0.99999911046054001940E+00
    0.10000001321015659084E+01
    0.99999884926883608749E+00
    0.10000024987127451581E+01
    0.10000025123261935267E+01
    0.99999879670537739074E+00
    0.10000001661735815617E+01
    0.99999876743673077328E+00
    0.99999864846120056772E+00
    0.99999867746408799274E+00
    0.99999559688637962296E+00
    0.99999867509808937349E+00
    0.99999778770942360229E+00
    0.99999846968554373383E+00
    0.99999597365644377067E+00
    0.99999888263141933908E+00
    0.99999850311869964425E+00
    0.10000020943651228844E+01
    0.10000014153288674379E+01
    0.99999883416529455893E+00
    0.10000001736688830523E+01
    0.99999876910028262511E+00
    0.99999864940158722515E+00
    0.99999867948429776998E+00
    0.99999559843645779988E+00
    0.99999867753588378427E+00
    0.99999779516811559965E+00
    0.99999847998327462406E+00
    0.99999599375411551971E+00
    0.99999889846044476283E+00
    0.99999852813766620940E+00
    0.10000020991836500173E+01
    0.10000014191003683273E+01
    0.99999895840147778880E+00
    0.10000000664377071136E+01
    0.99999880801469254177E+00
    0.99999903314757998540E+00
    0.10000000902739263342E+01
    0.99999881617241281884E+00
    0.99999896882738570358E+00
    0.10000000495507113119E+01
    0.99999875304221774730E+00
    0.99999903847627114040E+00
    0.10000001506733788847E+01
    0.99999892818694313679E+00
    0.10000025428491339241E+01
    0.10000025550557407605E+01
    0.99999893267431061439E+00
    0.10000000288378332325E+01
    0.99999871763498870969E+00
    0.99999899293839111802E+00
    0.10000000671919628825E+01
    0.99999880821547892928E+00
    0.99999896961668000017E+00
    0.10000000731813059041E+01
    0.99999884060175914247E+00
    0.99999913125997352825E+00
    0.10000001711751627109E+01
    0.99999892229561981871E+00
    0.10000025310492959285E+01
    0.10000025478251024502E+01
    0.99999594583537165793E+00
    0.99999853791273363157E+00
    0.99999846059887953498E+00
    0.99999896568719881529E+00
    0.10000001400849667377E+01
    0.99999889051550305830E+00
    0.99999853020014828342E+00
    0.99999864644595259922E+00
    0.99999578634307073610E+00
    0.99999857093631860927E+00
    0.99999781990306146895E+00
    0.99999872122358957061E+00
    0.10000010021495757684E+01
    0.10000017010648536431E+01
    0.99999892763926856443E+00
    0.10000000548728615879E+01
    0.99999880017817444067E+00
    0.99999904110143778002E+00
    0.10000001120881421013E+01
    0.99999882474517953757E+00
    0.99999891109535987699E+00
    0.10000000767674086521E+01
    0.99999881772908838506E+00
    0.99999918669760068379E+00
    0.10000001775280280558E+01
    0.99999888073303311309E+00
    0.10000025675190249430E+01
    0.10000025866835109412E+01
    0.99999594705692329555E+00
    0.99999853973846453137E+00
    0.99999846115654145162E+00
    0.99999896663275134046E+00
    0.10000001442105612703E+01
    0.99999889909691774825E+00
    0.99999854446587399526E+00
    0.99999865928927633707E+00
    0.99999579904570845557E+00
    0.99999857893028465394E+00
    0.99999782675425719081E+00
    0.99999872315744287032E+00
    0.10000010300961481580E+01
    0.10000017296122472032E+01
    0.99999891795363526903E+00
    0.10000000305900167419E+01
    0.99999873139392803090E+00
    0.99999899234623990107E+00
    0.10000001010232486554E+01
    0.99999880097813387270E+00
    0.99999891859957446005E+00
    0.10000000868313814184E+01
    0.99999883196312511213E+00
    0.99999919592531549828E+00
    0.10000001854825406600E+01
    0.99999887984038204891E+00
    0.10000025584040945770E+01
    0.10000025745281346801E+01
    0.99999894559411717232E+00
    0.10000000866856080250E+01
    0.99999869859334344913E+00
    0.99999897234689105741E+00
    0.10000001401302782700E+01
    0.99999881133122470178E+00
    0.99999893500256054057E+00
    0.10000001123087920440E+01
    0.99999883670000555558E+00
    0.99999908382493185588E+00
    0.10000001991809226443E+01
    0.99999893511570747684E+00
    0.10000025630981179692E+01
    0.10000025818474274075E+01
    0.99999788517540200150E+00
    0.99999882075889889865E+00
    0.99999497520386426697E+00
    0.99999580290322642728E+00
    0.99999908988094243778E+00
    0.99999818577263654973E+00
    0.99999875652737291176E+00
    0.10000000720893751360E+01
    0.99999879225756993506E+00
    0.99999903438826576174E+00
    0.10000001696824960540E+01
    0.99999870798049861342E+00
    0.10000021839246306943E+01
    0.10000022321509982604E+01
    0.99999835830772787482E+00
    0.99999907774183849352E+00
    0.99999547063449933937E+00
    0.99999517691546713216E+00
    0.99999881025479031571E+00
    0.99999771036956830450E+00
    0.99999867371951545181E+00
    0.10000000776593682694E+01
    0.99999879731204355249E+00
    0.99999903516509747181E+00
    0.10000001641151881060E+01
    0.99999878203970038459E+00
    0.10000022131107717538E+01
    0.10000021776086540637E+01
    0.99997532659428722823E+00
    0.99996488761304080928E+00
    0.99990144414372028603E+00
    0.99990171445573627906E+00
    0.99996485845907812084E+00
    0.99997509372251902615E+00
    0.99999147773238994397E+00
    0.99999404751334630692E+00
    0.99999695908392127741E+00
    0.99999715954482115698E+00
    0.99999417258036926714E+00
    0.99999154426295033815E+00
    0.99998787287837165305E+00
    0.99998786842544662434E+00
    0.99999882971743281335E+00
    0.10000001685188690814E+01
    0.99999875591034781408E+00
    0.99999864149789530199E+00
    0.99999867691066335329E+00
    0.99999559751900957139E+00
    0.99999867723633750760E+00
    0.99999779698039381604E+00
    0.99999848052503859108E+00
    0.99999599512686609959E+00
    0.99999889980121459132E+00
    0.99999852764889995971E+00
    0.10000020956305095687E+01
    0.10000014180341203485E+01
    0.99999877757950705881E+00
    0.10000000627181260260E+01
    0.99999865423447498181E+00
    0.99999860401855167336E+00
    0.99999866631838807418E+00
    0.99999559429416040590E+00
    0.99999867590606661416E+00
    0.99999779692722889912E+00
    0.99999847978608913390E+00
    0.99999599394490990001E+00
    0.99999889503946126634E+00
    0.99999851579678300517E+00
    0.10000020145034247410E+01
    0.10000014165020090218E+01
    0.99999857205278552819E+00
    0.99999982076153737243E+00
    0.99999791336892107640E+00
    0.99999853176638564545E+00
    0.99999997819404307098E+00
    0.99999871639223336661E+00
    0.99999894454510396269E+00
    0.10000000452856379063E+01
    0.99999881725641948105E+00
    0.99999910346614029333E+00
    0.10000001075079805180E+01
    0.99999883826534841091E+00
    0.10000024144990273811E+01
    0.10000024585852991255E+01
    0.99999575708950383390E+00
    0.99999782903231804188E+00
    0.99999307959803906964E+00
    0.99999577156769281494E+00
    0.99999904702612429919E+00
    0.99999833867859666547E+00
    0.99999877728926866993E+00
    0.99999997935229856250E+00
    0.99999867444439938247E+00
    0.99999892303711102048E+00
    0.99999993971140810345E+00
    0.99999806906493404757E+00
    0.10000018325518860163E+01
    0.10000020392381083756E+01
    0.99999865925577591241E+00
    0.99999989060240468408E+00
    0.99999851185381805063E+00
    0.99999855584565822131E+00
    0.99999863971551161690E+00
    0.99999558766285856493E+00
    0.99999867293647626276E+00
    0.99999778822740936768E+00
    0.99999847711561029584E+00
    0.99999598860362670649E+00
    0.99999886259855819137E+00
    0.99999847084182569290E+00
    0.10000018390845684113E+01
    0.10000013233963787052E+01
    0.99999851123379435158E+00
    0.99999983361672917237E+00
    0.99999841092324392999E+00
    0.99999851352846746977E+00
    0.99999861697078984424E+00
    0.99999558343598027310E+00
    0.99999867050666613189E+00
    0.99999777532890699039E+00
    0.99999847282506537649E+00
    0.99999597966276776440E+00
    0.99999881961150205445E+00
    0.99999840829387054431E+00
    0.10000017369423861435E+01
    0.10000012562603619592E+01
    0.99998545474035449576E+00
    0.99999157917356906733E+00
    0.99998130058288303701E+00
    0.99998976394650451738E+00
    0.99999686369484575010E+00
    0.99999757939894540204E+00
    0.99999846456080465629E+00
    0.99999949043414260164E+00
    0.99999842434496910570E+00
    0.99999845535892639692E+00
    0.99999845787777763562E+00
    0.99999455448940499647E+00
    0.99999969477476202684E+00
    0.10000005783720966601E+01
    0.99996939511080218388E+00
    0.99998395991003297123E+00
    0.99997072717877955039E+00
    0.99998534653161008645E+00
    0.99999508018177918345E+00
    0.99999707295935325035E+00
    0.99999820707078879156E+00
    0.99999887745785021043E+00
    0.99999806218243347811E+00
    0.99999767951574869418E+00
    0.99999594228870902768E+00
    0.99998818475091122426E+00
    0.99999694211500433916E+00
    0.99999886083190814290E+00
    0.99998035322562228711E+00
    0.99998089754318653100E+00
    0.99995157852882043947E+00
    0.99996369700539489145E+00
    0.99998737291388095638E+00
    0.99999230159918195415E+00
    0.99999681964400510825E+00
    0.99999791453367126159E+00
    0.99999807540471796763E+00
    0.99999807884679370318E+00
    0.99999694394295213229E+00
    0.99999329193766384183E+00
    0.99999545521718524732E+00
    0.99999647924709589297E+00
    0.99984664984494231454E+00
    0.99987003252984218982E+00
    0.99971883981949294373E+00
    0.99981188010597721316E+00
    0.99992888703232085668E+00
    0.99996615745929118280E+00
    0.99998701107493326301E+00
    0.99998418333329519569E+00
    0.99999267012913839459E+00
    0.99999019233018782149E+00
    0.99997077008095180961E+00
    0.99994664884882100697E+00
    0.99995202768941482407E+00
    0.99996178626281861934E+00
    0.99933020698249963587E+00
    0.99922046990312773929E+00
    0.99746692903198297397E+00
    0.99850336579149023830E+00
    0.99951526846312732655E+00
    0.99974515722028078901E+00
    0.99991046815534267989E+00
    0.99990765663534642016E+00
    0.99996714272072850793E+00
    0.99996251543459935274E+00
    0.99987879753453812182E+00
    0.99981781701284300201E+00
    0.99974014433574198701E+00
    0.99977720231936528794E+00
    0.99086556609649056870E+00
    0.99435584083513850473E+00
    0.98720638089765455625E+00
    0.99291370388428501492E+00
    0.99734736918259081495E+00
    0.99869372236400100196E+00
    0.99948420861872033782E+00
    0.99935510254714721157E+00
    0.99973864744605811516E+00
    0.99964959273920073191E+00
    0.99883420820360580006E+00
    0.99759306157568128359E+00
    0.99803162558259428394E+00
    0.99845581074398548349E+00
    0.99935452582323547333E+00
    0.99953679140183160357E+00
    0.99913243697259956910E+00
    0.99947618135196458766E+00
    0.99979176574324679638E+00
    0.99991186567664802620E+00
    0.99996366210877640768E+00
    0.99994440467972922626E+00
    0.99997371946234980822E+00
    0.99995912537117825902E+00
    0.99987437349594299185E+00
    0.99975544744488920035E+00
    0.99981866438810840236E+00
    0.99986275829249038338E+00
    0.99855722449431594256E+00
    0.99911981640768465773E+00
    0.99858776504854751543E+00
    0.99922423383979586120E+00
    0.99967685057276300942E+00
    0.99987517629048372481E+00
    0.99994306397304277834E+00
    0.99989720945919369210E+00
    0.99994421144077605401E+00
    0.99990333627022576213E+00
    0.99971558991001208128E+00
    0.99939879153891642005E+00
    0.99964692030827839719E+00
    0.99974745101059425689E+00
    0.97608208136397434096E+00
    0.98408124780006056564E+00
    0.97098784603904109147E+00
    0.98226402839281845569E+00
    0.99244530104057293585E+00
    0.99645439639267230358E+00
    0.99842797438907915364E+00
    0.99772190987548792229E+00
    0.99890756686421822153E+00
    0.99840921820464401115E+00
    0.99541037501128948328E+00
    0.99125270235444939981E+00
    0.99339166411266610623E+00
    0.99480903103115969621E+00
    0.95494507564570274560E+00
    0.97142914484610554116E+00
    0.95600159228403835954E+00
    0.97417573597669993024E+00
    0.98819733489537175952E+00
    0.99489082888639990276E+00
    0.99746073349150787823E+00
    0.99571036950343227989E+00
    0.99755887781762775379E+00
    0.99609664478392367926E+00
    0.98971345088867379580E+00
    0.97999229127788933802E+00
    0.98729948339101647470E+00
    0.99043866788189183215E+00
    0.99999594610851483267E+00
    0.99999853653801440423E+00
    0.99999845278350296685E+00
    0.99999895066261523802E+00
    0.10000001380815055629E+01
    0.99999889296003852124E+00
    0.99999854359935702597E+00
    0.99999865991593395176E+00
    0.99999580024504897136E+00
    0.99999857937400693508E+00
    0.99999782793595026753E+00
    0.99999872282029744763E+00
    0.10000010033629473938E+01
    0.10000017003627101886E+01
    0.99999885806844246439E+00
    0.99999995577734224206E+00
    0.99999821416488188230E+00
    0.99999812845030022768E+00
    0.99999983655399149463E+00
    0.99999841527038046962E+00
    0.99999881691723113697E+00
    0.10000000231159753561E+01
    0.99999881663537759646E+00
    0.99999918467753567963E+00
    0.10000001549679324864E+01
    0.99999884676051786769E+00
    0.10000024572466019723E+01
    0.10000024418878963317E+01
    0.99999594289427484739E+00
    0.99999852590583038214E+00
    0.99999841346689810617E+00
    0.99999889554866816521E+00
    0.10000000581043708703E+01
    0.99999878545831932808E+00
    0.99999852786250309489E+00
    0.99999865563107603883E+00
    0.99999579900131640997E+00
    0.99999857861877938792E+00
    0.99999782771379852608E+00
    0.99999872147974355752E+00
    0.10000010034361561662E+01
    0.10000016441360048969E+01
    0.99999850533353185078E+00
    0.99999903785148558377E+00
    0.99999543608670393713E+00
    0.99999327293744877387E+00
    0.99999782715585971982E+00
    0.99999560605011794667E+00
    0.99999800542042505125E+00
    0.99999983359546440465E+00
    0.99999872631012354240E+00
    0.99999905449198589480E+00
    0.10000000933285009275E+01
    0.99999872859521943269E+00
    0.10000020324253191539E+01
    0.10000018357287929760E+01
    0.99999251254223753271E+00
    0.99998737155206174343E+00
    0.99996333747082710719E+00
    0.99995175220027465723E+00
    0.99998085681010639991E+00
    0.99998018274971123276E+00
    0.99999319990210167042E+00
    0.99999681314850485947E+00
    0.99999794068718395046E+00
    0.99999835161522765414E+00
    0.99999801391689846497E+00
    0.99999686320696845598E+00
    0.99999645828223515664E+00
    0.99999542905247862379E+00
    0.99974541434241470661E+00
    0.99951528118100008147E+00
    0.99850298721456087758E+00
    0.99746709139844380587E+00
    0.99922039872079249090E+00
    0.99932998179058829535E+00
    0.99981771584662115782E+00
    0.99987866498341826382E+00
    0.99996244708751502728E+00
    0.99996745116997109992E+00
    0.99990776960726168721E+00
    0.99991051318582480079E+00
    0.99977718095611656235E+00
    0.99974010571649996049E+00
    0.99996638878613863799E+00
    0.99992889102016702108E+00
    0.99981150912057981106E+00
    0.99971900625581400224E+00
    0.99987000575043927242E+00
    0.99984650106815531334E+00
    0.99994653354923535016E+00
    0.99997063481309533817E+00
    0.99999010544461741645E+00
    0.99999297677746246116E+00
    0.99998429238089225901E+00
    0.99998705535310183912E+00
    0.99996176563318128760E+00
    0.99995199890885066996E+00
    0.99869399163750915971E+00
    0.99734738509820886065E+00
    0.99291331916321923234E+00
    0.98720653090436238930E+00
    0.99435580241618704012E+00
    0.99086541657502114067E+00
    0.99759292580323422062E+00
    0.99883407634708065714E+00
    0.99964955651216635957E+00
    0.99973898297922036971E+00
    0.99935522528490783323E+00
    0.99948425335809709669E+00
    0.99845579294036734819E+00
    0.99803159283070586039E+00
    0.99999593647382001294E+00
    0.99999850307612203615E+00
    0.99999832453068215887E+00
    0.99999875918914171713E+00
    0.99999989195756255889E+00
    0.99999861570194381599E+00
    0.99999848496536047904E+00
    0.99999863138640709970E+00
    0.99999579398059268431E+00
    0.99999857606981357172E+00
    0.99999782370825573974E+00
    0.99999871863855482879E+00
    0.10000009823674693710E+01
    0.10000015268606465835E+01
    0.99999775172221216923E+00
    0.99999685750838718246E+00
    0.99998942180251437772E+00
    0.99998148662004759935E+00
    0.99999157471687805110E+00
    0.99998531018810765669E+00
    0.99999446908016986768E+00
    0.99999834399674158991E+00
    0.99999834304268064855E+00
    0.99999881775539833928E+00
    0.99999961142131199576E+00
    0.99999845251827701453E+00
    0.10000005698254308406E+01
    0.99999968875044153993E+00
    0.99999593253662188985E+00
    0.99999848479224862086E+00
    0.99999827098775562195E+00
    0.99999864519210956981E+00
    0.99999981920562930338E+00
    0.99999844376215685227E+00
    0.99999841672403044779E+00
    0.99999859628301812631E+00
    0.99999578554464774172E+00
    0.99999857214400145189E+00
    0.99999781724583181042E+00
    0.99999871658220373938E+00
    0.10000009591438883128E+01
    0.10000014642577563784E+01
    0.99999719119048702254E+00
    0.99999507477166138525E+00
    0.99998502121456789293E+00
    0.99997090703475144391E+00
    0.99998395436668463532E+00
    0.99996925318386498116E+00
    0.99998809169733204882E+00
    0.99999582326473102079E+00
    0.99999757972685254792E+00
    0.99999844570198936911E+00
    0.99999899733151642600E+00
    0.99999820012701245986E+00
    0.99999885082416595239E+00
    0.99999693226621166886E+00
    0.99991210477922898292E+00
    0.99979177208874114857E+00
    0.99947580638190502977E+00
    0.99913259993001124482E+00
    0.99953676321998996546E+00
    0.99935438053137159997E+00
    0.99975532146423218283E+00
    0.99987423870128588899E+00
    0.99995906218831775991E+00
    0.99997404210756402065E+00
    0.99994451968799424879E+00
    0.99996370605057194325E+00
    0.99986273828465388469E+00
    0.99981863419031158369E+00
    0.99645466944400229448E+00
    0.99244531809074709727E+00
    0.98226364214799144481E+00
    0.97098798095298566313E+00
    0.98408120743865934443E+00
    0.97608193521255381953E+00
    0.99125256073770295906E+00
    0.99541024583683945792E+00
    0.99840919670065331193E+00
    0.99890791227423048060E+00
    0.99772203717915231014E+00
    0.99842801912920209340E+00