# vtk DataFile Version 3.0
LAPLACIEN  2D
ASCII
DATASET UNSTRUCTURED_GRID
 POINTS        1857  float
   3.1250000000000000E-002  0.93750000000000000        0.0000000000000000     
   6.2500000000000000E-002  0.93750000000000000        0.0000000000000000     
   6.2500000000000000E-002  0.96875000000000000        0.0000000000000000     
   1.8749999999999999E-002  0.95625000000000004        0.0000000000000000     
   4.0625000000000001E-002  0.95937499999999998        0.0000000000000000     
   4.3749999999999997E-002  0.98124999999999996        0.0000000000000000     
   2.1874999999999999E-002  0.97812500000000002        0.0000000000000000     
   9.3750000000000000E-002  0.93750000000000000        0.0000000000000000     
  0.12500000000000000       0.93750000000000000        0.0000000000000000     
  0.12500000000000000       0.96875000000000000        0.0000000000000000     
   8.1250000000000003E-002  0.95625000000000004        0.0000000000000000     
  0.10312499999999999       0.95937499999999998        0.0000000000000000     
  0.10625000000000000       0.98124999999999996        0.0000000000000000     
   8.4375000000000006E-002  0.97812500000000002        0.0000000000000000     
   3.1250000000000000E-002  0.87500000000000000        0.0000000000000000     
   6.2500000000000000E-002  0.87500000000000000        0.0000000000000000     
   6.2500000000000000E-002  0.90625000000000000        0.0000000000000000     
   1.8749999999999999E-002  0.89375000000000004        0.0000000000000000     
   4.0625000000000001E-002  0.89687499999999998        0.0000000000000000     
   4.3749999999999997E-002  0.91874999999999996        0.0000000000000000     
   2.1874999999999999E-002  0.91562500000000002        0.0000000000000000     
   9.3750000000000000E-002  0.87500000000000000        0.0000000000000000     
  0.12500000000000000       0.87500000000000000        0.0000000000000000     
  0.12500000000000000       0.90625000000000000        0.0000000000000000     
   8.1250000000000003E-002  0.89375000000000004        0.0000000000000000     
  0.10312499999999999       0.89687499999999998        0.0000000000000000     
  0.10625000000000000       0.91874999999999996        0.0000000000000000     
   8.4375000000000006E-002  0.91562500000000002        0.0000000000000000     
  0.15625000000000000       0.93750000000000000        0.0000000000000000     
  0.18750000000000000       0.93750000000000000        0.0000000000000000     
  0.18750000000000000       0.96875000000000000        0.0000000000000000     
  0.14374999999999999       0.95625000000000004        0.0000000000000000     
  0.16562499999999999       0.95937499999999998        0.0000000000000000     
  0.16875000000000001       0.98124999999999996        0.0000000000000000     
  0.14687500000000001       0.97812500000000002        0.0000000000000000     
  0.21875000000000000       0.93750000000000000        0.0000000000000000     
  0.25000000000000000       0.93750000000000000        0.0000000000000000     
  0.25000000000000000       0.96875000000000000        0.0000000000000000     
  0.20624999999999999       0.95625000000000004        0.0000000000000000     
  0.22812499999999999       0.95937499999999998        0.0000000000000000     
  0.23125000000000001       0.98124999999999996        0.0000000000000000     
  0.20937500000000001       0.97812500000000002        0.0000000000000000     
  0.15625000000000000       0.87500000000000000        0.0000000000000000     
  0.18750000000000000       0.87500000000000000        0.0000000000000000     
  0.18750000000000000       0.90625000000000000        0.0000000000000000     
  0.14374999999999999       0.89375000000000004        0.0000000000000000     
  0.16562499999999999       0.89687499999999998        0.0000000000000000     
  0.16875000000000001       0.91874999999999996        0.0000000000000000     
  0.14687500000000001       0.91562500000000002        0.0000000000000000     
  0.21875000000000000       0.87500000000000000        0.0000000000000000     
  0.25000000000000000       0.87500000000000000        0.0000000000000000     
  0.25000000000000000       0.90625000000000000        0.0000000000000000     
  0.20624999999999999       0.89375000000000004        0.0000000000000000     
  0.22812499999999999       0.89687499999999998        0.0000000000000000     
  0.23125000000000001       0.91874999999999996        0.0000000000000000     
  0.20937500000000001       0.91562500000000002        0.0000000000000000     
   3.1250000000000000E-002  0.81250000000000000        0.0000000000000000     
   6.2500000000000000E-002  0.81250000000000000        0.0000000000000000     
   6.2500000000000000E-002  0.84375000000000000        0.0000000000000000     
   1.8749999999999999E-002  0.83125000000000004        0.0000000000000000     
   4.0625000000000001E-002  0.83437499999999998        0.0000000000000000     
   4.3749999999999997E-002  0.85624999999999996        0.0000000000000000     
   2.1874999999999999E-002  0.85312500000000002        0.0000000000000000     
   9.3750000000000000E-002  0.81250000000000000        0.0000000000000000     
  0.12500000000000000       0.81250000000000000        0.0000000000000000     
  0.12500000000000000       0.84375000000000000        0.0000000000000000     
   8.1250000000000003E-002  0.83125000000000004        0.0000000000000000     
  0.10312499999999999       0.83437499999999998        0.0000000000000000     
  0.10625000000000000       0.85624999999999996        0.0000000000000000     
   8.4375000000000006E-002  0.85312500000000002        0.0000000000000000     
   3.1250000000000000E-002  0.75000000000000000        0.0000000000000000     
   6.2500000000000000E-002  0.75000000000000000        0.0000000000000000     
   6.2500000000000000E-002  0.78125000000000000        0.0000000000000000     
   1.8749999999999999E-002  0.76875000000000004        0.0000000000000000     
   4.0625000000000001E-002  0.77187499999999998        0.0000000000000000     
   4.3749999999999997E-002  0.79374999999999996        0.0000000000000000     
   2.1874999999999999E-002  0.79062500000000002        0.0000000000000000     
   9.3750000000000000E-002  0.75000000000000000        0.0000000000000000     
  0.12500000000000000       0.75000000000000000        0.0000000000000000     
  0.12500000000000000       0.78125000000000000        0.0000000000000000     
   8.1250000000000003E-002  0.76875000000000004        0.0000000000000000     
  0.10312499999999999       0.77187499999999998        0.0000000000000000     
  0.10625000000000000       0.79374999999999996        0.0000000000000000     
   8.4375000000000006E-002  0.79062500000000002        0.0000000000000000     
  0.15625000000000000       0.81250000000000000        0.0000000000000000     
  0.18750000000000000       0.81250000000000000        0.0000000000000000     
  0.18750000000000000       0.84375000000000000        0.0000000000000000     
  0.14374999999999999       0.83125000000000004        0.0000000000000000     
  0.16562499999999999       0.83437499999999998        0.0000000000000000     
  0.16875000000000001       0.85624999999999996        0.0000000000000000     
  0.14687500000000001       0.85312500000000002        0.0000000000000000     
  0.21875000000000000       0.81250000000000000        0.0000000000000000     
  0.25000000000000000       0.81250000000000000        0.0000000000000000     
  0.25000000000000000       0.84375000000000000        0.0000000000000000     
  0.20624999999999999       0.83125000000000004        0.0000000000000000     
  0.22812499999999999       0.83437499999999998        0.0000000000000000     
  0.23125000000000001       0.85624999999999996        0.0000000000000000     
  0.20937500000000001       0.85312500000000002        0.0000000000000000     
  0.15625000000000000       0.75000000000000000        0.0000000000000000     
  0.18750000000000000       0.75000000000000000        0.0000000000000000     
  0.18750000000000000       0.78125000000000000        0.0000000000000000     
  0.14374999999999999       0.76875000000000004        0.0000000000000000     
  0.16562499999999999       0.77187499999999998        0.0000000000000000     
  0.16875000000000001       0.79374999999999996        0.0000000000000000     
  0.14687500000000001       0.79062500000000002        0.0000000000000000     
  0.21875000000000000       0.75000000000000000        0.0000000000000000     
  0.25000000000000000       0.75000000000000000        0.0000000000000000     
  0.25000000000000000       0.78125000000000000        0.0000000000000000     
  0.20624999999999999       0.76875000000000004        0.0000000000000000     
  0.22812499999999999       0.77187499999999998        0.0000000000000000     
  0.23125000000000001       0.79374999999999996        0.0000000000000000     
  0.20937500000000001       0.79062500000000002        0.0000000000000000     
  0.28125000000000000       0.93750000000000000        0.0000000000000000     
  0.31250000000000000       0.93750000000000000        0.0000000000000000     
  0.31250000000000000       0.96875000000000000        0.0000000000000000     
  0.26874999999999999       0.95625000000000004        0.0000000000000000     
  0.29062500000000002       0.95937499999999998        0.0000000000000000     
  0.29375000000000001       0.98124999999999996        0.0000000000000000     
  0.27187499999999998       0.97812500000000002        0.0000000000000000     
  0.34375000000000000       0.93750000000000000        0.0000000000000000     
  0.37500000000000000       0.93750000000000000        0.0000000000000000     
  0.37500000000000000       0.96875000000000000        0.0000000000000000     
  0.33124999999999999       0.95625000000000004        0.0000000000000000     
  0.35312500000000002       0.95937499999999998        0.0000000000000000     
  0.35625000000000001       0.98124999999999996        0.0000000000000000     
[...]
 CELL_DATA        3584
 SCALARS Cells_density float
 LOOKUP_TABLE default
    0.99999797262765122152E+00
    0.99999957420542351372E+00
    0.99999937195563137760E+00
    0.99999953832178545277E+00
    0.99999960487388162012E+00
    0.99999764956207248812E+00
    0.99999966443100929414E+00
    0.99999883113402210366E+00
    0.99999953946151343143E+00
    0.99999976223138142828E+00
    0.99999900137176844783E+00
    0.99999968990827459159E+00
    0.99999993486158655909E+00
    0.99999992048226515884E+00
    0.99999959365322466098E+00
    0.10000001943408309835E+01
    0.99999951231931638596E+00
    0.99999961916123469852E+00
    0.99999972169247375309E+00
    0.99999771056134356684E+00
    0.99999978020482094276E+00
    0.99999899424384453006E+00
    0.99999964929440854355E+00
    0.99999800992137843902E+00
    0.99999978885301055165E+00
    0.99999948448391462463E+00
    0.10000003896029963091E+01
    0.10000000875505747899E+01
    0.99999802928057446305E+00
    0.99999968399587235712E+00
    0.99999946081349488924E+00
    0.99999971796853248662E+00
    0.10000002108977175119E+01
    0.99999949585280389908E+00
    0.99999955232899795377E+00
    0.99999969357952178672E+00
    0.99999782433898520839E+00
    0.99999973183762314033E+00
    0.99999909185320712268E+00
    0.99999979252600024182E+00
    0.10000000500062491415E+01
    0.10000003744635461711E+01
    0.99999966620581881571E+00
    0.10000003418406853140E+01
    0.99999953092817750466E+00
    0.99999973014586396314E+00
    0.10000003639114276588E+01
    0.99999953988019951723E+00
    0.99999969697992185935E+00
    0.10000003296704051969E+01
    0.99999947721818271962E+00
    0.99999972875003662054E+00
    0.10000003776558179514E+01
    0.99999961841429874099E+00
    0.10000008474294934668E+01
    0.10000008674657525631E+01
    0.99999962260313068896E+00
    0.10000002121923314835E+01
    0.99999951822096344589E+00
    0.99999962245355988877E+00
    0.99999973034747713374E+00
    0.99999771319720620610E+00
    0.99999978519373389219E+00
    0.99999900979034261894E+00
    0.99999967218212870712E+00
    0.99999804754229326686E+00
    0.99999982329352243848E+00
    0.99999953635306393362E+00
    0.10000004698855009533E+01
    0.10000001638201940768E+01
    0.99999962338530212769E+00
    0.10000002126668814384E+01
    0.99999951833428457615E+00
    0.99999962250416696286E+00
    0.99999973063226721415E+00
    0.99999771322850572464E+00
    0.99999978523576893430E+00
    0.99999901062617357894E+00
    0.99999967287956881279E+00
    0.99999804908477607501E+00
    0.99999982492449634996E+00
    0.99999953816328956968E+00
    0.10000004728771003659E+01
    0.10000001667404625483E+01
    0.99999968175611075871E+00
    0.10000003520032372251E+01
    0.99999953668003205287E+00
    0.99999973359218874425E+00
    0.10000003691843812881E+01
    0.99999954290807269164E+00
    0.99999970298353746401E+00
    0.10000003444261591490E+01
    0.99999950542974669343E+00
    0.99999974685078141245E+00
    0.10000004066192897945E+01
    0.99999964465673718550E+00
    0.10000008626701364367E+01
    0.10000008793393362350E+01
    0.99999968251572068922E+00
    0.10000003519972857635E+01
    0.99999953680761899388E+00
    0.99999973363340566301E+00
    0.10000003688860115147E+01
    0.99999954306355653966E+00
    0.99999970307038477113E+00
    0.10000003456219317410E+01
    0.99999950638114654122E+00
    0.99999974865588692197E+00
    0.10000004082378293191E+01
    0.99999964660745499501E+00
    0.10000008623955427556E+01
    0.10000008792488082054E+01
    0.99999803153533972644E+00
    0.99999968813733264295E+00
    0.99999946361113756232E+00
    0.99999972312678309105E+00
    0.10000002204891373925E+01
    0.99999952577655426555E+00
    0.99999955551535357756E+00
    0.99999971798798203970E+00
    0.99999785901519544495E+00
    0.99999975275587316137E+00
    0.99999910237612577024E+00
    0.99999979691755902511E+00
    0.10000000596822460341E+01
    0.10000003840401188171E+01
    0.99999966870918299833E+00
    0.10000003466472993097E+01
    0.99999953390831719524E+00
    0.99999973551108911618E+00
    0.10000003771353669357E+01
    0.99999956071865514495E+00
    0.99999967640046960593E+00
    0.10000003553068887996E+01
    0.99999952076731046802E+00
    0.99999976100372578447E+00
    0.10000003914510557923E+01
    0.99999962352525584297E+00
    0.10000008662399357817E+01
    0.10000008897883285730E+01
    0.99999803155060063009E+00
    0.99999968809323236396E+00
    0.99999946364075631422E+00
    0.99999972321136587627E+00
    0.10000002205990865534E+01
    0.99999952642615685949E+00
    0.99999955707697341101E+00
    0.99999971918426122652E+00
    0.99999786038501881080E+00
    0.99999975335866930770E+00
    0.99999910286230442313E+00
    0.99999979693359208888E+00
    0.10000000597100042743E+01
    0.10000003841227311785E+01
    0.99999966885845137377E+00
    0.10000003463381772484E+01
    0.99999953393958396219E+00
    0.99999973561844601733E+00
    0.10000003770759013921E+01
    0.99999956133979406303E+00
    0.99999967805224176942E+00
    0.10000003567517261605E+01
    0.99999952227463095866E+00
    0.99999976181505589867E+00
    0.10000003925990987863E+01
    0.99999962359377292387E+00
    0.10000008661487329586E+01
    0.10000008894904359735E+01
    0.99999968446343667772E+00
    0.10000003563471266954E+01
    0.99999953971260890917E+00
    0.99999973900535599203E+00
    0.10000003819068907784E+01
    0.99999956387302690874E+00
    0.99999968248939896664E+00
    0.10000003696034553968E+01
    0.99999954157521808717E+00
    0.99999977230449088594E+00
    0.10000004204525194673E+01
    0.99999965005211943758E+00
    0.10000008730142555535E+01
    0.10000008931182202687E+01
    0.99999968521201088034E+00
    0.10000003559607413273E+01
    0.99999953987519185628E+00
    0.99999973905738070989E+00
    0.10000003811740822979E+01
    0.99999956417069635339E+00
    0.99999968257282945139E+00
    0.10000003718387722174E+01
    0.99999954273569713337E+00
    0.99999977438357223747E+00
    0.10000004227161729542E+01
    0.99999965200963314427E+00
    0.10000008720694746334E+01
    0.10000008926098551409E+01
    0.99999968475447509331E+00
    0.10000003555956789025E+01
    0.99999953975306510312E+00
    0.99999973914688311538E+00
    0.10000003814599773833E+01
    0.99999956448275773013E+00
    0.99999968414862461241E+00
    0.10000003716959140476E+01
    0.99999954339963470495E+00
    0.99999977332714151679E+00
    0.10000004226305307942E+01
    0.99999965011527358616E+00
    0.10000008724587243769E+01
    0.10000008921046352750E+01
    0.99999968536249972395E+00
    0.10000003531162597881E+01
    0.99999952234814093455E+00
    0.99999972138593062887E+00
    0.10000003786408830919E+01
    0.99999956464183614724E+00
    0.99999968420575024997E+00
    0.10000003754588582261E+01
    0.99999954493246401288E+00
    0.99999977577809306961E+00
    0.10000004264216950656E+01
    0.99999965204508800554E+00
    0.10000008704065479481E+01
    0.10000008904899231332E+01
    0.99999962330981861935E+00
    0.10000002125957183630E+01
    0.99999951834505951265E+00
    0.99999962248926199671E+00
    0.99999973059884672555E+00
    0.99999771322287345221E+00
    0.99999978522699284333E+00
    0.99999901090859677488E+00
    0.99999967289253699487E+00
    0.99999804918369350482E+00
    0.99999982513433860465E+00
    0.99999953814819853015E+00
    0.10000004728175155844E+01
    0.10000001669075646582E+01
    0.99999962316910318005E+00
    0.10000002125760372174E+01
    0.99999951835438039005E+00
    0.99999962246244278319E+00
    0.99999973052000123985E+00
    0.99999771331512776751E+00
    0.99999978527923860661E+00
    0.99999901111777766971E+00
    0.99999967291743008246E+00
    0.99999804917129830883E+00
    0.99999982495895545220E+00
    0.99999953813692021853E+00
    0.10000004725765510027E+01
    0.10000001670606037951E+01
    0.99999968233178415655E+00
    0.10000003516942548298E+01
    0.99999953684731901493E+00
    0.99999973360935701105E+00
    0.10000003684706666451E+01
    0.99999954328085172151E+00
    0.99999970305932250891E+00
    0.10000003468249629712E+01
    0.99999950651278035618E+00
    0.99999974892867171672E+00
    0.10000004084887470501E+01
    0.99999964661282014777E+00
    0.10000008615603395157E+01
    0.10000008791049934675E+01
    0.99999968224116486670E+00
    0.10000003512500585945E+01
    0.99999953687076947872E+00
    0.99999973355996141233E+00
    0.10000003681326237182E+01
    0.99999954356094755692E+00
    0.99999970320486175623E+00
    0.10000003479213874780E+01
    0.99999950655692537715E+00
    0.99999974918619527475E+00
    0.10000004081821316504E+01
    0.99999964659390938593E+00
    0.10000008607084340806E+01
    0.10000008792544716751E+01
    0.99999962313580970097E+00
    0.10000002124784843627E+01
    0.99999951836152800588E+00
    0.99999962243075590784E+00
    0.99999973050520274409E+00
    0.99999771343394350254E+00
    0.99999978538832934305E+00
    0.99999901122486190008E+00
    0.99999967295796043931E+00
    0.99999804904389044680E+00
    0.99999982446088431232E+00
    0.99999953812661712682E+00
    0.10000004724089197605E+01
    0.10000001673773060151E+01
    0.99999962311438694851E+00
    0.10000002124473004184E+01
    0.99999951836413913941E+00
    0.99999962240017736814E+00
    0.99999973055681334877E+00
    0.99999771355478106472E+00
    0.99999978552496948669E+00
    0.99999901121521750369E+00
    0.99999967298177583341E+00
    0.99999804885371046392E+00
    0.99999982373829787718E+00
    0.99999953811949093829E+00
    0.10000004723520143912E+01
    0.10000001677932621735E+01
    0.99999968210088219234E+00
    0.10000003509004102842E+01
    0.99999953680210429408E+00
    0.99999973348242676696E+00
    0.10000003679575943938E+01
    0.99999954383793976387E+00
    0.99999970341346688940E+00
    0.10000003487195083807E+01
    0.99999950649800639635E+00
    0.99999974936693725169E+00
    0.10000004073299522123E+01
    0.99999964656670536911E+00
    0.10000008600669518799E+01
    0.10000008796846344694E+01
    0.99999968186211340981E+00
    0.10000003507090367005E+01
    0.99999953667817476077E+00
    0.99999973340334880056E+00
    0.10000003679723079575E+01
    0.99999954405356528131E+00
    0.99999970362230916621E+00
    0.10000003490703226472E+01
    0.99999950634923073789E+00
    0.99999974942816993728E+00
    0.10000004061497860253E+01
    0.99999964652161510426E+00
    0.10000008597719272085E+01
    0.10000008802850863798E+01
    0.99999968469322420006E+00
    0.10000003551404861302E+01
    0.99999953903078742101E+00
    0.99999973858305957197E+00
    0.10000003801358814393E+01
    0.99999956464635098019E+00
    0.99999968268465933008E+00
    0.10000003744548928708E+01
    0.99999954305961091805E+00
    0.99999977499824899141E+00
    0.10000004233981540924E+01
    0.99999965199274676309E+00
    0.10000008701670957123E+01
    0.10000008921526974959E+01
    0.99999967750292140245E+00
    0.10000003490768076819E+01
    0.99999951919634832986E+00
    0.99999973033298905634E+00
    0.10000003777263566374E+01
    0.99999956491867658670E+00
    0.99999968299721853082E+00
    0.10000003769267777898E+01
    0.99999954320748196679E+00
    0.99999977558925057242E+00
    0.10000004225127867574E+01
    0.99999965082213881917E+00
    0.10000008672171050161E+01
    0.10000008918123712842E+01
    0.99999723320774991375E+00
    0.99999728637087959005E+00
    0.99996367639659633486E+00
    0.99999412578677571162E+00
    0.99999997833843978778E+00
    0.99999952436325900695E+00
    0.99999968005731332266E+00
    0.10000003749536927611E+01
    0.99999954516845113162E+00
    0.99999977569902054331E+00
    0.10000004020470183441E+01
    0.99999950148157401575E+00
    0.10000006458356409667E+01
    0.10000008255828989334E+01
    0.99975319316284849691E+00
    0.99995636841916368809E+00
    0.99975055898622622319E+00
    0.99996842067399338561E+00
    0.99999724699395731164E+00
    0.99999914337171158518E+00
    0.99999962056037106084E+00
    0.10000003077827297471E+01
    0.99999951937021391846E+00
    0.99999967276900714186E+00
    0.99999876264124942793E+00
    0.99998056938872204036E+00
    0.99999719650894280942E+00
    0.99999992619632738222E+00
    0.99999962121242447211E+00
    0.10000003321993036209E+01
    0.99999942200297187167E+00
    0.99999971040016510937E+00
    0.10000003685380265406E+01
    0.99999956377931442653E+00
    0.99999968308515019277E+00
    0.10000003778770150120E+01
    0.99999954293808368533E+00
    0.99999977546682849994E+00
    0.10000004166160485486E+01
    0.99999963684340609227E+00
    0.10000008597871510307E+01
    0.10000008898182866091E+01
    0.99999940597907333029E+00
    0.10000003163634967329E+01
    0.99999925226119401600E+00
    0.99999967480658635832E+00
    0.10000003750562711513E+01
    0.99999956263537315149E+00
    0.99999968299580699327E+00
    0.10000003769493630568E+01
    0.99999954208734875838E+00
    0.99999977361707759194E+00
    0.10000004011450465136E+01
    0.99999959011609551585E+00
    0.10000008459556573026E+01
    0.10000008851815027633E+01
    0.99965494516172892503E+00
    0.99992839282159573511E+00
    0.99968237523019154445E+00
    0.99994107052442804395E+00
    0.99999045069768432992E+00
    0.99999750730277281452E+00
    0.99999922575589994533E+00
    0.99999955168067067302E+00
    0.99999931890079041263E+00
    0.99999916527857624082E+00
    0.99999550875941234374E+00
    0.99996514583024487255E+00
    0.99999136942521416049E+00
    0.99999659282704989050E+00
    0.99951590216328700667E+00
    0.99987206922933891118E+00
    0.99957133881818183152E+00
    0.99990634306700909573E+00
    0.99998098895226161797E+00
    0.99999569282842593054E+00
    0.99999863973066771550E+00
    0.99999774534021312888E+00
    0.99999862267765526891E+00
    0.99999722246773059542E+00
    0.99998511718460070252E+00
    0.99992994176361360559E+00
    0.99997748828896682038E+00
    0.99998934038729403451E+00
    0.99999803154393163140E+00
    0.99999968803776340120E+00
    0.99999946362346414652E+00
    0.99999972322039187844E+00
    0.10000002204941882411E+01
    0.99999952622235610544E+00
    0.99999955704520371302E+00
    0.99999971937159104485E+00
    0.99999786048774708114E+00
    0.99999975337063140568E+00
    0.99999910312210227303E+00
    0.99999979692320917213E+00
    0.10000000596857194779E+01
    0.10000003838710482817E+01
    0.99999966907531356863E+00
    0.10000003459225235147E+01
    0.99999953391412199633E+00
    0.99999973565705213563E+00
    0.10000003767719547465E+01
    0.99999956115346788632E+00
    0.99999967805230050022E+00
    0.10000003570004414311E+01
    0.99999952254096990956E+00
    0.99999976183488736847E+00
    0.10000003937908723550E+01
    0.99999962358146432528E+00
    0.10000008660034542807E+01
    0.10000008886538951369E+01
    0.99999803163606071355E+00
    0.99999968795900118224E+00
    0.99999946359696556542E+00
    0.99999972322972952021E+00
    0.10000002204743116963E+01
    0.99999952608144160315E+00
    0.99999955703346143920E+00
    0.99999971919629182526E+00
    0.99999786047491578955E+00
    0.99999975339549318498E+00
    0.99999910333123798178E+00
    0.99999979697543861512E+00
    0.10000000598390235140E+01
    0.10000003836305273452E+01
    0.99999966935542727864E+00
    0.10000003455844603817E+01
    0.99999953386532314248E+00
    0.99999973568046340855E+00
    0.10000003763270630674E+01
    0.99999956106241150167E+00
    0.99999967803261657906E+00
    0.10000003566940298683E+01
    0.99999952279821835432E+00
    0.99999976187920947002E+00
    0.10000003948873688042E+01
    0.99999962372698225632E+00
    0.10000008661529744547E+01
    0.10000008878015189673E+01
    0.99999968522920734681E+00
    0.10000003545559903451E+01
    0.99999953927646600960E+00
    0.99999973828891053351E+00
    0.10000003806355166613E+01
    0.99999956395855460478E+00
    0.99999968412533335460E+00
    0.10000003723767585395E+01
    0.99999954401831592232E+00
    0.99999977364960768167E+00
    0.10000004252454595122E+01
    0.99999965022579884177E+00
    0.10000008719996988926E+01
    0.10000008902006400913E+01
    0.99999964951270403635E+00
    0.99999995397815799603E+00
    0.99999388824648827168E+00
    0.99996387992428448221E+00
    0.99999730696212174585E+00
    0.99999709781798995500E+00
    0.99999953764009663626E+00
    0.10000003512500905689E+01
    0.99999954485293729434E+00
    0.99999977601109790726E+00
    0.10000004259477415225E+01
    0.99999964790359607836E+00
    0.10000008048758333157E+01
    0.10000006648657719932E+01
    0.99999968550033646597E+00
    0.10000003521010343288E+01
    0.99999953123020435264E+00
    0.99999972864415020979E+00
    0.10000003743472583029E+01
    0.99999955599664147599E+00
    0.99999968295235597271E+00
    0.10000003714889460493E+01
    0.99999954460892936936E+00
    0.99999977379723570259E+00
    0.10000004277168350608E+01
    0.99999965053809602988E+00
    0.10000008716546764376E+01
    0.10000008872147714278E+01
    0.99999928243784341753E+00
    0.99999724306371140514E+00
    0.99996816023928658534E+00
    0.99975073599761388188E+00
    0.99995635685926631542E+00
    0.99975304063285730383E+00
    0.99998058323667005087E+00
    0.99999870581901784128E+00
    0.99999944651088001901E+00
    0.99999974932834723163E+00
    0.10000003601913771689E+01
    0.99999959040500263630E+00
    0.99999990449653686220E+00
    0.99999720364190347599E+00
    0.99999803175486789986E+00
    0.99999968794422156027E+00
    0.99999946356543023551E+00
    0.99999972323659036544E+00
    0.10000002203768894038E+01
    0.99999952604817465840E+00
    0.99999955702324394569E+00
    0.99999971869817771974E+00
    0.99999786034748205932E+00
    0.99999975343595559618E+00
    0.99999910343825737513E+00
    0.99999979708451436355E+00
    0.10000000601556693347E+01
    0.10000003834627773092E+01
    0.99999966963242659101E+00
    0.10000003454093202571E+01
    0.99999953378691763817E+00
    0.99999973561191268789E+00
    0.10000003759776543433E+01
    0.99999956092178454714E+00
    0.99999967800512901128E+00
    0.10000003558416370453E+01
    0.99999952297910665866E+00
    0.99999976182031946603E+00
    0.10000003956854357501E+01
    0.99999962393551045103E+00
    0.10000008665831503496E+01
    0.10000008871605980953E+01
    0.99999803187624980438E+00
    0.99999968799591065771E+00
    0.99999946353623014872E+00
    0.99999972323939345653E+00
    0.10000002203459510408E+01
    0.99999952602693398251E+00
    0.99999955701618370441E+00
    0.99999971797567177578E+00
    0.99999786015744784873E+00
    0.99999975345978431296E+00
    0.99999910342885078851E+00
    0.99999979722085174938E+00
    0.10000000605714243207E+01
    0.10000003834058115437E+01
    0.99999966984900001687E+00
    0.10000003454246455536E+01
    0.99999953370949457021E+00
    0.99999973548903153819E+00
    0.10000003757865727483E+01
    0.99999956068403739184E+00
    0.99999967796007205312E+00
    0.10000003546618758676E+01
    0.99999952304034256390E+00
    0.99999976167173765251E+00
    0.10000003960365853040E+01
    0.99999962414438092750E+00
    0.10000008671836402296E+01
    0.10000008868655334560E+01
    0.99999968439087472127E+00
    0.10000003429151584911E+01
    0.99999949122455078498E+00
    0.99999962921866125676E+00
    0.10000003603063918334E+01
    0.99999948156384410591E+00
    0.99999967474271089785E+00
    0.10000003659166702974E+01
    0.99999954448810102203E+00
    0.99999977353129532176E+00
    0.10000004287393129410E+01
    0.99999965063138140930E+00
    0.10000008683425700706E+01
    0.10000008784962697295E+01
    0.99999765370687210275E+00
    0.99999045387590312917E+00
    0.99994080130983475918E+00
    0.99968254357905483864E+00
    0.99992838431087649465E+00
    0.99965480105880955009E+00
    0.99996513638928286039E+00
    0.99999543622088693517E+00
    0.99999899252690149787E+00
    0.99999956365794917534E+00
    0.99999960601674631189E+00
    0.99999920612094284067E+00