# vtk DataFile Version 3.0
LAPLACIEN  2D
ASCII
DATASET UNSTRUCTURED_GRID
 POINTS        1857  float
   3.1250000000000000E-002  0.93750000000000000        0.0000000000000000     
   6.2500000000000000E-002  0.93750000000000000        0.0000000000000000     
   6.2500000000000000E-002  0.96875000000000000        0.0000000000000000     
   1.8749999999999999E-002  0.95625000000000004        0.0000000000000000     
   4.0625000000000001E-002  0.95937499999999998        0.0000000000000000     
   4.3749999999999997E-002  0.98124999999999996        0.0000000000000000     
   2.1874999999999999E-002  0.97812500000000002        0.0000000000000000     
   9.3750000000000000E-002  0.93750000000000000        0.0000000000000000     
  0.12500000000000000       0.93750000000000000        0.0000000000000000     
  0.12500000000000000       0.96875000000000000        0.0000000000000000     
   8.1250000000000003E-002  0.95625000000000004        0.0000000000000000     
  0.10312499999999999       0.95937499999999998        0.0000000000000000     
  0.10625000000000000       0.98124999999999996        0.0000000000000000     
   8.4375000000000006E-002  0.97812500000000002        0.0000000000000000     
   3.1250000000000000E-002  0.87500000000000000        0.0000000000000000     
   6.2500000000000000E-002  0.87500000000000000        0.0000000000000000     
   6.2500000000000000E-002  0.90625000000000000        0.0000000000000000     
   1.8749999999999999E-002  0.89375000000000004        0.0000000000000000     
   4.0625000000000001E-002  0.89687499999999998        0.0000000000000000     
   4.3749999999999997E-002  0.91874999999999996        0.0000000000000000     
   2.1874999999999999E-002  0.91562500000000002        0.0000000000000000     
   9.3750000000000000E-002  0.87500000000000000        0.0000000000000000     
  0.12500000000000000       0.87500000000000000        0.0000000000000000     
  0.12500000000000000       0.90625000000000000        0.0000000000000000     
   8.1250000000000003E-002  0.89375000000000004        0.0000000000000000     
  0.10312499999999999       0.89687499999999998        0.0000000000000000     
  0.10625000000000000       0.91874999999999996        0.0000000000000000     
   8.4375000000000006E-002  0.91562500000000002        0.0000000000000000     
  0.15625000000000000       0.93750000000000000        0.0000000000000000     
  0.18750000000000000       0.93750000000000000        0.0000000000000000     
  0.18750000000000000       0.96875000000000000        0.0000000000000000     
  0.14374999999999999       0.95625000000000004        0.0000000000000000     
  0.16562499999999999       0.95937499999999998        0.0000000000000000     
  0.16875000000000001       0.98124999999999996        0.0000000000000000     
  0.14687500000000001       0.97812500000000002        0.0000000000000000     
  0.21875000000000000       0.93750000000000000        0.0000000000000000     
  0.25000000000000000       0.93750000000000000        0.0000000000000000     
  0.25000000000000000       0.96875000000000000        0.0000000000000000     
  0.20624999999999999       0.95625000000000004        0.0000000000000000     
  0.22812499999999999       0.95937499999999998        0.0000000000000000     
  0.23125000000000001       0.98124999999999996        0.0000000000000000     
  0.20937500000000001       0.97812500000000002        0.0000000000000000     
  0.15625000000000000       0.87500000000000000        0.0000000000000000     
  0.18750000000000000       0.87500000000000000        0.0000000000000000     
  0.18750000000000000       0.90625000000000000        0.0000000000000000     
  0.14374999999999999       0.89375000000000004        0.0000000000000000     
  0.16562499999999999       0.89687499999999998        0.0000000000000000     
  0.16875000000000001       0.91874999999999996        0.0000000000000000     
  0.14687500000000001       0.91562500000000002        0.0000000000000000     
  0.21875000000000000       0.87500000000000000        0.0000000000000000     
  0.25000000000000000       0.87500000000000000        0.0000000000000000     
  0.25000000000000000       0.90625000000000000        0.0000000000000000     
  0.20624999999999999       0.89375000000000004        0.0000000000000000     
  0.22812499999999999       0.89687499999999998        0.0000000000000000     
  0.23125000000000001       0.91874999999999996        0.0000000000000000     
  0.20937500000000001       0.91562500000000002        0.0000000000000000     
   3.1250000000000000E-002  0.81250000000000000        0.0000000000000000     
   6.2500000000000000E-002  0.81250000000000000        0.0000000000000000     
   6.2500000000000000E-002  0.84375000000000000        0.0000000000000000     
   1.8749999999999999E-002  0.83125000000000004        0.0000000000000000     
   4.0625000000000001E-002  0.83437499999999998        0.0000000000000000     
   4.3749999999999997E-002  0.85624999999999996        0.0000000000000000     
   2.1874999999999999E-002  0.85312500000000002        0.0000000000000000     
   9.3750000000000000E-002  0.81250000000000000        0.0000000000000000     
  0.12500000000000000       0.81250000000000000        0.0000000000000000     
  0.12500000000000000       0.84375000000000000        0.0000000000000000     
   8.1250000000000003E-002  0.83125000000000004        0.0000000000000000     
  0.10312499999999999       0.83437499999999998        0.0000000000000000     
  0.10625000000000000       0.85624999999999996        0.0000000000000000     
   8.4375000000000006E-002  0.85312500000000002        0.0000000000000000     
   3.1250000000000000E-002  0.75000000000000000        0.0000000000000000     
   6.2500000000000000E-002  0.75000000000000000        0.0000000000000000     
   6.2500000000000000E-002  0.78125000000000000        0.0000000000000000     
   1.8749999999999999E-002  0.76875000000000004        0.0000000000000000     
   4.0625000000000001E-002  0.77187499999999998        0.0000000000000000     
   4.3749999999999997E-002  0.79374999999999996        0.0000000000000000     
   2.1874999999999999E-002  0.79062500000000002        0.0000000000000000     
   9.3750000000000000E-002  0.75000000000000000        0.0000000000000000     
  0.12500000000000000       0.75000000000000000        0.0000000000000000     
  0.12500000000000000       0.78125000000000000        0.0000000000000000     
   8.1250000000000003E-002  0.76875000000000004        0.0000000000000000     
  0.10312499999999999       0.77187499999999998        0.0000000000000000     
  0.10625000000000000       0.79374999999999996        0.0000000000000000     
   8.4375000000000006E-002  0.79062500000000002        0.0000000000000000     
  0.15625000000000000       0.81250000000000000        0.0000000000000000     
  0.18750000000000000       0.81250000000000000        0.0000000000000000     
  0.18750000000000000       0.84375000000000000        0.0000000000000000     
  0.14374999999999999       0.83125000000000004        0.0000000000000000     
  0.16562499999999999       0.83437499999999998        0.0000000000000000     
  0.16875000000000001       0.85624999999999996        0.0000000000000000     
  0.14687500000000001       0.85312500000000002        0.0000000000000000     
  0.21875000000000000       0.81250000000000000        0.0000000000000000     
  0.25000000000000000       0.81250000000000000        0.0000000000000000     
  0.25000000000000000       0.84375000000000000        0.0000000000000000     
  0.20624999999999999       0.83125000000000004        0.0000000000000000     
  0.22812499999999999       0.83437499999999998        0.0000000000000000     
  0.23125000000000001       0.85624999999999996        0.0000000000000000     
  0.20937500000000001       0.85312500000000002        0.0000000000000000     
  0.15625000000000000       0.75000000000000000        0.0000000000000000     
  0.18750000000000000       0.75000000000000000        0.0000000000000000     
  0.18750000000000000       0.78125000000000000        0.0000000000000000     
  0.14374999999999999       0.76875000000000004        0.0000000000000000     
  0.16562499999999999       0.77187499999999998        0.0000000000000000     
  0.16875000000000001       0.79374999999999996        0.0000000000000000     
  0.14687500000000001       0.79062500000000002        0.0000000000000000     
  0.21875000000000000       0.75000000000000000        0.0000000000000000     
  0.25000000000000000       0.75000000000000000        0.0000000000000000     
  0.25000000000000000       0.78125000000000000        0.0000000000000000     
  0.20624999999999999       0.76875000000000004        0.0000000000000000     
  0.22812499999999999       0.77187499999999998        0.0000000000000000     
  0.23125000000000001       0.79374999999999996        0.0000000000000000     
  0.20937500000000001       0.79062500000000002        0.0000000000000000     
  0.28125000000000000       0.93750000000000000        0.0000000000000000     
  0.31250000000000000       0.93750000000000000        0.0000000000000000     
  0.31250000000000000       0.96875000000000000        0.0000000000000000     
  0.26874999999999999       0.95625000000000004        0.0000000000000000     
  0.29062500000000002       0.95937499999999998        0.0000000000000000     
  0.29375000000000001       0.98124999999999996        0.0000000000000000     
  0.27187499999999998       0.97812500000000002        0.0000000000000000     
  0.34375000000000000       0.93750000000000000        0.0000000000000000     
  0.37500000000000000       0.93750000000000000        0.0000000000000000     
  0.37500000000000000       0.96875000000000000        0.0000000000000000     
  0.33124999999999999       0.95625000000000004        0.0000000000000000     
  0.35312500000000002       0.95937499999999998        0.0000000000000000     
  0.35625000000000001       0.98124999999999996        0.0000000000000000     
[...]
 CELL_DATA        3584
 SCALARS Cells_density float
 LOOKUP_TABLE default
    0.99999454344050586752E+00
    0.99999735656542076967E+00
    0.99999735091114372310E+00
    0.99999746303526226843E+00
    0.99999737947430977769E+00
    0.99999438661997541722E+00
    0.99999757302891156829E+00
    0.99999647510656475280E+00
    0.99999797571642579097E+00
    0.99999827982645239643E+00
    0.99999676192844166867E+00
    0.99999767508548786932E+00
    0.10000008805035467407E+01
    0.10000008426297115616E+01
    0.99999805423752941014E+00
    0.99999957413601192613E+00
    0.99999809041725706837E+00
    0.99999787227464564943E+00
    0.99999780750871092305E+00
    0.99999437719828587756E+00
    0.99999781552885991243E+00
    0.99999676830680417350E+00
    0.99999759501006024731E+00
    0.99999486132520409853E+00
    0.99999798084949986787E+00
    0.99999748050490100404E+00
    0.10000024009800703162E+01
    0.10000016590953375584E+01
    0.99999475660129544252E+00
    0.99999779213157291569E+00
    0.99999771601787279529E+00
    0.99999832583016934340E+00
    0.99999969011402844998E+00
    0.99999825512213202927E+00
    0.99999767223722779708E+00
    0.99999786014225078290E+00
    0.99999449086586378321E+00
    0.99999767774759718009E+00
    0.99999692518117677675E+00
    0.99999791800416393261E+00
    0.10000016373537665704E+01
    0.10000023993858639937E+01
    0.99999835211197662943E+00
    0.99999971558408840000E+00
    0.99999822282944283991E+00
    0.99999846157013083658E+00
    0.99999975005436614328E+00
    0.99999822263208815176E+00
    0.99999832646951081205E+00
    0.99999968936513117246E+00
    0.99999813868442855025E+00
    0.99999868785883661015E+00
    0.10000000214836193280E+01
    0.99999828706187221528E+00
    0.10000035961289601705E+01
    0.10000035816406107614E+01
    0.99999821623471829568E+00
    0.99999981157694717293E+00
    0.99999817139459179494E+00
    0.99999794322845836358E+00
    0.99999801282654732226E+00
    0.99999445031615852297E+00
    0.99999791659636994012E+00
    0.99999700304236083248E+00
    0.99999769315224240618E+00
    0.99999482799524297416E+00
    0.99999824700410633316E+00
    0.99999776214642599470E+00
    0.10000029409164761240E+01
    0.10000021873959124008E+01
    0.99999821443276026844E+00
    0.99999965160990034185E+00
    0.99999801026337475918E+00
    0.99999788692037339111E+00
    0.99999798732915712307E+00
    0.99999443630961104557E+00
    0.99999791365064516491E+00
    0.99999701149390118893E+00
    0.99999771165265627371E+00
    0.99999486646937485457E+00
    0.99999827010452468912E+00
    0.99999779943586097897E+00
    0.10000028199559023445E+01
    0.10000021764881745767E+01
    0.99999834703619217002E+00
    0.99999975892170200886E+00
    0.99999805679675735082E+00
    0.99999834899744310945E+00
    0.99999978379947362939E+00
    0.99999822272433203096E+00
    0.99999837748682118832E+00
    0.99999975425858089739E+00
    0.99999827875831237556E+00
    0.99999857153396065623E+00
    0.99999985883181341517E+00
    0.99999833720279329707E+00
    0.10000035724013445204E+01
    0.10000035847803665501E+01
    0.99999709116512669471E+00
    0.99999849170534405030E+00
    0.99999489370747318695E+00
    0.99999588032220432243E+00
    0.99999887419891053675E+00
    0.99999765760769132594E+00
    0.99999813451702657119E+00
    0.99999971433723144898E+00
    0.99999820584985188443E+00
    0.99999849195331880214E+00
    0.99999985094870047497E+00
    0.99999804177257201054E+00
    0.10000031942390956718E+01
    0.10000032454129639259E+01
    0.99999478353527260222E+00
    0.99999782649517532374E+00
    0.99999773852206019775E+00
    0.99999835089987065828E+00
    0.99999974565871996290E+00
    0.99999830851357729422E+00
    0.99999778840018838100E+00
    0.99999796708070620710E+00
    0.99999463899536922273E+00
    0.99999778301699926431E+00
    0.99999699363847582845E+00
    0.99999795726805107421E+00
    0.10000016907776700936E+01
    0.10000024631602972836E+01
    0.99999834694023681525E+00
    0.99999974501093402690E+00
    0.99999805456184653885E+00
    0.99999831858450427546E+00
    0.99999980273142119458E+00
    0.99999818629952497151E+00
    0.99999832538744171107E+00
    0.99999977571770759521E+00
    0.99999829651152782883E+00
    0.99999866587406749385E+00
    0.99999988935598571604E+00
    0.99999828328999906812E+00
    0.10000036062000112747E+01
    0.10000036222991472989E+01
    0.99999477176979423287E+00
    0.99999781835749401715E+00
    0.99999765618638414288E+00
    0.99999826200823105360E+00
    0.99999963319828355512E+00
    0.99999820719663179425E+00
    0.99999779534805488534E+00
    0.99999800155442486460E+00
    0.99999466159082850414E+00
    0.99999779858839565883E+00
    0.99999701960988485183E+00
    0.99999795752945008775E+00
    0.10000017359605168910E+01
    0.10000024232011066605E+01
    0.99999782850240814813E+00
    0.99999886787877068084E+00
    0.99999552869150520884E+00
    0.99999508318363816706E+00
    0.99999847599172753121E+00
    0.99999691603184270861E+00
    0.99999797831891479305E+00
    0.99999973956366194905E+00
    0.99999825005482279039E+00
    0.99999854053057035674E+00
    0.99999982929688402411E+00
    0.99999810373303266164E+00
    0.10000032457651848450E+01
    0.10000031983898451937E+01
    0.99999686239478191574E+00
    0.99999771489925914913E+00
    0.99999264976174606634E+00
    0.99999292442186737961E+00
    0.99999770129625042969E+00
    0.99999665628388667571E+00
    0.99999789231292679492E+00
    0.99999964091648729791E+00
    0.99999819592174088445E+00
    0.99999840717183363648E+00
    0.99999973602148661822E+00
    0.99999794695989885351E+00
    0.10000028577389719064E+01
    0.10000028588173501820E+01
    0.99997249783431774173E+00
    0.99996872441158279887E+00
    0.99992743037134645956E+00
    0.99993507239278722754E+00
    0.99997337036298827861E+00
    0.99998109959072245534E+00
    0.99999212692202432695E+00
    0.99999401347218164204E+00
    0.99999612058227427269E+00
    0.99999611129523324760E+00
    0.99999315972013369525E+00
    0.99998918702133576808E+00
    0.99998969662144010506E+00
    0.99999046847395811621E+00
    0.99998135223098294500E+00
    0.99997337739903469078E+00
    0.99993468704578292172E+00
    0.99992759869248015736E+00
    0.99996865738505791299E+00
    0.99997227167468372144E+00
    0.99998907806142778298E+00
    0.99999301639366133809E+00
    0.99999600913719877138E+00
    0.99999639604911294555E+00
    0.99999412055938496913E+00
    0.99999218567636793953E+00
    0.99999044368485057177E+00
    0.99998965696301100881E+00
    0.99970785773342563107E+00
    0.99960368248955688841E+00
    0.99909795959219716011E+00
    0.99909823653403218024E+00
    0.99960362296555527184E+00
    0.99970755899989627302E+00
    0.99988356682880819015E+00
    0.99989809524044503952E+00
    0.99995942465347520400E+00
    0.99995960062648792110E+00
    0.99989824422605755316E+00
    0.99988365632710751729E+00
    0.99980374401500915482E+00
    0.99980372899396607878E+00
    0.99999787673839724000E+00
    0.99999930724169416862E+00
    0.99999745722988908625E+00
    0.99999756345927348633E+00
    0.99999785462528978375E+00
    0.99999435053571528176E+00
    0.99999786249275013361E+00
    0.99999695901388263586E+00
    0.99999768522209353527E+00
    0.99999484303141172870E+00
    0.99999815583829509968E+00
    0.99999770852067582094E+00
    0.10000024060167385098E+01
    0.10000018930756346958E+01
    0.99999643951053285296E+00
    0.99999829549998764389E+00
    0.99999535962926899835E+00
    0.99999635571850631344E+00
    0.99999736141969719494E+00
    0.99999412530376774466E+00
    0.99999772408050469075E+00
    0.99999679072689817705E+00
    0.99999758406986294368E+00
    0.99999473188284448977E+00
    0.99999799382798471026E+00
    0.99999722901405418973E+00
    0.10000019280760170659E+01
    0.10000014537609904774E+01
    0.99998653508823132086E+00
    0.99998888883855374665E+00
    0.99997425346671653390E+00
    0.99998095845712708929E+00
    0.99999287753405929902E+00
    0.99999454681648680676E+00
    0.99999692709262333334E+00
    0.99999837011751824267E+00
    0.99999760868181142293E+00
    0.99999769123607273880E+00
    0.99999771331473785718E+00
    0.99999433487226185857E+00
    0.99999926655013959831E+00
    0.99999993875096260254E+00
    0.99993695953108219232E+00
    0.99995000024890812185E+00
    0.99990190417210444984E+00
    0.99993344168871756139E+00
    0.99997282554511457420E+00
    0.99998515179706726208E+00
    0.99999294563970930749E+00
    0.99999269033940618723E+00
    0.99999497634666878465E+00
    0.99999384353594023001E+00
    0.99998660365568214914E+00
    0.99997470260968968070E+00
    0.99998269762375946446E+00
    0.99998670420777358014E+00
    0.99999266193325475616E+00
    0.99999597889045543919E+00
    0.99999145768571862103E+00
    0.99999425850249068493E+00
    0.99999647621711196255E+00
    0.99999391348893407194E+00
    0.99999764376590238868E+00
    0.99999655161499678702E+00
    0.99999743131229623661E+00
    0.99999446692634474942E+00
    0.99999736730836519261E+00
    0.99999579512421377103E+00
    0.10000009923099346665E+01
    0.10000007372829500252E+01
    0.99998789044015579108E+00
    0.99999360568470774258E+00
    0.99998844611684223338E+00
    0.99999288488170923195E+00
    0.99999584268564989387E+00
    0.99999373840180616480E+00
    0.99999757105755671116E+00
    0.99999636254063961616E+00
    0.99999738250342873336E+00
    0.99999427516133043703E+00
    0.99999644112928942619E+00
    0.99999366150692914346E+00
    0.10000000029285087688E+01
    0.10000000747311397209E+01
    0.99980868592630689484E+00
    0.99986473391128571908E+00
    0.99976586217039664639E+00
    0.99985331116623499259E+00
    0.99993717826005901195E+00
    0.99997011066994678785E+00
    0.99998574346766044840E+00
    0.99998054243394929319E+00
    0.99998839750537371618E+00
    0.99998327688055654860E+00
    0.99995760111730946917E+00
    0.99991889565183089683E+00
    0.99994562428859812275E+00
    0.99995879867523762563E+00
    0.99964329380108130074E+00
    0.99977669853190798133E+00
    0.99965892583019333451E+00
    0.99980156453873847422E+00
    0.99991151946775913562E+00
    0.99996140382135256797E+00
    0.99998030590250186478E+00
    0.99996853761023773988E+00
    0.99998012642469435995E+00
    0.99996828685626071298E+00
    0.99991945211274846361E+00
    0.99983710109045076386E+00
    0.99990632755795016973E+00
    0.99993173462817575015E+00
    0.99975853602716002744E+00
    0.99975337912392492346E+00
    0.99948985747407304014E+00
    0.99958964602290523160E+00
    0.99982244297071920514E+00
    0.99989425568396905764E+00
    0.99995617011696502630E+00
    0.99995272875465757156E+00
    0.99997882825186823474E+00
    0.99997496456839729539E+00
    0.99993448779002747084E+00
    0.99990467053055898106E+00
    0.99988995490509702257E+00
    0.99990202063664668231E+00
    0.99869449006776767064E+00
    0.99885259154796257608E+00
    0.99787456614484149053E+00
    0.99843989552282730315E+00
    0.99929750751887758131E+00
    0.99962060807675112706E+00
    0.99983150661915554114E+00
    0.99978692071196517688E+00
    0.99989870568644423354E+00
    0.99986707703619359666E+00
    0.99964993882477182208E+00
    0.99945072163077808280E+00
    0.99946758658086620741E+00
    0.99954841163742080834E+00
    0.99616553945985120144E+00
    0.99566318641348849905E+00
    0.98970853845725714759E+00
    0.99234480344807463048E+00
    0.99681088859500399657E+00
    0.99804007594648702639E+00
    0.99917047417956750266E+00
    0.99913871798374687128E+00
    0.99963458041531072507E+00
    0.99959312219963813995E+00
    0.99893626916014666151E+00
    0.99858907397126261962E+00
    0.99806788246021982403E+00
    0.99824191682643692580E+00
    0.97130025032741351687E+00
    0.97794102992472342617E+00
    0.95917925013199401008E+00
    0.97191830562708592112E+00
    0.98714989985193446476E+00
    0.99264041052503393381E+00
    0.99656246098160572444E+00
    0.99586704719606977676E+00
    0.99800210096248243019E+00
    0.99749505114054748400E+00
    0.99348994096414000587E+00
    0.98930838997499581655E+00
    0.99003068823218220995E+00
    0.99157451897160031606E+00
    0.99583439896929570878E+00
    0.99680463619671366704E+00
    0.99473583675231280754E+00
    0.99643497370635791821E+00
    0.99832944061278783288E+00
    0.99916785058547985532E+00
    0.99959875230602068807E+00
    0.99942193307856697082E+00
    0.99969113548142496395E+00
    0.99955817504747035418E+00
    0.99888217609808704900E+00
    0.99810152221365044944E+00
    0.99848945751377060631E+00
    0.99877799016993107362E+00
    0.99204134548069966559E+00
    0.99463427474682164497E+00
    0.99220858742376949468E+00
    0.99511106604966226286E+00
    0.99761121804328367624E+00
    0.99889509357265693357E+00
    0.99941782227623776613E+00
    0.99905100811916058845E+00
    0.99942227514191772642E+00
    0.99910473789043385828E+00
    0.99784157348875068827E+00
    0.99604951902836691424E+00
    0.99742330503594567315E+00
    0.99801028068699304541E+00
    0.93011420791561505439E+00
    0.94697888194624457725E+00
    0.91747324747667868827E+00
    0.94113288753006241194E+00
    0.97025118718588931888E+00
    0.98365643710591676996E+00
    0.99156810576886766917E+00
    0.98861319114756107673E+00
    0.99364284204464181638E+00
    0.99142700713067000162E+00
    0.97989811615148059154E+00
    0.96694438699574358775E+00
    0.97313708328962678085E+00
    0.97765550291662783877E+00
    0.88467226505025375882E+00
    0.91663995149499843951E+00
    0.88636718718963447561E+00
    0.92152369846284665211E+00
    0.95773334373632090788E+00
    0.97818157458414933814E+00
    0.98760166826410367147E+00
    0.98112468471220704025E+00
    0.98785975273839421451E+00
    0.98240283341020062657E+00
    0.96198125064581818666E+00
    0.93588448945844904259E+00
    0.95508502608199119521E+00
    0.96384176573190849524E+00
    0.99999471440012277501E+00
    0.99999768727532700741E+00
    0.99999722663674051049E+00
    0.99999765947566510160E+00
    0.99999922455250311870E+00
    0.99999777664400624211E+00
    0.99999766807083934061E+00
    0.99999789040603181967E+00
    0.99999463719524883665E+00
    0.99999777006414214409E+00
    0.99999697818595645327E+00
    0.99999790577172431583E+00
    0.10000015652964666657E+01
    0.10000020859900577985E+01
    0.99999477495628452672E+00
    0.99999288130659913509E+00
    0.99998058416373492019E+00
    0.99997442350575072023E+00
    0.99998885771791545807E+00
    0.99998637278066693224E+00
    0.99999421745712580023E+00
    0.99999757433113067862E+00
    0.99999757640800501779E+00
    0.99999795002031666158E+00
    0.99999849697200138277E+00
    0.99999696118618597307E+00
    0.99999993008331944377E+00
    0.99999924587283439692E+00
    0.99999459914714650122E+00
    0.99999722921362510508E+00
    0.99999597416047569798E+00
    0.99999552956153658911E+00
    0.99999820434481900833E+00
    0.99999632447580966144E+00
    0.99999713963556957630E+00
    0.99999773295221050518E+00
    0.99999455579614338063E+00
    0.99999767710897202733E+00
    0.99999686400229259586E+00
    0.99999785873261481939E+00
    0.10000012380349070362E+01
    0.10000016879692670280E+01
    0.99998541253492023717E+00
    0.99997283660409752581E+00
    0.99993305810365740172E+00
    0.99990206755581012565E+00
    0.99994997214422387533E+00
    0.99993681016185853583E+00
    0.99997456611663093629E+00
    0.99998646990059636419E+00
    0.99999379679980682223E+00
    0.99999534053337113537E+00
    0.99999283005138239755E+00
    0.99999299180500100803E+00
    0.99998669501104664459E+00
    0.99998267322272826885E+00
    0.99989453294193120225E+00
    0.99982245385034607121E+00
    0.99958924659528003431E+00
    0.99949000326515458070E+00
    0.99975330272576345969E+00
    0.99975835369120835683E+00
    0.99990451451835005159E+00
    0.99993434155096394544E+00
    0.99997492217800920677E+00
    0.99997914785918207148E+00
    0.99995285219374896446E+00
    0.99995622711473586275E+00
    0.99990199586639993967E+00
    0.99988990694486967747E+00
    0.99804037754549335126E+00
    0.99681090843008723912E+00
    0.99234440169688853395E+00
    0.98970868410638535018E+00
    0.99566308545542403508E+00
    0.99616528485748911947E+00
    0.99858894499455441718E+00
    0.99893613725377472523E+00
    0.99959311888989066386E+00
    0.99963491327885056759E+00
    0.99913884944546094147E+00
    0.99917052695347940983E+00
    0.99824189338333346733E+00
    0.99806783060212078684E+00
    0.99962089663799236217E+00
    0.99929752243564773373E+00
    0.99843949301087919768E+00
    0.99787471473664690613E+00
    0.99885254868459960598E+00
    0.99869434136747503583E+00
    0.99945056129126375044E+00
    0.99964979983936785857E+00
    0.99986706261917079885E+00
    0.99989904795219242128E+00
    0.99978705394590683397E+00
    0.99983156349723145695E+00
    0.99954839280409524260E+00
    0.99946754837839169028E+00
    0.99264071825905686453E+00
    0.98714992761392406084E+00
    0.97191791552782347274E+00
    0.95917939415962716332E+00
    0.97794098884131941407E+00
    0.97130010992371329515E+00
    0.98930822556222131059E+00
    0.99348981209329589870E+00
    0.99749506536176257843E+00
    0.99800245921107888503E+00
    0.99586719091455910835E+00
    0.99656251739199774864E+00
    0.99157450783761424962E+00
    0.99003065493170083755E+00
    0.99999433492064926376E+00
    0.99999636929765445270E+00
    0.99999386117556798848E+00
    0.99999161784875878478E+00
    0.99999590008899474913E+00
    0.99999254793798741936E+00
    0.99999566181014121202E+00
    0.99999709056523466977E+00
    0.99999431449153686202E+00
    0.99999752636021521646E+00
    0.99999664983844949173E+00
    0.99999774100115867981E+00
    0.10000005748699229979E+01
    0.10000007898156129116E+01
    0.99997037664603505291E+00
    0.99993719013475179658E+00
    0.99985292363793354387E+00
    0.99976602247324952710E+00
    0.99986470428479035100E+00
    0.99980854020540677052E+00
    0.99991875135918095729E+00
    0.99995747381327571013E+00
    0.99998326285950323022E+00
    0.99998877585793066736E+00
    0.99998068927902394876E+00
    0.99998579100223550231E+00
    0.99995878980358243737E+00
    0.99994559915885050660E+00
    0.99999409862765187285E+00
    0.99999574878437380576E+00
    0.99999251407807754344E+00
    0.99998860194392191758E+00
    0.99999353136312074675E+00
    0.99998776931738453388E+00
    0.99999350981859724818E+00
    0.99999615695354726608E+00
    0.99999409298560126835E+00
    0.99999744190443806691E+00
    0.99999649110197275093E+00
    0.99999767124451965916E+00
    0.99999993753378346728E+00
    0.99999981829598616478E+00
    0.99996138536669598729E+00
    0.99991148116340800023E+00
    0.99980117119883082921E+00
    0.99965905439977187363E+00
    0.99977666244049856470E+00
    0.99964314806685894421E+00
    0.99983695308845754735E+00
    0.99991932299163477360E+00
    0.99996827583567571285E+00
    0.99998050057021281578E+00
    0.99996867537174682905E+00
    0.99998030807170956713E+00
    0.99993171679178527445E+00
    0.99990629809099984548E+00
    0.99916814320974711716E+00
    0.99832945709015374902E+00
    0.99643456985561318362E+00
    0.99473598187564882256E+00
    0.99680459289939193912E+00
    0.99583425273669556876E+00
    0.99810135833313651244E+00
    0.99888204028732829887E+00
    0.99955817388100665077E+00
    0.99969148734578405779E+00
    0.99942207097889290690E+00
    0.99959880917876242634E+00
    0.99877797295123527110E+00
    0.99848942016312935976E+00
    0.98365673984718871026E+00
    0.97025120992945945719E+00
    0.94113248648019565135E+00
    0.91747332654045865574E+00
    0.94697882485087969684E+00
    0.93011406634114834890E+00
    0.96694422547002278900E+00
    0.97989799213358996788E+00
    0.99142703046248858989E+00
    0.99364320337719658216E+00
    0.98861333599037526376E+00
    0.99156816062071928553E+00